INSANE! Membrane UpperLeaflet>loPI:POPI:DPPI:PYPI:ERGO=140.0:15.0:9.0:6.0:30.0 LowerLeaflet>loPI:POPI:DPPI:PYPI:ERGO=140.0:15.0:9.0:6.0:30.0
48854
    1loPI    C1    1   3.473   6.960  10.118 -0.0297  0.2326  0.2089
    1loPI    C2    2   3.819   7.041  10.300  0.2481 -0.2552 -0.0798
    1loPI    C3    3   3.575   6.762  10.450 -0.0198  0.0741  0.1122
    1loPI   PO4    4   3.512   6.942   9.936 -0.1825  0.0503  0.1070
    1loPI   GL1    5   3.946   6.930   9.501  0.2267 -0.1648 -0.2949
    1loPI   GL2    6   3.691   7.163   9.533 -0.2162 -0.0159 -0.1111
    1loPI   C1A    7   3.697   6.868   9.060 -0.2467 -0.0394 -0.0456
    1loPI   C2A    8   3.668   6.917   8.692  0.3920 -0.1624 -0.1818
    1loPI   C3A    9   3.628   6.939   8.325 -0.2588 -0.1807  0.0661
    1loPI   C4A   10   3.428   6.914   8.017  0.0902 -0.1304 -0.2203
    1loPI   C5A   11   3.089   6.965   7.727  0.1463  0.0594  0.3239
    1loPI   C6A   12   2.708   7.026   7.528  0.3110 -0.0779  0.4131
    1loPI   C1B   13   3.481   7.310   9.144 -0.1819 -0.1411  0.1738
    1loPI   C2B   14   3.374   7.332   8.749  0.0096 -0.0696 -0.0928
    1loPI   C3B   15   3.159   7.230   8.409 -0.2658 -0.0451 -0.0248
    1loPI   C4B   16   2.904   7.319   8.249  0.0058  0.0652  0.3283
    2loPI    C1   17  14.195   8.268  10.011 -0.2949  0.2334  0.0676
    2loPI    C2   18  14.187   8.436  10.373 -0.1422  0.1317  0.1193
    2loPI    C3   19  14.302   8.055  10.332 -0.0901  0.1643 -0.0443
    2loPI   PO4   20  13.931   8.349   9.885 -0.1566 -0.2854 -0.0137
    2loPI   GL1   21  13.968   8.458   9.498 -0.1563 -0.0277 -0.1030
    2loPI   GL2   22  14.091   8.129   9.491 -0.1335 -0.0443  0.1317
    2loPI   C1A   23  14.038   8.706   9.153  0.0994  0.1207  0.2426
    2loPI   C2A   24  14.023   8.474   8.820  0.4233  0.0036 -0.2925
    2loPI   C3A   25  14.052   8.287   8.452  0.1925 -0.0627 -0.1491
    2loPI   C4A   26  14.141   8.206   8.042  0.6037  0.2900  0.1131
    2loPI   C5A   27  13.889   7.900   7.810 -0.0830  0.0390  0.1119
    2loPI   C6A   28  13.915   7.751   7.494  0.1644 -0.0757  0.2739
    2loPI   C1B   29  13.973   8.018   9.037  0.0730 -0.2475  0.0924
    2loPI   C2B   30  14.125   7.845   8.679 -0.0565 -0.0753  0.2509
    2loPI   C3B   31  14.127   7.716   8.222  0.2301  0.0014  0.2270
    2loPI   C4B   32  14.145   7.424   7.886  0.1131 -0.1464 -0.1355
    3loPI    C1   33  12.801   3.783  10.335 -0.2598  0.0025 -0.1114
    3loPI    C2   34  12.578   3.877  10.653 -0.1341  0.2095 -0.0829
    3loPI    C3   35  12.939   3.713  10.704 -0.0904  0.2947 -0.1162
    3loPI   PO4   36  12.647   3.813  10.091 -0.2018 -0.1989  0.1370
    3loPI   GL1   37  12.774   3.836   9.718  0.1390  0.3395 -0.0229
    3loPI   GL2   38  12.918   4.036   9.502 -0.1670 -0.1432 -0.0236
    3loPI   C1A   39  12.758   3.444   9.539  0.2853  0.2214  0.2089
    3loPI   C2A   40  12.859   3.203   9.261 -0.1682 -0.0619  0.0258
    3loPI   C3A   41  12.775   3.210   8.798 -0.2572 -0.0981  0.0722
    3loPI   C4A   42  12.909   3.112   8.235  0.1358  0.1778 -0.0427
    3loPI   C5A   43  13.089   3.067   7.860  0.1010  0.1386  0.0145
    3loPI   C6A   44  13.207   2.706   7.692 -0.1384  0.2593 -0.0234
    3loPI   C1B   45  13.182   4.008   9.126 -0.1683 -0.0764  0.0885
    3loPI   C2B   46  13.464   4.073   8.924  0.0894  0.0249 -0.1464
    3loPI   C3B   47  13.511   4.041   8.507 -0.0616 -0.0364  0.0736
    3loPI   C4B   48  13.567   3.984   8.031  0.0372  0.2517  0.2766
    4loPI    C1   49  12.435  14.760  10.396  0.0450 -0.2620 -0.0046
    4loPI    C2   50  12.669  15.080  10.338 -0.0417 -0.2284 -0.1778
    4loPI    C3   51  12.427  15.063  10.657 -0.1355 -0.0602 -0.2388
    4loPI   PO4   52  12.378  14.733  10.107 -0.0867  0.1722 -0.2329
    4loPI   GL1   53  12.534  14.922   9.835  0.2391  0.0086 -0.0231
    4loPI   GL2   54  12.743  14.731   9.778 -0.3494  0.1075  0.1231
    4loPI   C1A   55  12.346  15.298   9.619 -0.2517  0.1508 -0.1354
    4loPI   C2A   56  12.078  15.515   9.324 -0.1688 -0.1299 -0.3333
    4loPI   C3A   57  12.098  15.640   8.902 -0.3895  0.1686 -0.0754
    4loPI   C4A   58  12.251  15.610   8.386  0.0071  0.1143 -0.2309
    4loPI   C5A   59  12.135  15.349   8.025  0.2735  0.0288  0.0365
    4loPI   C6A   60  12.275  14.952   7.666 -0.1525  0.0995  0.0156
    4loPI   C1B   61  12.826  14.822   9.381 -0.0897 -0.3328  0.2324
    4loPI   C2B   62  12.880  14.742   8.925  0.1382 -0.0869  0.1748
    4loPI   C3B   63  12.843  14.653   8.411  0.0148 -0.1200  0.2619
    4loPI   C4B   64  12.833  14.808   7.883 -0.0170  0.1478 -0.0045
    5loPI    C1   65  15.270  17.591  10.374  0.0506 -0.0699 -0.0474
    5loPI    C2   66  15.391  17.599  10.756  0.3392 -0.0268 -0.1369
    5loPI    C3   67  15.278  17.937  10.574  0.2154 -0.0451 -0.0948
    5loPI   PO4   68  15.491  17.451  10.212  0.0017  0.0021  0.0458
    5loPI   GL1   69  15.466  17.364   9.793 -0.1910 -0.1254 -0.1989
    5loPI   GL2   70  15.092  17.616   9.703 -0.0520  0.3570  0.0709
    5loPI   C1A   71  15.500  17.053   9.639 -0.0886 -0.0436 -0.0774
    5loPI   C2A   72  15.646  17.059   9.190  0.1851 -0.0827  0.0911
    5loPI   C3A   73  15.682  17.077   8.820  0.0313 -0.1145  0.3259
    5loPI   C4A   74  15.528  16.992   8.423 -0.0280  0.0635  0.3495
    5loPI   C5A   75  15.687  17.143   8.036  0.6012  0.0227  0.0461
    5loPI   C6A   76  15.875  16.913   7.658  0.1449  0.3593  0.1621
    5loPI   C1B   77  14.804  17.558   9.313 -0.1920  0.0648 -0.0133
    5loPI   C2B   78  14.909  17.406   8.851 -0.1501 -0.1578 -0.0667
    5loPI   C3B   79  14.655  17.527   8.500 -0.3512  0.1170  0.2527
    5loPI   C4B   80  14.746  17.760   8.090 -0.0454 -0.3523 -0.0091
    6loPI    C1   81  11.737   9.657  10.219 -0.0433  0.4167 -0.0630
    6loPI    C2   82  11.504   9.417  10.439  0.1627  0.1703 -0.1097
    6loPI    C3   83  11.567   9.794  10.555  0.2351  0.0566  0.2344
    6loPI   PO4   84  11.602   9.647  10.001  0.3920 -0.1284  0.0367
    6loPI   GL1   85  11.637   9.516   9.652  0.0755 -0.0412 -0.3988
    6loPI   GL2   86  11.268   9.451   9.541 -0.1154  0.0761 -0.0629
    6loPI   C1A   87  11.742   9.511   9.227 -0.0391  0.0937  0.0757
    6loPI   C2A   88  11.749   9.569   8.728 -0.1105  0.0739  0.1937
    6loPI   C3A   89  11.786   9.457   8.200 -0.3085  0.0036  0.1051
    6loPI   C4A   90  11.548   9.513   7.859 -0.0670  0.3233 -0.0307
    6loPI   C5A   91  11.681   9.646   7.412  0.0092 -0.0936  0.2457
    6loPI   C6A   92  11.731   9.516   7.098  0.0207  0.0532 -0.0523
    6loPI   C1B   93  11.249   9.638   9.071 -0.1245 -0.2157 -0.1698
    6loPI   C2B   94  11.312   9.618   8.528  0.2009 -0.2580  0.0856
    6loPI   C3B   95  11.365   9.852   8.298  0.0807  0.1315 -0.0920
    6loPI   C4B   96  11.127  10.070   8.040  0.0756  0.0247  0.0145
    7loPI    C1   97   0.228   2.751  10.282 -0.1469  0.2227 -0.0832
    7loPI    C2   98   0.196   2.499  10.591  0.0524  0.1556 -0.1156
    7loPI    C3   99  -0.097   2.760  10.514 -0.0547  0.0865  0.0533
    7loPI   PO4  100   0.246   2.586  10.085 -0.0448 -0.2739  0.1476
    7loPI   GL1  101   0.252   2.733   9.784  0.0748 -0.0301  0.3234
    7loPI   GL2  102  -0.007   2.678   9.631  0.0698 -0.1693  0.1579
    7loPI   C1A  103   0.653   2.696   9.471  0.2305 -0.4283  0.1420
    7loPI   C2A  104   0.823   2.617   9.058  0.1188  0.0217  0.0679
    7loPI   C3A  105   0.859   2.527   8.600 -0.0280 -0.2451 -0.0847
    7loPI   C4A  106   0.871   2.526   8.225  0.0312  0.1557 -0.0348
    7loPI   C5A  107   0.808   2.719   7.813  0.1508 -0.0478  0.4287
    7loPI   C6A  108   0.584   2.666   7.485 -0.1283 -0.3416  0.2024
    7loPI   C1B  109   0.016   2.817   9.153 -0.0855 -0.0660  0.1289
    7loPI   C2B  110  -0.215   2.865   8.887 -0.0270 -0.0637  0.0835
    7loPI   C3B  111  -0.394   2.740   8.565 -0.1575 -0.0329 -0.1373
    7loPI   C4B  112  -0.593   2.489   8.325 -0.2556 -0.2220  0.0369
    8loPI    C1  113   2.798   4.836  10.502 -0.1930  0.1433  0.0662
    8loPI    C2  114   2.569   4.521  10.594  0.2418 -0.2159 -0.0445
    8loPI    C3  115   2.895   4.601  10.811  0.2796  0.0038 -0.1792
    8loPI   PO4  116   2.781   4.856  10.279  0.1188 -0.1310 -0.0009
    8loPI   GL1  117   2.933   4.689   9.866 -0.1229 -0.2954  0.1199
    8loPI   GL2  118   2.660   4.634   9.606 -0.2106 -0.2082 -0.0074
    8loPI   C1A  119   3.045   4.883   9.481 -0.3362  0.2441 -0.2229
    8loPI   C2A  120   3.023   4.836   9.048  0.1774  0.3332  0.0209
    8loPI   C3A  121   2.947   4.683   8.570  0.1047  0.4517  0.0971
    8loPI   C4A  122   2.864   4.565   8.169 -0.0415  0.2270  0.0542
    8loPI   C5A  123   2.942   4.335   7.767  0.2069 -0.0904 -0.0191
    8loPI   C6A  124   2.808   4.365   7.403 -0.2045 -0.2357  0.2138
    8loPI   C1B  125   2.572   4.378   9.235 -0.2261  0.2544 -0.1056
    8loPI   C2B  126   2.539   3.957   8.911 -0.1725  0.2827 -0.0209
    8loPI   C3B  127   2.617   3.838   8.515 -0.0204 -0.1241 -0.0232
    8loPI   C4B  128   2.610   4.064   8.176  0.0999 -0.3679  0.1647
    9loPI    C1  129   4.980  14.389  10.456  0.2716 -0.0905 -0.1699
    9loPI    C2  130   5.040  14.455  10.846 -0.2348  0.0516 -0.1094
    9loPI    C3  131   5.201  14.700  10.574  0.1232 -0.0503  0.0053
    9loPI   PO4  132   5.075  14.178  10.387 -0.1043 -0.0452 -0.3336
    9loPI   GL1  133   5.364  14.146   9.998 -0.1788 -0.0245  0.1733
    9loPI   GL2  134   5.636  14.044   9.739 -0.0437  0.1041  0.1863
    9loPI   C1A  135   5.172  14.394   9.592  0.1374 -0.0047  0.1459
    9loPI   C2A  136   4.901  14.401   9.210 -0.0564  0.0458 -0.0648
    9loPI   C3A  137   4.965  14.364   8.789 -0.0804  0.0531 -0.0967
    9loPI   C4A  138   4.959  14.264   8.357  0.0561  0.3729  0.2284
    9loPI   C5A  139   4.948  14.356   7.922  0.1782  0.1991 -0.0879
    9loPI   C6A  140   4.618  14.125   7.669 -0.4444  0.0320 -0.3261
    9loPI   C1B  141   5.574  14.265   9.292  0.0426 -0.1774  0.1318
    9loPI   C2B  142   5.585  14.239   8.819 -0.0394  0.1233  0.0065
    9loPI   C3B  143   5.402  14.479   8.488  0.3132  0.0379  0.0212
    9loPI   C4B  144   5.043  14.745   8.535 -0.0942 -0.1069 -0.3020
   10loPI    C1  145  15.828   0.629  10.512  0.1761 -0.0542  0.0484
   10loPI    C2  146  15.622   0.825  10.794  0.1060 -0.0125 -0.0314
   10loPI    C3  147  15.795   0.475  10.879 -0.1864 -0.1584 -0.0231
   10loPI   PO4  148  15.643   0.671  10.310 -0.0207 -0.0897 -0.0693
   10loPI   GL1  149  15.784   0.917   9.930 -0.0118  0.2399 -0.1169
   10loPI   GL2  150  15.714   0.633   9.780 -0.3041 -0.2777 -0.3157
   10loPI   C1A  151  15.838   1.198   9.569 -0.0446  0.3987  0.0796
   10loPI   C2A  152  15.865   1.119   9.079 -0.0322 -0.0489  0.2500
   10loPI   C3A  153  15.692   1.117   8.610  0.0855  0.0740  0.2747
   10loPI   C4A  154  15.798   0.906   8.246  0.0256  0.1056  0.1553
   10loPI   C5A  155  15.704   0.901   7.850  0.1452 -0.0641  0.0354
   10loPI   C6A  156  15.320   1.234   7.679 -0.2860  0.0583 -0.1936
   10loPI   C1B  157  15.784   0.746   9.381 -0.4602  0.0073 -0.1286
   10loPI   C2B  158  15.784   0.602   9.055  0.0582 -0.1212  0.2110
   10loPI   C3B  159  15.761   0.609   8.731 -0.2317 -0.0591 -0.0120
   10loPI   C4B  160  15.776   0.399   8.406  0.3057 -0.0918  0.0331
   11loPI    C1  161  17.788   1.115  10.299  0.1170  0.0573  0.0289
   11loPI    C2  162  18.035   1.416  10.390 -0.0458  0.1466  0.1822
   11loPI    C3  163  17.733   1.325  10.635 -0.1821  0.0567 -0.0172
   11loPI   PO4  164  17.942   0.922  10.186  0.5604 -0.1020 -0.1056
   11loPI   GL1  165  17.889   0.737   9.791  0.0213 -0.0785  0.2129
   11loPI   GL2  166  18.134   0.781   9.775  0.2583  0.0979  0.1306
   11loPI   C1A  167  17.770   0.747   9.342 -0.0273 -0.0975  0.3651
   11loPI   C2A  168  17.974   0.676   8.969  0.1186 -0.3460  0.0072
   11loPI   C3A  169  17.879   0.582   8.641 -0.2554 -0.1843 -0.4508
   11loPI   C4A  170  17.724   0.437   8.233 -0.0797  0.3141  0.2094
   11loPI   C5A  171  17.335   0.348   8.034  0.0253  0.3056 -0.0145
   11loPI   C6A  172  16.919   0.232   7.918 -0.0223 -0.1171 -0.0874
   11loPI   C1B  173  18.180   1.018   9.402 -0.0667  0.0713  0.2694
   11loPI   C2B  174  18.026   1.169   9.064  0.0861  0.2753 -0.1263
   11loPI   C3B  175  18.198   0.985   8.643  0.3254 -0.2558  0.0181
   11loPI   C4B  176  18.461   0.892   8.305 -0.0981  0.4962  0.0418
   12loPI    C1  177   2.748   2.124  10.239  0.1812  0.2143  0.0735
   12loPI    C2  178   2.545   1.946  10.534  0.3165 -0.1448 -0.0446
   12loPI    C3  179   2.737   2.290  10.603 -0.0031 -0.0039  0.1702
   12loPI   PO4  180   2.694   1.831  10.022 -0.2437  0.3076 -0.0138
   12loPI   GL1  181   2.763   1.583   9.680 -0.0426  0.0749  0.4116
   12loPI   GL2  182   2.430   1.485   9.751 -0.1931  0.0522 -0.0702
   12loPI   C1A  183   2.895   1.708   9.314 -0.0158  0.0226  0.0542
   12loPI   C2A  184   2.875   1.688   8.773 -0.1523 -0.3128 -0.1369
   12loPI   C3A  185   2.928   1.937   8.342  0.0033 -0.0315 -0.1331
   12loPI   C4A  186   2.885   2.271   8.163 -0.1692  0.0841  0.3681
   12loPI   C5A  187   2.709   2.653   8.093 -0.2304 -0.1239 -0.0526
   12loPI   C6A  188   2.943   2.957   7.937  0.1857  0.0900 -0.0055
   12loPI   C1B  189   2.166   1.646   9.320  0.0296 -0.0458  0.1315
   12loPI   C2B  190   1.999   1.741   8.878 -0.0536 -0.1997 -0.1856
   12loPI   C3B  191   1.911   2.006   8.586 -0.0304  0.1540 -0.0135
   12loPI   C4B  192   1.741   2.319   8.197 -0.0168  0.1527  0.1069
   13loPI    C1  193   2.044   9.800  10.388 -0.0208 -0.0522 -0.1595
   13loPI    C2  194   2.294   9.971  10.127 -0.0419  0.2549  0.0179
   13loPI    C3  195   2.357  10.011  10.520 -0.0489 -0.1476  0.0636
   13loPI   PO4  196   1.954   9.535  10.343  0.0361 -0.1232 -0.2287
   13loPI   GL1  197   1.956   9.486   9.933 -0.1167 -0.0821  0.0324
   13loPI   GL2  198   1.685   9.158   9.859  0.0683 -0.1915 -0.2300
   13loPI   C1A  199   2.331   9.627   9.664  0.3836 -0.0327 -0.0408
   13loPI   C2A  200   2.433   9.844   9.265  0.1096  0.1660  0.1534
   13loPI   C3A  201   2.338   9.931   8.926  0.1026  0.1517  0.3331
   13loPI   C4A  202   2.292   9.994   8.470  0.0139 -0.0324  0.0139
   13loPI   C5A  203   1.971   9.926   8.171  0.5331  0.1235  0.1038
   13loPI   C6A  204   1.522   9.890   8.028 -0.0399  0.1126  0.0363
   13loPI   C1B  205   1.685   9.362   9.385 -0.3553  0.0429  0.1048
   13loPI   C2B  206   1.677   9.516   8.890 -0.2426 -0.1534  0.1053
   13loPI   C3B  207   1.630   9.581   8.539  0.1045 -0.0360 -0.1098
   13loPI   C4B  208   1.749   9.441   8.138  0.1863 -0.2679  0.0644
   14loPI    C1  209  10.847   2.427  10.688 -0.2366  0.1755 -0.0015
   14loPI    C2  210  10.714   2.632  11.005  0.0921  0.0872  0.1982
   14loPI    C3  211  10.826   2.251  11.047 -0.1189 -0.0091 -0.0843
   14loPI   PO4  212  11.047   2.534  10.587  0.1476  0.0142 -0.2684
   14loPI   GL1  213  11.181   2.573  10.187  0.0009  0.2560 -0.0492
   14loPI   GL2  214  10.988   2.646   9.812  0.2379 -0.0959  0.3228
   14loPI   C1A  215  11.373   2.391   9.856  0.1982 -0.0422  0.0524
   14loPI   C2A  216  11.296   2.199   9.434  0.1330 -0.1474  0.1557
   14loPI   C3A  217  11.435   2.147   8.953  0.0058  0.1139 -0.1600
   14loPI   C4A  218  11.461   2.231   8.611  0.1287  0.0476 -0.0410
   14loPI   C5A  219  11.493   2.170   8.198  0.1875 -0.0483  0.3296
   14loPI   C6A  220  11.599   2.499   7.840  0.0637  0.2614 -0.1830
   14loPI   C1B  221  10.976   3.076   9.523 -0.0190 -0.2348 -0.0844
   14loPI   C2B  222  11.010   3.096   9.078  0.0734 -0.1003 -0.1241
   14loPI   C3B  223  10.974   2.988   8.693  0.0011  0.0133  0.1959
   14loPI   C4B  224  10.986   2.917   8.238 -0.1461 -0.2030  0.3775
   15loPI    C1  225  14.188  12.740  10.523 -0.0937 -0.1553  0.3643
   15loPI    C2  226  14.456  13.017  10.629  0.0397 -0.1701  0.0763
   15loPI    C3  227  14.515  12.633  10.725  0.1341 -0.1765 -0.0059
   15loPI   PO4  228  14.130  12.837  10.260 -0.0355  0.1349 -0.2696
   15loPI   GL1  229  14.022  12.843   9.870 -0.1450  0.1951  0.2633
   15loPI   GL2  230  14.273  12.482   9.890  0.0016  0.1307 -0.2313
   15loPI   C1A  231  13.914  13.022   9.566 -0.0496  0.1713 -0.0357
   15loPI   C2A  232  14.199  13.226   9.294 -0.0580  0.0783 -0.1118
   15loPI   C3A  233  14.259  13.425   8.897  0.3749 -0.0572  0.1065
   15loPI   C4A  234  14.369  13.625   8.527  0.0968  0.0963  0.1215
   15loPI   C5A  235  14.431  13.676   8.090  0.1683 -0.1846  0.2115
   15loPI   C6A  236  14.311  13.499   7.677 -0.0175 -0.1640  0.0897
   15loPI   C1B  237  14.065  12.521   9.571  0.0545  0.2800 -0.0326
   15loPI   C2B  238  14.199  12.708   9.241 -0.2376  0.1561 -0.1475
   15loPI   C3B  239  14.218  12.745   8.865  0.1373 -0.2703 -0.1843
   15loPI   C4B  240  14.046  13.049   8.533 -0.2480 -0.1202  0.0636
   16loPI    C1  241   7.841  18.613  10.741 -0.0631  0.0890  0.0898
   16loPI    C2  242   8.176  18.420  10.844 -0.0564  0.0282 -0.0452
   16loPI    C3  243   8.084  18.766  11.020 -0.0012 -0.0320  0.1032
   16loPI   PO4  244   7.854  18.610  10.426 -0.1103 -0.2321  0.0817
   16loPI   GL1  245   7.490  18.752  10.207  0.4206 -0.2252  0.1444
   16loPI   GL2  246   7.193  18.921  10.234  0.1166  0.1539 -0.0763
   16loPI   C1A  247   7.829  18.646   9.803 -0.0335 -0.2117 -0.0152
   16loPI   C2A  248   7.794  18.924   9.421 -0.0428  0.1072  0.2433
   16loPI   C3A  249   7.660  18.918   9.027  0.0230 -0.4397 -0.0478
   16loPI   C4A  250   7.366  18.802   8.682  0.3804 -0.2232  0.2101
   16loPI   C5A  251   7.122  18.605   8.345 -0.1254  0.2152  0.3101
   16loPI   C6A  252   6.711  18.580   8.345 -0.1880  0.2521 -0.0179
   16loPI   C1B  253   7.026  19.003   9.899 -0.0232  0.1254 -0.2039
   16loPI   C2B  254   6.800  18.834   9.476 -0.1262 -0.1134  0.0212
   16loPI   C3B  255   6.681  18.759   9.054  0.0512 -0.0579  0.0831
   16loPI   C4B  256   6.433  18.862   8.698  0.0010  0.0460  0.1705
   17loPI    C1  257   0.961   9.733  10.527 -0.1154 -0.2384 -0.0111
   17loPI    C2  258   0.816   9.444  10.291  0.0020 -0.3947  0.1065
   17loPI    C3  259   0.604   9.570  10.606 -0.1708 -0.1612 -0.0996
   17loPI   PO4  260   1.261   9.663  10.418 -0.2804 -0.0627  0.3445
   17loPI   GL1  261   1.449   9.610  10.108  0.1576 -0.3887 -0.5254
   17loPI   GL2  262   1.104   9.767   9.956 -0.2685 -0.2035 -0.0323
   17loPI   C1A  263   1.517   9.656   9.695 -0.3017  0.0030 -0.2109
   17loPI   C2A  264   1.446   9.921   9.334  0.2860 -0.0339 -0.0160
   17loPI   C3A  265   1.287  10.199   8.933  0.2427  0.2489  0.2717
   17loPI   C4A  266   1.109  10.486   8.761 -0.1324 -0.0326  0.3819
   17loPI   C5A  267   0.820  10.895   8.581 -0.1126 -0.3546 -0.1790
   17loPI   C6A  268   0.549  10.903   8.253 -0.0799  0.2898 -0.1504
   17loPI   C1B  269   0.981   9.937   9.618 -0.2788  0.3370  0.3253
   17loPI   C2B  270   0.899  10.034   9.202  0.1560 -0.2293 -0.2842
   17loPI   C3B  271   0.708  10.392   9.031  0.1319 -0.0525 -0.2558
   17loPI   C4B  272   0.697  10.757   9.072 -0.1535 -0.2535  0.2099
   18loPI    C1  273  17.796   5.995   9.829 -0.0387  0.3921  0.0168
   18loPI    C2  274  17.848   5.998  10.225 -0.1214 -0.1378  0.0386
   18loPI    C3  275  17.508   5.858  10.069 -0.0850  0.0572 -0.2229
   18loPI   PO4  276  18.042   5.907   9.781 -0.1600 -0.4850  0.2823
   18loPI   GL1  277  18.122   5.695   9.418 -0.1002 -0.0459 -0.0014
   18loPI   GL2  278  18.253   5.457   9.631 -0.1142 -0.0549  0.1821
   18loPI   C1A  279  18.249   5.723   8.907  0.0427 -0.1558 -0.0761
   18loPI   C2A  280  18.299   5.973   8.678 -0.3243 -0.1144  0.4069
   18loPI   C3A  281  18.047   6.061   8.467  0.0463  0.1709  0.0444
   18loPI   C4A  282  17.903   6.181   8.053  0.0211 -0.0032 -0.1535
   18loPI   C5A  283  17.666   6.136   7.626  0.1364 -0.0902  0.4335
   18loPI   C6A  284  17.247   6.133   7.612  0.1255 -0.0365 -0.1305
   18loPI   C1B  285  18.045   5.180   9.433  0.0094  0.1319 -0.1878
   18loPI   C2B  286  17.975   4.910   9.096 -0.1235 -0.2153  0.1077
   18loPI   C3B  287  18.028   4.883   8.704  0.0896 -0.1417 -0.2291
   18loPI   C4B  288  17.868   5.026   8.249 -0.0893 -0.0128  0.1739
   19loPI    C1  289   6.930  16.315  10.711 -0.0894  0.1665  0.0648
   19loPI    C2  290   7.195  16.252  11.004  0.0615 -0.1022 -0.1256
   19loPI    C3  291   6.849  16.435  11.084  0.1495 -0.0702  0.1963
   19loPI   PO4  292   7.077  16.367  10.501 -0.1495  0.2317 -0.1178
   19loPI   GL1  293   7.264  16.393  10.159  0.1017 -0.2729  0.1023
   19loPI   GL2  294   7.031  16.643  10.028 -0.0610 -0.1064  0.0553
   19loPI   C1A  295   7.138  16.214   9.785  0.4523 -0.0957 -0.0500
   19loPI   C2A  296   7.267  16.106   9.365  0.1676  0.0526 -0.1649
   19loPI   C3A  297   7.201  16.196   8.932  0.4275 -0.2241  0.0806
   19loPI   C4A  298   7.202  16.219   8.540 -0.1677  0.3425  0.2504
   19loPI   C5A  299   7.266  16.415   8.127 -0.2846 -0.0903 -0.1221
   19loPI   C6A  300   7.001  16.726   7.921  0.5041 -0.1618  0.1825
   19loPI   C1B  301   7.114  16.672   9.553  0.1152  0.0018  0.2907
   19loPI   C2B  302   7.167  16.747   9.153 -0.2444  0.1711  0.1980
   19loPI   C3B  303   7.078  16.680   8.725 -0.0369  0.1657 -0.1859
   19loPI   C4B  304   6.829  16.486   8.385  0.0318 -0.0601 -0.1565
   20loPI    C1  305   9.649  12.173   9.977 -0.0528  0.1463  0.1629
   20loPI    C2  306   9.407  12.143  10.295 -0.2994 -0.0766 -0.0406
   20loPI    C3  307   9.277  12.320   9.960 -0.0009  0.2629  0.0165
   20loPI   PO4  308   9.861  12.031  10.072  0.0485  0.0013 -0.1463
   20loPI   GL1  309  10.211  11.922   9.849 -0.3266 -0.0664 -0.2508
   20loPI   GL2  310   9.993  11.821   9.600 -0.1971  0.3751  0.0619
   20loPI   C1A  311  10.424  11.980   9.389 -0.2539  0.0521 -0.1643
   20loPI   C2A  312  10.476  11.913   8.972 -0.3165  0.3451  0.1106
   20loPI   C3A  313  10.634  12.013   8.537 -0.0502  0.0030 -0.0686
   20loPI   C4A  314  10.850  12.163   8.191  0.1436 -0.1169  0.3224
   20loPI   C5A  315  11.001  12.407   7.772 -0.0734  0.0503 -0.2469
   20loPI   C6A  316  11.292  12.544   7.478  0.1690  0.3381  0.0682
   20loPI   C1B  317  10.108  11.611   9.228 -0.2559 -0.0971 -0.0079
   20loPI   C2B  318  10.144  11.654   8.721  0.2961 -0.0938  0.3380
   20loPI   C3B  319  10.305  11.699   8.266  0.0946  0.0051 -0.1439
   20loPI   C4B  320  10.663  11.452   7.996 -0.1992  0.0273  0.0666
   21loPI    C1  321   5.303  13.086  10.272  0.1346  0.0272 -0.0610
   21loPI    C2  322   5.400  13.422  10.466 -0.1578  0.1558 -0.1308
   21loPI    C3  323   5.430  13.069  10.651 -0.0473  0.2384  0.0121
   21loPI   PO4  324   5.170  13.193  10.115  0.2056  0.1859 -0.3796
   21loPI   GL1  325   4.946  13.089   9.757 -0.0497 -0.0421  0.3564
   21loPI   GL2  326   5.002  12.719   9.680  0.0464  0.1879  0.0798
   21loPI   C1A  327   5.086  13.262   9.379  0.0440  0.0533 -0.1653
   21loPI   C2A  328   5.006  13.294   9.002  0.5313  0.1178 -0.1057
   21loPI   C3A  329   4.937  13.408   8.558  0.0555 -0.0139 -0.0358
   21loPI   C4A  330   5.036  13.421   8.161 -0.1732  0.0890  0.3078
   21loPI   C5A  331   5.321  13.389   7.831 -0.0655 -0.1418  0.1208
   21loPI   C6A  332   5.424  13.544   7.364 -0.1055 -0.0579 -0.1407
   21loPI   C1B  333   4.966  12.774   9.244  0.0744  0.1903 -0.1050
   21loPI   C2B  334   4.859  12.827   8.877  0.3823  0.1319  0.3167
   21loPI   C3B  335   4.704  13.007   8.499 -0.3294 -0.2877  0.1040
   21loPI   C4B  336   4.664  12.925   7.971 -0.0731  0.2126 -0.1969
   22loPI    C1  337  11.946   7.016  10.636 -0.0212  0.0600  0.0831
   22loPI    C2  338  12.207   7.318  10.649  0.0255  0.0176  0.1329
   22loPI    C3  339  11.817   7.388  10.706  0.0044  0.1061 -0.1094
   22loPI   PO4  340  11.931   6.913  10.337 -0.2338  0.1697 -0.1951
   22loPI   GL1  341  12.192   6.813   9.931  0.4854  0.2428 -0.0144
   22loPI   GL2  342  11.900   6.931   9.813  0.0810 -0.0970  0.0957
   22loPI   C1A  343  11.998   6.533   9.545 -0.2629  0.0706  0.3136
   22loPI   C2A  344  11.999   6.587   9.090  0.1043 -0.1270 -0.0463
   22loPI   C3A  345  11.949   6.685   8.698 -0.1435  0.2520 -0.1752
   22loPI   C4A  346  11.710   6.501   8.449 -0.2385  0.2854 -0.1138
   22loPI   C5A  347  11.680   6.269   8.098 -0.2179 -0.1153 -0.0042
   22loPI   C6A  348  11.493   5.808   8.213  0.2022 -0.0090  0.2376
   22loPI   C1B  349  11.840   6.953   9.398  0.0124 -0.0947  0.1855
   22loPI   C2B  350  11.743   7.062   8.931  0.0286  0.0777 -0.1081
   22loPI   C3B  351  11.661   7.038   8.467 -0.4041 -0.1053  0.2031
   22loPI   C4B  352  11.535   7.184   8.030 -0.4195  0.0529 -0.3107
   23loPI    C1  353   6.936  14.535  10.680  0.2050  0.0362  0.0252
   23loPI    C2  354   7.235  14.383  10.898  0.2810 -0.0347 -0.1268
   23loPI    C3  355   6.881  14.457  11.069  0.3969  0.0890  0.0641
   23loPI   PO4  356   6.997  14.744  10.579  0.0986 -0.0238 -0.2929
   23loPI   GL1  357   7.072  14.792  10.118  0.1443  0.1153  0.0034
   23loPI   GL2  358   7.311  14.608   9.902  0.1523 -0.1148  0.0193
   23loPI   C1A  359   6.828  14.532   9.744  0.1516 -0.3478 -0.1835
   23loPI   C2A  360   6.975  14.397   9.365  0.0055  0.0286 -0.0138
   23loPI   C3A  361   7.326  14.271   9.027  0.1313  0.1097 -0.1060
   23loPI   C4A  362   7.243  14.145   8.608  0.1105  0.1702 -0.1843
   23loPI   C5A  363   7.240  13.946   8.284 -0.1341 -0.2784 -0.2281
   23loPI   C6A  364   7.561  13.781   7.958  0.2395  0.2733  0.0047
   23loPI   C1B  365   7.102  14.855   9.494 -0.4568 -0.0571 -0.1166
   23loPI   C2B  366   6.817  14.986   9.112  0.5177 -0.1396 -0.0318
   23loPI   C3B  367   6.798  14.943   8.658  0.1888  0.2139  0.0241
   23loPI   C4B  368   6.745  14.786   8.242 -0.1963 -0.0651  0.1172
   24loPI    C1  369   0.474  16.727  10.654 -0.0920 -0.1352  0.1927
   24loPI    C2  370   0.132  16.718  10.447 -0.0269  0.0308  0.0763
   24loPI    C3  371   0.228  17.042  10.661  0.0924  0.0139  0.0489
   24loPI   PO4  372   0.630  16.622  10.519  0.0751  0.3084 -0.2114
   24loPI   GL1  373   0.728  16.517  10.138  0.0433  0.1351  0.0344
   24loPI   GL2  374   0.885  16.821  10.053 -0.0353  0.0321  0.0609
   24loPI   C1A  375   0.719  16.084   9.767  0.0265  0.0723  0.0587
   24loPI   C2A  376   0.413  15.824   9.464 -0.0677  0.1505  0.0428
   24loPI   C3A  377   0.151  15.903   9.099 -0.2132 -0.5071  0.0133
   24loPI   C4A  378  -0.010  15.701   8.716  0.0006 -0.1171  0.0054
   24loPI   C5A  379   0.043  15.625   8.315  0.2989  0.0156  0.1237
   24loPI   C6A  380  -0.059  15.828   7.877  0.1854 -0.3047 -0.1775
   24loPI   C1B  381   1.083  16.605   9.781  0.2701  0.0120  0.2219
   24loPI   C2B  382   1.131  16.366   9.410  0.0962 -0.0113 -0.0050
   24loPI   C3B  383   0.969  16.035   9.175 -0.0856  0.1374 -0.1761
   24loPI   C4B  384   0.646  15.748   8.982  0.1095  0.1656 -0.0062
   25loPI    C1  385   4.681  13.611  10.713 -0.0682  0.0331 -0.3508
   25loPI    C2  386   4.330  13.701  10.882 -0.1641 -0.1832 -0.4315
   25loPI    C3  387   4.650  13.631  11.111 -0.2049 -0.1155 -0.3533
   25loPI   PO4  388   4.640  13.590  10.413  0.2866 -0.0673 -0.2702
   25loPI   GL1  389   4.601  13.772  10.048 -0.2693  0.0921  0.3373
   25loPI   GL2  390   4.401  14.012   9.991  0.1988 -0.0357 -0.0438
   25loPI   C1A  391   4.725  13.572   9.632 -0.2796 -0.0916 -0.0449
   25loPI   C2A  392   4.581  13.471   9.277 -0.0136  0.4224 -0.0612
   25loPI   C3A  393   4.527  13.510   8.803  0.0412  0.0431  0.0839
   25loPI   C4A  394   4.472  13.409   8.363 -0.0207 -0.1907 -0.1932
   25loPI   C5A  395   4.548  13.396   7.968 -0.0882 -0.1132  0.2333
   25loPI   C6A  396   4.910  13.496   7.568 -0.4006 -0.0108 -0.1267
   25loPI   C1B  397   4.288  14.274   9.617 -0.1642  0.0107  0.0164
   25loPI   C2B  398   4.416  14.639   9.356  0.0070 -0.0982 -0.1926
   25loPI   C3B  399   4.548  14.662   8.947  0.1518  0.0855  0.2774
   25loPI   C4B  400   4.536  14.540   8.590 -0.0734  0.1071 -0.0070
   26loPI    C1  401   0.224   3.236  10.138  0.0650  0.1381 -0.0672
   26loPI    C2  402  -0.106   3.452  10.070 -0.1199 -0.1720 -0.1810
   26loPI    C3  403  -0.069   3.245  10.410  0.0048 -0.0575 -0.1237
   26loPI   PO4  404   0.330   3.215   9.953 -0.1985  0.3002 -0.1301
   26loPI   GL1  405   0.716   3.155   9.621  0.0358  0.2711  0.1413
   26loPI   GL2  406   0.652   3.439   9.574 -0.3457  0.0061  0.2282
   26loPI   C1A  407   1.015   3.101   9.378 -0.0264 -0.2243 -0.2178
   26loPI   C2A  408   1.370   3.161   9.283 -0.3821  0.0544  0.3112
   26loPI   C3A  409   1.746   3.349   9.010 -0.0304 -0.0023 -0.1308
   26loPI   C4A  410   1.864   3.406   8.584 -0.2752  0.1525  0.2038
   26loPI   C5A  411   2.011   3.228   8.170  0.4575 -0.2491 -0.2694
   26loPI   C6A  412   2.112   3.474   7.698  0.3775  0.1798 -0.1215
   26loPI   C1B  413   0.743   3.521   9.204  0.1590 -0.0522 -0.0237
   26loPI   C2B  414   0.807   3.511   8.696  0.1441 -0.0968 -0.1346
   26loPI   C3B  415   0.897   3.521   8.237 -0.1149  0.0780 -0.2193
   26loPI   C4B  416   0.767   3.193   7.937  0.1955 -0.2361 -0.2935
   27loPI    C1  417   4.872  15.727  10.502 -0.4434  0.1270 -0.0408
   27loPI    C2  418   4.578  15.652  10.763 -0.2160 -0.0424  0.1721
   27loPI    C3  419   4.898  15.863  10.878 -0.1114 -0.1222  0.0314
   27loPI   PO4  420   4.744  15.884  10.280  0.0871  0.1205  0.2284
   27loPI   GL1  421   4.941  15.971   9.829 -0.0968  0.3143  0.1002
   27loPI   GL2  422   5.236  16.189   9.687  0.0435 -0.0405 -0.3674
   27loPI   C1A  423   5.002  15.852   9.382  0.2537  0.0757 -0.2130
   27loPI   C2A  424   4.949  15.947   8.960  0.1886  0.2826  0.2186
   27loPI   C3A  425   4.804  16.181   8.653 -0.0245  0.2227 -0.2307
   27loPI   C4A  426   4.939  16.389   8.331 -0.2559 -0.0253 -0.1026
   27loPI   C5A  427   4.682  16.751   8.237  0.0501  0.1899  0.3419
   27loPI   C6A  428   4.673  17.173   8.043  0.0799 -0.2418 -0.0820
   27loPI   C1B  429   5.223  16.247   9.194  0.1135 -0.1815 -0.2790
   27loPI   C2B  430   5.356  16.230   8.776  0.3177  0.0954  0.0266
   27loPI   C3B  431   5.203  15.948   8.426 -0.3135 -0.1768 -0.3176
   27loPI   C4B  432   5.124  16.068   8.005  0.1665  0.4051 -0.0001
   28loPI    C1  433  16.772  13.304  11.029  0.0640  0.1786  0.0166
   28loPI    C2  434  17.165  13.346  10.963  0.1624 -0.1219  0.3766
   28loPI    C3  435  16.981  13.577  11.233  0.0521  0.1359  0.0863
   28loPI   PO4  436  16.673  13.354  10.761  0.0294  0.0524 -0.1801
   28loPI   GL1  437  16.346  13.264  10.435 -0.0437  0.2772 -0.2858
   28loPI   GL2  438  16.674  13.315  10.236 -0.1911  0.1346 -0.0753
   28loPI   C1A  439  16.198  13.202  10.099 -0.0617  0.1497 -0.0317
   28loPI   C2A  440  16.051  13.054   9.685 -0.1431 -0.1431 -0.2100
   28loPI   C3A  441  15.910  12.856   9.332 -0.0173 -0.1480  0.1838
   28loPI   C4A  442  16.045  12.836   8.892  0.0300 -0.0309  0.3078
   28loPI   C5A  443  16.296  12.909   8.435 -0.4704  0.2437 -0.1337
   28loPI   C6A  444  16.513  12.667   8.115 -0.1170  0.0532  0.1309
   28loPI   C1B  445  16.701  13.453   9.829  0.1625  0.2961 -0.2670
   28loPI   C2B  446  16.895  13.162   9.428 -0.0952  0.3842 -0.0773
   28loPI   C3B  447  17.231  12.997   9.455 -0.2391 -0.0287  0.0377
   28loPI   C4B  448  17.418  12.694   9.774  0.1654  0.1699  0.2983
   29loPI    C1  449  18.228   4.529   9.978  0.1375 -0.0510  0.0096
   29loPI    C2  450  18.312   4.660  10.347 -0.0353  0.1289 -0.0130
   29loPI    C3  451  17.940   4.693  10.202 -0.0103 -0.1070 -0.1373
   29loPI   PO4  452  18.423   4.587   9.880  0.1648 -0.0484 -0.2447
   29loPI   GL1  453  18.711   4.601   9.535  0.1163  0.1076  0.4087
   29loPI   GL2  454  18.429   4.838   9.458  0.2713 -0.2213  0.1987
   29loPI   C1A  455  18.735   4.424   9.220  0.3571  0.1008  0.0511
   29loPI   C2A  456  18.739   4.217   8.793 -0.0954 -0.2980 -0.0032
   29loPI   C3A  457  18.891   4.283   8.373 -0.3401 -0.0511  0.2357
   29loPI   C4A  458  19.304   4.464   8.137 -0.1478 -0.0009 -0.2701
   29loPI   C5A  459  19.603   4.681   7.816  0.2051 -0.1981 -0.1074
   29loPI   C6A  460  19.863   4.734   7.499 -0.0233 -0.1432  0.1667
   29loPI   C1B  461  18.286   4.551   9.212 -0.0055 -0.1835 -0.0090
   29loPI   C2B  462  18.150   4.393   8.796  0.2131  0.2651  0.0320
   29loPI   C3B  463  18.387   4.155   8.478 -0.0812  0.0045  0.1293
   29loPI   C4B  464  18.193   4.046   8.077  0.3290 -0.1726  0.1577
   30loPI    C1  465   0.649  10.630  10.872  0.0351  0.0613 -0.0423
   30loPI    C2  466   1.026  10.499  10.892  0.0068 -0.0381 -0.1460
   30loPI    C3  467   0.919  10.832  11.087  0.0206 -0.3037  0.3322
   30loPI   PO4  468   0.577  10.471  10.716 -0.1753 -0.0121  0.1927
   30loPI   GL1  469   0.640  10.288  10.308  0.1198  0.0127  0.0943
   30loPI   GL2  470   0.665   9.958  10.140 -0.3279  0.0817 -0.0103
   30loPI   C1A  471   0.562  10.630   9.946  0.0006  0.0229 -0.0562
   30loPI   C2A  472   0.552  10.956   9.663 -0.0327 -0.0649 -0.3302
   30loPI   C3A  473   0.359  11.116   9.280  0.1019  0.0885 -0.0270
   30loPI   C4A  474   0.375  11.057   8.773 -0.2132  0.0488 -0.0877
   30loPI   C5A  475   0.099  11.084   8.426  0.0781  0.1007  0.0800
   30loPI   C6A  476  -0.031  11.410   8.058 -0.2817 -0.1080  0.1793
   30loPI   C1B  477   0.530  10.083   9.689  0.0242  0.0657  0.2685
   30loPI   C2B  478   0.325  10.076   9.219  0.0782 -0.2334 -0.0974
   30loPI   C3B  479   0.227  10.201   8.924  0.2167 -0.3675 -0.1659
   30loPI   C4B  480   0.396  10.574   8.596  0.1138 -0.1292  0.0621
   31loPI    C1  481   8.852   2.347  10.532  0.2397 -0.1392 -0.3205
   31loPI    C2  482   9.059   2.506  10.835 -0.0362 -0.0988 -0.1502
   31loPI    C3  483   9.065   2.111  10.775 -0.1231 -0.1268  0.0190
   31loPI   PO4  484   8.983   2.488  10.332  0.1738  0.1583 -0.0437
   31loPI   GL1  485   8.991   2.777   9.950  0.3120 -0.2417  0.1306
   31loPI   GL2  486   8.784   2.945  10.026  0.2661 -0.1118  0.0211
   31loPI   C1A  487   9.117   2.506   9.527  0.0247 -0.0250 -0.1030
   31loPI   C2A  488   9.156   2.453   9.116 -0.1224 -0.1865 -0.0891
   31loPI   C3A  489   9.219   2.249   8.609  0.3099  0.1088  0.1987
   31loPI   C4A  490   9.281   2.341   8.168 -0.1530 -0.1340 -0.1566
   31loPI   C5A  491   9.027   2.599   7.964 -0.0292  0.0117  0.0983
   31loPI   C6A  492   8.870   3.009   7.771 -0.2442 -0.0998 -0.1340
   31loPI   C1B  493   8.679   2.706   9.583 -0.1864 -0.4218  0.1877
   31loPI   C2B  494   8.684   2.493   9.300  0.0269  0.2112 -0.2048
   31loPI   C3B  495   8.714   2.558   8.963  0.1971 -0.0022  0.0693
   31loPI   C4B  496   8.799   2.463   8.533 -0.0366 -0.0992  0.1305
   32loPI    C1  497   7.085   4.290  10.252 -0.0526  0.1645  0.0270
   32loPI    C2  498   6.988   4.481  10.590 -0.2199 -0.1716  0.1740
   32loPI    C3  499   7.351   4.319  10.549 -0.0768  0.1716  0.0480
   32loPI   PO4  500   6.938   4.423  10.088  0.3368 -0.0623  0.1568
   32loPI   GL1  501   6.795   4.179   9.731  0.0641 -0.1591  0.2568
   32loPI   GL2  502   7.043   4.372   9.591 -0.2115  0.2066 -0.1804
   32loPI   C1A  503   6.644   4.022   9.377  0.1146 -0.2383  0.0003
   32loPI   C2A  504   6.655   3.917   8.990  0.1753 -0.0085  0.1271
   32loPI   C3A  505   6.724   3.672   8.577  0.1265 -0.0874  0.2816
   32loPI   C4A  506   6.884   3.604   8.179  0.1414 -0.3451 -0.1337
   32loPI   C5A  507   6.823   3.630   7.727 -0.0244 -0.1060 -0.1565
   32loPI   C6A  508   6.746   4.051   7.623 -0.0973  0.0136  0.4410
   32loPI   C1B  509   7.316   4.369   9.259 -0.0728 -0.0667  0.0592
   32loPI   C2B  510   7.293   4.372   8.862 -0.0531  0.1387  0.0226
   32loPI   C3B  511   7.242   4.328   8.463  0.0918  0.1217 -0.1775
   32loPI   C4B  512   7.149   4.149   8.208  0.0709  0.2872  0.1010
   33loPI    C1  513   6.974   6.303  10.158 -0.1931 -0.3874  0.1746
   33loPI    C2  514   6.644   6.182  10.349 -0.3029  0.0699  0.2879
   33loPI    C3  515   6.768   6.560  10.384  0.0579 -0.0139 -0.0110
   33loPI   PO4  516   7.075   6.168  10.002  0.0530  0.0033  0.1803
   33loPI   GL1  517   7.030   5.913   9.600 -0.2751 -0.1884 -0.3497
   33loPI   GL2  518   7.161   6.213   9.507 -0.1272  0.0168 -0.1507
   33loPI   C1A  519   6.901   5.910   9.254  0.0722  0.0447 -0.0481
   33loPI   C2A  520   7.122   5.646   8.828  0.1238 -0.2022  0.1426
   33loPI   C3A  521   7.400   5.338   8.622  0.1946 -0.0685 -0.1299
   33loPI   C4A  522   7.377   5.183   8.088 -0.0154 -0.0991 -0.1841
   33loPI   C5A  523   7.629   5.065   7.754 -0.0028 -0.0975 -0.1780
   33loPI   C6A  524   8.126   4.932   7.503 -0.1441 -0.1049  0.1069
   33loPI   C1B  525   7.118   6.286   9.035 -0.0897  0.0804  0.1541
   33loPI   C2B  526   6.841   6.117   8.716  0.1888  0.2814 -0.3966
   33loPI   C3B  527   6.680   5.997   8.204  0.0994  0.0709 -0.0499
   33loPI   C4B  528   6.686   5.979   7.719  0.0761 -0.2161  0.0824
   34loPI    C1  529   1.885   1.330  10.260  0.0253  0.0756  0.0381
   34loPI    C2  530   1.583   1.543  10.414  0.1918  0.1225  0.3058
   34loPI    C3  531   1.545   1.147  10.367  0.0468  0.1450  0.2291
   34loPI   PO4  532   1.961   1.434   9.969  0.2966  0.1502  0.2308
   34loPI   GL1  533   1.734   1.582   9.527 -0.0100  0.1246  0.1683
   34loPI   GL2  534   1.911   1.245   9.524 -0.1468  0.0873 -0.1328
   34loPI   C1A  535   1.435   1.535   9.204 -0.3231 -0.2174 -0.0495
   34loPI   C2A  536   1.422   1.623   8.740 -0.1782  0.2698  0.0672
   34loPI   C3A  537   1.548   1.699   8.326  0.3930 -0.0475 -0.1053
   34loPI   C4A  538   1.905   1.887   8.057 -0.0457 -0.2142 -0.1044
   34loPI   C5A  539   2.295   1.931   7.904 -0.1626 -0.1444 -0.1666
   34loPI   C6A  540   2.644   2.067   7.771 -0.3330 -0.2988  0.1148
   34loPI   C1B  541   1.803   1.168   9.130 -0.3663 -0.0288 -0.3013
   34loPI   C2B  542   1.563   1.102   8.816  0.1416  0.0812  0.2362
   34loPI   C3B  543   1.461   1.227   8.427 -0.1432  0.0233 -0.1068
   34loPI   C4B  544   1.498   1.072   8.043  0.0770  0.0029 -0.3149
   35loPI    C1  545   5.127   6.128   9.961  0.0360  0.1045  0.0616
   35loPI    C2  546   5.284   5.827   9.750 -0.0213  0.0671  0.0724
   35loPI    C3  547   5.263   5.802  10.149 -0.2143 -0.0037  0.0590
   35loPI   PO4  548   5.210   6.300   9.836 -0.0386  0.0322 -0.1473
   35loPI   GL1  549   5.414   6.463   9.489  0.0762 -0.0749 -0.3202
   35loPI   GL2  550   5.504   6.236   9.321  0.0574  0.2767  0.4581
   35loPI   C1A  551   5.158   6.539   9.144 -0.2367  0.0353 -0.0908
   35loPI   C2A  552   4.763   6.513   8.965 -0.1893  0.3358 -0.0501
   35loPI   C3A  553   4.614   6.593   8.590 -0.0909  0.3664  0.0734
   35loPI   C4A  554   4.401   6.371   8.216 -0.3479 -0.1817  0.0568
   35loPI   C5A  555   4.187   6.333   7.797  0.5049  0.1713  0.0201
   35loPI   C6A  556   4.342   6.347   7.407  0.4128 -0.1082  0.0968
   35loPI   C1B  557   5.354   6.136   8.892  0.3331 -0.3704 -0.1862
   35loPI   C2B  558   5.069   6.333   8.602 -0.0120  0.1332  0.2216
   35loPI   C3B  559   4.886   6.427   8.233  0.2621  0.2875 -0.1997
   35loPI   C4B  560   4.809   6.253   7.796  0.0199  0.0027  0.1057
   36loPI    C1  561  14.688  16.531  10.562  0.1740  0.0198 -0.0635
   36loPI    C2  562  14.786  16.428  10.936  0.0540  0.0370 -0.0271
   36loPI    C3  563  14.980  16.265  10.626 -0.0059 -0.1563  0.0358
   36loPI   PO4  564  14.774  16.806  10.531 -0.1059 -0.2108  0.1152
   36loPI   GL1  565  14.626  17.012  10.247 -0.0198  0.2713  0.1513
   36loPI   GL2  566  14.760  17.263  10.076  0.0007  0.2006  0.3913
   36loPI   C1A  567  14.663  16.720   9.882  0.1819  0.4880  0.0685
   36loPI   C2A  568  14.732  16.639   9.459  0.0887  0.1817  0.1735
   36loPI   C3A  569  14.803  16.577   9.026  0.2016 -0.0188  0.0147
   36loPI   C4A  570  14.851  16.565   8.547  0.0497  0.0277  0.1095
   36loPI   C5A  571  14.818  16.506   8.099  0.1394  0.2644 -0.2340
   36loPI   C6A  572  14.444  16.480   7.791  0.1912  0.0283  0.0628
   36loPI   C1B  573  14.786  17.161   9.648 -0.2609 -0.0245 -0.2730
   36loPI   C2B  574  15.060  17.174   9.326 -0.3551  0.0507  0.1883
   36loPI   C3B  575  15.288  17.397   9.139  0.2335 -0.0664 -0.0117
   36loPI   C4B  576  15.270  17.918   9.063  0.1505 -0.0631  0.0662
   37loPI    C1  577  12.826   2.299  10.343  0.2616 -0.0956 -0.0826
   37loPI    C2  578  12.754   2.073  10.666  0.1567  0.2410  0.1349
   37loPI    C3  579  13.125   2.200  10.590  0.2699 -0.2318 -0.1460
   37loPI   PO4  580  12.568   2.276  10.192 -0.3348  0.0736  0.1429
   37loPI   GL1  581  12.453   2.121   9.869 -0.0189 -0.4441  0.0175
   37loPI   GL2  582  12.682   1.893   9.762  0.1136  0.0596  0.0469
   37loPI   C1A  583  12.307   2.323   9.459 -0.2735 -0.0754  0.3883
   37loPI   C2A  584  12.380   2.188   9.071  0.1395 -0.2267 -0.2331
   37loPI   C3A  585  12.353   2.269   8.654  0.0434  0.0860  0.0036
   37loPI   C4A  586  12.315   2.339   8.237 -0.1210 -0.1630 -0.2991
   37loPI   C5A  587  12.442   2.183   7.865  0.3271 -0.1973 -0.0077
   37loPI   C6A  588  12.829   2.304   7.515  0.1050  0.1623  0.2363
   37loPI   C1B  589  12.718   1.763   9.368 -0.2134 -0.4072 -0.2426
   37loPI   C2B  590  12.457   1.672   9.052  0.2974  0.0436 -0.1376
   37loPI   C3B  591  12.491   1.614   8.614 -0.1112  0.1356 -0.2391
   37loPI   C4B  592  12.403   1.833   8.238 -0.1572 -0.1412 -0.1704
   38loPI    C1  593  12.337  12.007  10.106  0.3222 -0.3546 -0.1200
   38loPI    C2  594  12.672  12.114  10.296  0.1585 -0.0588  0.0099
   38loPI    C3  595  12.385  11.918  10.493  0.1492 -0.0908 -0.0351
   38loPI   PO4  596  12.403  12.005   9.873  0.0817 -0.0864 -0.0816
   38loPI   GL1  597  12.264  12.121   9.513 -0.1020 -0.0363  0.1121
   38loPI   GL2  598  12.026  12.057   9.364  0.0167 -0.0460 -0.0174
   38loPI   C1A  599  12.433  12.429   9.272  0.3893 -0.1877  0.1883
   38loPI   C2A  600  12.350  12.596   8.958 -0.1143  0.1485  0.0663
   38loPI   C3A  601  12.113  12.841   8.686  0.1770 -0.1934  0.0208
   38loPI   C4A  602  11.941  13.058   8.391 -0.1395  0.0676  0.2310
   38loPI   C5A  603  11.901  13.061   8.008 -0.0879 -0.0656  0.2642
   38loPI   C6A  604  11.971  13.007   7.687  0.1924  0.2251 -0.0501
   38loPI   C1B  605  12.151  12.057   8.991 -0.2639  0.0884  0.0594
   38loPI   C2B  606  12.158  12.248   8.588 -0.0263 -0.1628  0.2868
   38loPI   C3B  607  12.332  12.269   8.171 -0.0344 -0.0436 -0.3584
   38loPI   C4B  608  12.447  12.023   7.738 -0.4740 -0.2544 -0.0730
   39loPI    C1  609  15.068   0.147  10.400  0.0692  0.0048  0.0974
   39loPI    C2  610  15.315   0.011  10.684  0.2403  0.0808 -0.0130
   39loPI    C3  611  15.325   0.397  10.578  0.0163  0.1023  0.0380
   39loPI   PO4  612  14.803  -0.052  10.349 -0.2227 -0.0270  0.1642
   39loPI   GL1  613  14.780  -0.051   9.886  0.2610  0.1408 -0.0428
   39loPI   GL2  614  15.086   0.109   9.899  0.0049  0.0613 -0.0343
   39loPI   C1A  615  14.659  -0.147   9.426  0.0037 -0.0437  0.3075
   39loPI   C2A  616  14.441  -0.230   9.097  0.0238  0.1982 -0.2519
   39loPI   C3A  617  14.363  -0.264   8.696 -0.0835  0.0462  0.2544
   39loPI   C4A  618  14.288  -0.202   8.331 -0.0580 -0.0022 -0.2400
   39loPI   C5A  619  13.995  -0.323   7.972  0.2626 -0.2725  0.1364
   39loPI   C6A  620  13.674  -0.405   7.725  0.2107  0.1209  0.0396
   39loPI   C1B  621  14.962   0.319   9.404  0.1451  0.0478  0.2261
   39loPI   C2B  622  14.877   0.074   9.028 -0.2184  0.0252 -0.1955
   39loPI   C3B  623  14.901  -0.362   8.934  0.2741 -0.1850  0.1352
   39loPI   C4B  624  14.799  -0.759   8.941 -0.1465 -0.1566 -0.0553
   40loPI    C1  625   1.094   1.623  10.572 -0.0854  0.0072 -0.0557
   40loPI    C2  626   1.377   1.485  10.818 -0.0545 -0.0170 -0.1047
   40loPI    C3  627   1.284   1.874  10.819 -0.0009 -0.0041 -0.1087
   40loPI   PO4  628   1.113   1.535  10.253  0.1883  0.3246 -0.1705
   40loPI   GL1  629   1.039   1.803   9.926  0.1547  0.0753 -0.0925
   40loPI   GL2  630   1.247   1.793   9.681  0.2181 -0.1239  0.2085
   40loPI   C1A  631   0.671   1.628   9.587  0.0802  0.1888  0.0210
   40loPI   C2A  632   0.424   1.615   9.228  0.0550 -0.3171 -0.0457
   40loPI   C3A  633   0.273   1.643   8.789 -0.1418 -0.3148 -0.2245
   40loPI   C4A  634   0.386   1.669   8.400 -0.1113  0.0233  0.0912
   40loPI   C5A  635   0.611   1.461   8.073 -0.1789  0.1905  0.0258
   40loPI   C6A  636   0.999   1.238   7.858  0.1559 -0.1913 -0.2380
   40loPI   C1B  637   0.946   1.694   9.228  0.0861  0.1048 -0.0489
   40loPI   C2B  638   0.846   1.527   8.789 -0.1699 -0.2260 -0.1667
   40loPI   C3B  639   1.014   1.539   8.396 -0.2997  0.1829  0.1471
   40loPI   C4B  640   1.107   1.683   8.012 -0.0618 -0.2160  0.0683
   41loPI    C1  641   6.389  16.465  10.820 -0.1178 -0.0299  0.1630
   41loPI    C2  642   6.089  16.205  10.868 -0.0586 -0.1053  0.1284
   41loPI    C3  643   6.085  16.553  11.065 -0.1060 -0.1603  0.2258
   41loPI   PO4  644   6.460  16.521  10.566 -0.0057  0.1362 -0.0840
   41loPI   GL1  645   6.606  16.492  10.136  0.0543  0.2589 -0.1929
   41loPI   GL2  646   6.386  16.424   9.992  0.5032 -0.1556  0.1178
   41loPI   C1A  647   6.703  16.344   9.645  0.0911 -0.1229  0.0759
   41loPI   C2A  648   6.859  16.350   9.249 -0.0882 -0.1431 -0.1010
   41loPI   C3A  649   6.727  16.216   8.767 -0.4659  0.1984 -0.0199
   41loPI   C4A  650   6.733  15.996   8.319 -0.0626 -0.0864 -0.0247
   41loPI   C5A  651   6.845  15.954   7.990  0.0314 -0.2575  0.0027
   41loPI   C6A  652   7.086  15.759   7.636 -0.1945 -0.1283  0.1933
   41loPI   C1B  653   6.194  16.394   9.611 -0.0898 -0.2174 -0.1970
   41loPI   C2B  654   6.232  16.480   9.023 -0.0814 -0.2457 -0.2038
   41loPI   C3B  655   6.240  16.369   8.531  0.2988  0.3130 -0.4689
   41loPI   C4B  656   6.206  16.158   8.149 -0.0771 -0.1232  0.0975
   42loPI    C1  657   4.941  12.743  10.171 -0.1265 -0.0027  0.0375
   42loPI    C2  658   4.830  12.428  10.391 -0.2647 -0.0023 -0.0306
   42loPI    C3  659   5.078  12.702  10.544  0.0308 -0.2557 -0.0455
   42loPI   PO4  660   4.628  12.668   9.996 -0.1471 -0.0525 -0.1451
   42loPI   GL1  661   4.550  12.522   9.563  0.5477 -0.4090 -0.1100
   42loPI   GL2  662   4.202  12.637   9.692 -0.0693 -0.0974  0.0848
   42loPI   C1A  663   4.625  12.385   9.007 -0.2388  0.1710 -0.2303
   42loPI   C2A  664   4.584  12.036   8.702  0.0208  0.0991 -0.1940
   42loPI   C3A  665   4.797  12.035   8.317 -0.0783  0.1280  0.1643
   42loPI   C4A  666   4.819  12.395   8.019  0.1705 -0.0947 -0.1026
   42loPI   C5A  667   4.510  12.555   7.658  0.1304 -0.0242  0.3305
   42loPI   C6A  668   4.258  12.878   7.562  0.0061  0.0331  0.0087
   42loPI   C1B  669   4.153  12.418   9.298  0.0852  0.1208  0.0142
   42loPI   C2B  670   4.077  12.376   8.938 -0.4068  0.1659  0.1172
   42loPI   C3B  671   4.258  12.434   8.662  0.2284 -0.0153  0.2165
   42loPI   C4B  672   4.655  12.492   8.484 -0.1739 -0.1747 -0.0611
   43loPI    C1  673  10.015   8.013  10.381  0.0489  0.0567  0.0819
   43loPI    C2  674   9.764   8.013  10.692  0.2135  0.0400  0.2160
   43loPI    C3  675  10.159   8.028  10.754  0.2502 -0.0436  0.0099
   43loPI   PO4  676  10.083   7.767  10.273 -0.2446  0.1113  0.1665
   43loPI   GL1  677  10.294   7.849   9.795  0.0891  0.5200 -0.3129
   43loPI   GL2  678  10.507   8.093   9.778 -0.0067  0.0685 -0.0114
   43loPI   C1A  679  10.309   8.014   9.322 -0.3346  0.0385  0.1073
   43loPI   C2A  680  10.031   8.175   9.005 -0.0152 -0.1331  0.2287
   43loPI   C3A  681  10.036   8.332   8.629  0.0188 -0.2413  0.2818
   43loPI   C4A  682  10.046   8.237   8.243  0.3197  0.0094  0.0072
   43loPI   C5A  683  10.165   7.984   7.891  0.0350  0.0736 -0.3800
   43loPI   C6A  684  10.234   7.622   7.587  0.0616  0.1626 -0.3292
   43loPI   C1B  685  10.667   8.351   9.382  0.1174 -0.1833 -0.0214
   43loPI   C2B  686  10.528   8.403   8.998  0.1698  0.1466  0.0217
   43loPI   C3B  687  10.492   8.477   8.574  0.4673  0.1390  0.2681
   43loPI   C4B  688  10.418   8.483   8.111 -0.3195  0.0024  0.1004
   44loPI    C1  689  16.638   9.139  10.964 -0.1538 -0.1116  0.1343
   44loPI    C2  690  16.419   9.432  11.126 -0.1723 -0.0762  0.0459
   44loPI    C3  691  16.679   9.228  11.352  0.0787  0.2261  0.0369
   44loPI   PO4  692  16.584   9.207  10.672 -0.0191  0.1640  0.0577
   44loPI   GL1  693  16.638   9.001  10.258 -0.0779 -0.1745 -0.2127
   44loPI   GL2  694  16.908   9.252  10.242  0.0923 -0.2129 -0.1590
   44loPI   C1A  695  16.325   9.205   9.985  0.1404  0.1945 -0.1752
   44loPI   C2A  696  16.313   9.426   9.659  0.0802  0.1714 -0.0170
   44loPI   C3A  697  16.238   9.491   9.229 -0.0358  0.2038 -0.0406
   44loPI   C4A  698  16.289   9.710   8.717  0.0749  0.0024 -0.2302
   44loPI   C5A  699  16.257   9.511   8.377 -0.1677  0.4014 -0.0115
   44loPI   C6A  700  16.196   9.003   8.298 -0.1908 -0.4899 -0.0554
   44loPI   C1B  701  16.790   9.137   9.788 -0.2436 -0.0635  0.1851
   44loPI   C2B  702  16.986   8.879   9.475  0.2098 -0.3405  0.1884
   44loPI   C3B  703  17.387   8.707   9.498 -0.3877 -0.2062  0.1212
   44loPI   C4B  704  17.643   8.720   9.851 -0.4081 -0.1097 -0.2100
   45loPI    C1  705  16.053   3.145   9.967 -0.2757  0.0365  0.1287
   45loPI    C2  706  16.124   3.315  10.322 -0.0989  0.2062  0.0137
   45loPI    C3  707  15.749   3.222  10.217 -0.1700  0.3005  0.1784
   45loPI   PO4  708  16.227   3.284   9.860  0.0692 -0.0786  0.3688
   45loPI   GL1  709  16.222   3.315   9.441  0.3623 -0.0331 -0.2926
   45loPI   GL2  710  16.180   3.590   9.503 -0.0148 -0.3151 -0.1119
   45loPI   C1A  711  16.364   3.171   9.072  0.1086 -0.1362  0.2853
   45loPI   C2A  712  16.614   2.932   8.653  0.1743 -0.0414 -0.0972
   45loPI   C3A  713  16.456   2.708   8.398  0.1825  0.1894  0.1228
   45loPI   C4A  714  16.325   2.465   8.021 -0.0734 -0.1239  0.0767
   45loPI   C5A  715  16.601   2.191   7.696  0.2108 -0.3040  0.2142
   45loPI   C6A  716  16.761   2.324   7.356  0.0189 -0.1205  0.0989
   45loPI   C1B  717  16.194   3.824   9.164  0.0359 -0.0345  0.1310
   45loPI   C2B  718  16.127   3.860   8.739  0.3321 -0.1378 -0.0609
   45loPI   C3B  719  16.095   3.797   8.303  0.1763 -0.0924 -0.0011
   45loPI   C4B  720  16.338   3.726   7.967  0.2236  0.1930 -0.2566
   46loPI    C1  721  11.246  11.287  10.639  0.0026 -0.1816  0.1830
   46loPI    C2  722  11.579  11.321  10.858 -0.0143 -0.1184  0.1991
   46loPI    C3  723  11.262  11.126  11.005  0.0193 -0.1883  0.1794
   46loPI   PO4  724  11.351  11.128  10.383 -0.0805  0.1636 -0.2865
   46loPI   GL1  725  11.081  10.877  10.168 -0.0060  0.2320 -0.0155
   46loPI   GL2  726  10.862  10.733  10.060  0.2678 -0.0133 -0.0024
   46loPI   C1A  727  11.257  11.006   9.771  0.1480 -0.3579 -0.1378
   46loPI   C2A  728  11.575  11.095   9.414 -0.1359  0.1959  0.4436
   46loPI   C3A  729  11.758  11.238   9.105  0.0911  0.1750 -0.0260
   46loPI   C4A  730  11.620  11.157   8.636 -0.0586 -0.1430 -0.4416
   46loPI   C5A  731  11.559  10.959   8.256 -0.1818  0.0163  0.0510
   46loPI   C6A  732  11.256  10.998   7.933  0.0725 -0.1104 -0.0584
   46loPI   C1B  733  10.830  10.748   9.693 -0.1214  0.0102  0.0416
   46loPI   C2B  734  11.131  10.653   9.338  0.1881  0.0439 -0.0147
   46loPI   C3B  735  11.108  10.526   8.954 -0.0933 -0.1898  0.0485
   46loPI   C4B  736  10.714  10.855   8.715 -0.3214 -0.0949  0.0074
   47loPI    C1  737   7.291  13.054  10.827  0.1920  0.3085 -0.0545
   47loPI    C2  738   7.562  12.781  10.935 -0.0858  0.0233 -0.0659
   47loPI    C3  739   7.492  13.096  11.170  0.3086  0.1428 -0.1012
   47loPI   PO4  740   7.379  13.218  10.539 -0.4909  0.0404 -0.5143
   47loPI   GL1  741   7.442  13.402  10.109 -0.2163  0.1396 -0.1020
   47loPI   GL2  742   7.592  13.571   9.904 -0.2808 -0.0578  0.0855
   47loPI   C1A  743   7.702  13.121   9.707 -0.0533  0.2312  0.0770
   47loPI   C2A  744   7.742  12.993   9.336 -0.1459  0.4544  0.1781
   47loPI   C3A  745   7.545  13.192   8.909 -0.2762  0.0126  0.0435
   47loPI   C4A  746   7.406  13.003   8.584  0.0463  0.0878  0.1109
   47loPI   C5A  747   7.277  13.000   8.076  0.0246  0.0746 -0.0640
   47loPI   C6A  748   7.269  12.561   7.921 -0.0230 -0.3858 -0.2632
   47loPI   C1B  749   7.525  13.787   9.564  0.0356 -0.0209  0.1749
   47loPI   C2B  750   7.412  13.702   9.086  0.3104  0.1044 -0.1721
   47loPI   C3B  751   7.217  13.565   8.633 -0.0767 -0.1654 -0.0726
   47loPI   C4B  752   7.018  13.370   8.297  0.0255 -0.2520  0.0338
   48loPI    C1  753   6.192   6.231   9.982  0.0747  0.0751  0.0876
   48loPI    C2  754   6.328   6.546  10.188  0.0933 -0.0198  0.2216
   48loPI    C3  755   5.987   6.368  10.297 -0.0978  0.1642 -0.0614
   48loPI   PO4  756   6.196   6.285   9.763  0.0819 -0.1751  0.1581
   48loPI   GL1  757   6.362   6.465   9.383  0.0374  0.0455  0.0284
   48loPI   GL2  758   6.679   6.555   9.191  0.2885  0.1005  0.2217
   48loPI   C1A  759   6.192   6.562   9.026 -0.3370 -0.0809  0.1575
   48loPI   C2A  760   5.973   6.607   8.600 -0.1734  0.0774  0.2044
   48loPI   C3A  761   5.949   6.666   8.256  0.0298  0.0112 -0.1817
   48loPI   C4A  762   5.874   6.296   8.084  0.1965 -0.1586 -0.1304
   48loPI   C5A  763   5.649   6.077   7.699  0.1529  0.1258  0.2129
   48loPI   C6A  764   5.490   5.862   7.434 -0.0066 -0.2005 -0.0446
   48loPI   C1B  765   6.695   6.590   8.797 -0.0691  0.1555  0.1030
   48loPI   C2B  766   6.487   6.535   8.448 -0.1955  0.1064 -0.2050
   48loPI   C3B  767   6.337   6.313   8.109 -0.0832  0.2845 -0.1408
   48loPI   C4B  768   6.135   6.201   7.651 -0.2615 -0.4364  0.0358
   49loPI    C1  769   5.205  11.075  10.264  0.2524  0.3665  0.1337
   49loPI    C2  770   5.391  10.947   9.934  0.0595  0.1042  0.1239
   49loPI    C3  771   5.578  10.932  10.287  0.0609 -0.1599  0.1144
   49loPI   PO4  772   4.935  11.122  10.119 -0.0427 -0.1911 -0.1339
   49loPI   GL1  773   4.911  11.125   9.743  0.0844 -0.2048  0.0089
   49loPI   GL2  774   4.686  11.383   9.752 -0.0056 -0.1589 -0.0751
   49loPI   C1A  775   5.007  11.323   9.378  0.0852  0.1461  0.0726
   49loPI   C2A  776   4.995  11.374   9.022 -0.1116  0.1358 -0.0789
   49loPI   C3A  777   4.854  11.206   8.635  0.1330 -0.2416 -0.3056
   49loPI   C4A  778   4.836  11.143   8.180 -0.2148  0.2408  0.2099
   49loPI   C5A  779   4.743  11.201   7.767 -0.2150 -0.0513  0.1286
   49loPI   C6A  780   4.528  11.504   7.553 -0.2086  0.1201  0.1446
   49loPI   C1B  781   4.435  11.532   9.369 -0.1052 -0.0596  0.0070
   49loPI   C2B  782   4.482  11.484   8.895  0.0251  0.0338 -0.1504
   49loPI   C3B  783   4.498  11.519   8.497 -0.0857  0.2090 -0.0091
   49loPI   C4B  784   4.589  11.524   8.058  0.1049  0.1680  0.1166
   50loPI    C1  785  15.501  14.191  10.838 -0.1663  0.2003 -0.0160
   50loPI    C2  786  15.866  14.342  10.774  0.0280 -0.2007  0.1143
   50loPI    C3  787  15.660  14.449  11.100 -0.0163  0.1030 -0.0102
   50loPI   PO4  788  15.390  14.151  10.585 -0.1153  0.1718 -0.0597
   50loPI   GL1  789  15.288  14.235  10.218  0.2373  0.0910  0.1615
   50loPI   GL2  790  15.389  14.097   9.966  0.2004  0.0546 -0.1974
   50loPI   C1A  791  14.934  14.156   9.890  0.1387 -0.2833 -0.2602
   50loPI   C2A  792  14.754  14.260   9.435  0.1816  0.2382  0.2206
   50loPI   C3A  793  14.656  14.325   8.915  0.0137  0.2565 -0.0258
   50loPI   C4A  794  14.678  14.141   8.531  0.0985  0.2477 -0.2585
   50loPI   C5A  795  14.864  13.927   8.271  0.0129  0.2405  0.0254
   50loPI   C6A  796  14.791  13.374   8.239 -0.2457  0.0456  0.2140
   50loPI   C1B  797  15.279  14.248   9.543 -0.2173  0.1125  0.0040
   50loPI   C2B  798  15.114  14.175   9.117 -0.1100 -0.1046  0.0062
   50loPI   C3B  799  15.109  14.306   8.656 -0.2499  0.2325 -0.0442
   50loPI   C4B  800  15.238  14.270   8.232  0.2366 -0.3028  0.0060
   51loPI    C1  801   3.660  18.537  10.534  0.1463 -0.0650 -0.0769
   51loPI    C2  802   3.717  18.203  10.748 -0.1937 -0.0742  0.0046
   51loPI    C3  803   3.814  18.559  10.902  0.3659 -0.1456 -0.1624
   51loPI   PO4  804   3.799  18.492  10.283  0.2426 -0.2517  0.2360
   51loPI   GL1  805   3.800  18.394   9.893  0.1843  0.2429 -0.2212
   51loPI   GL2  806   3.598  18.140   9.884 -0.0055 -0.2308  0.0404
   51loPI   C1A  807   3.698  18.451   9.453  0.2706 -0.0353  0.1586
   51loPI   C2A  808   3.419  18.384   9.147 -0.2255  0.0377 -0.1610
   51loPI   C3A  809   3.067  18.562   8.923 -0.0438 -0.1441  0.0792
   51loPI   C4A  810   2.887  18.517   8.556  0.2410 -0.0710 -0.1818
   51loPI   C5A  811   2.579  18.707   8.260 -0.0090 -0.0910  0.1251
   51loPI   C6A  812   2.341  18.708   7.895 -0.0894 -0.2654  0.0990
   51loPI   C1B  813   3.443  18.033   9.534 -0.0492  0.0702 -0.1060
   51loPI   C2B  814   3.401  17.686   9.305 -0.0257  0.3212  0.0160
   51loPI   C3B  815   3.426  17.634   8.865  0.0194 -0.1594 -0.1224
   51loPI   C4B  816   3.667  17.405   8.540  0.0820 -0.0120 -0.0195
   52loPI    C1  817   1.232  10.163  10.611 -0.1664 -0.2786 -0.1912
   52loPI    C2  818   1.608  10.028  10.595  0.0399  0.1893  0.3623
   52loPI    C3  819   1.355   9.881  10.867 -0.1993 -0.1500 -0.0320
   52loPI   PO4  820   1.156  10.174  10.345  0.4326  0.2510  0.1361
   52loPI   GL1  821   1.013  10.385   9.991 -0.2324 -0.3183 -0.3469
   52loPI   GL2  822   1.148  10.595   9.972 -0.1318 -0.0581  0.5263
   52loPI   C1A  823   0.790  10.470   9.549 -0.0721 -0.1201  0.1006
   52loPI   C2A  824   0.321  10.587   9.293 -0.1414  0.2233 -0.2287
   52loPI   C3A  825   0.088  10.719   9.088  0.2118 -0.2138 -0.1492
   52loPI   C4A  826  -0.044  10.702   8.725  0.4067  0.0804 -0.2177
   52loPI   C5A  827  -0.396  10.939   8.526 -0.1777  0.3319  0.3961
   52loPI   C6A  828  -0.456  10.910   8.072 -0.3039 -0.0346 -0.1810
   52loPI   C1B  829   1.171  10.859   9.636  0.5003 -0.3542  0.0162
   52loPI   C2B  830   1.323  11.196   9.440 -0.0799  0.2385 -0.1552
   52loPI   C3B  831   1.233  11.483   9.105  0.1404  0.0096 -0.1496
   52loPI   C4B  832   1.114  11.765   8.746  0.0084 -0.0329  0.2552
   53loPI    C1  833   3.907   2.819  10.173 -0.0940 -0.0023  0.2793
   53loPI    C2  834   3.801   3.062  10.472 -0.2070  0.1424  0.1230
   53loPI    C3  835   3.876   2.677  10.546 -0.1711  0.1910  0.3480
   53loPI   PO4  836   3.787   2.885  10.018  0.1930  0.2576 -0.0824
   53loPI   GL1  837   3.550   2.826   9.627 -0.0899 -0.1900  0.1777
   53loPI   GL2  838   3.620   3.036   9.332  0.0037  0.0961 -0.0164
   53loPI   C1A  839   3.191   2.811   9.297 -0.2508 -0.2252 -0.4207
   53loPI   C2A  840   2.960   2.773   8.963  0.3494  0.0558  0.0467
   53loPI   C3A  841   2.833   3.020   8.630  0.0100 -0.4080 -0.0374
   53loPI   C4A  842   2.766   3.398   8.224 -0.1126 -0.1727  0.0137
   53loPI   C5A  843   2.795   3.648   7.759 -0.0422  0.1221  0.1031
   53loPI   C6A  844   2.811   3.751   7.284 -0.0809  0.0251 -0.1875
   53loPI   C1B  845   3.838   3.033   8.959  0.1274  0.3750  0.2795
   53loPI   C2B  846   3.914   2.848   8.533  0.1926 -0.1531  0.2025
   53loPI   C3B  847   4.210   2.736   8.312  0.2728 -0.2341  0.0142
   53loPI   C4B  848   4.232   2.862   7.841  0.1191 -0.0155 -0.3094
   54loPI    C1  849  12.213   9.085  10.490 -0.0254 -0.1841  0.0025
   54loPI    C2  850  12.464   8.784  10.409  0.1182 -0.0345 -0.1156
   54loPI    C3  851  12.581   9.085  10.646  0.0712  0.0652 -0.2178
   54loPI   PO4  852  12.097   9.178  10.250 -0.1982 -0.0902 -0.2319
   54loPI   GL1  853  12.072   9.415   9.871  0.0920  0.1776 -0.2474
   54loPI   GL2  854  12.335   9.626   9.840 -0.0679  0.1818 -0.1171
   54loPI   C1A  855  12.013   9.223   9.515  0.1015  0.0157  0.0541
   54loPI   C2A  856  11.910   8.958   9.110 -0.1661 -0.0967  0.0478
   54loPI   C3A  857  11.788   8.883   8.641  0.0435 -0.0510 -0.1635
   54loPI   C4A  858  11.796   8.890   8.197  0.1879  0.1233  0.1503
   54loPI   C5A  859  11.752   9.034   7.776  0.2167 -0.3031 -0.0239
   54loPI   C6A  860  11.860   9.176   7.421 -0.1593  0.3226 -0.0980
   54loPI   C1B  861  12.336   9.583   9.366  0.1936 -0.0322  0.3633
   54loPI   C2B  862  12.133   9.401   8.957  0.3249  0.1760 -0.0372
   54loPI   C3B  863  12.129   9.238   8.485 -0.2939  0.0297 -0.1129
   54loPI   C4B  864  12.216   9.232   8.119  0.0218 -0.4183 -0.1626
   55loPI    C1  865   4.777   5.795  10.188  0.1207  0.0794 -0.0313
   55loPI    C2  866   4.533   6.024  10.407 -0.1587 -0.1254 -0.1226
   55loPI    C3  867   4.929   6.045  10.461 -0.2134 -0.0484  0.2791
   55loPI   PO4  868   4.790   5.690   9.987  0.0658  0.3364 -0.1490
   55loPI   GL1  869   4.789   5.762   9.583 -0.1714 -0.1829 -0.2206
   55loPI   GL2  870   4.960   5.433   9.508 -0.2560 -0.0084 -0.0085
   55loPI   C1A  871   4.647   5.586   9.151 -0.0504  0.0558  0.2840
   55loPI   C2A  872   4.663   5.514   8.770 -0.0637 -0.1463 -0.3146
   55loPI   C3A  873   4.678   5.436   8.374  0.1301  0.1016  0.1885
   55loPI   C4A  874   4.724   5.510   7.899  0.0213  0.0315 -0.1590
   55loPI   C5A  875   4.884   5.832   7.505 -0.0703  0.0594  0.1507
   55loPI   C6A  876   5.025   6.156   7.236  0.0203 -0.0510 -0.2720
   55loPI   C1B  877   5.160   5.411   9.072 -0.0983 -0.1164 -0.0101
   55loPI   C2B  878   5.218   5.315   8.554 -0.0375  0.0035  0.0240
   55loPI   C3B  879   4.950   5.042   8.209 -0.0050  0.0964  0.0391
   55loPI   C4B  880   5.018   4.896   7.822 -0.2801  0.2453 -0.0567
   56loPI    C1  881  18.349  15.394  10.890  0.0192 -0.0027  0.0881
   56loPI    C2  882  18.679  15.182  10.968  0.0961  0.1210  0.1016
   56loPI    C3  883  18.613  15.526  11.161 -0.1548 -0.0169  0.2671
   56loPI   PO4  884  18.269  15.353  10.602  0.3429 -0.0926 -0.0177
   56loPI   GL1  885  18.431  15.313  10.171  0.4698 -0.3431  0.1850
   56loPI   GL2  886  18.228  15.139  10.035 -0.0357 -0.0735  0.0925
   56loPI   C1A  887  18.740  15.291   9.902  0.1902  0.1940 -0.0475
   56loPI   C2A  888  18.862  15.324   9.494 -0.2211  0.0485  0.0862
   56loPI   C3A  889  18.872  15.368   9.008  0.0207  0.2731  0.1050
   56loPI   C4A  890  18.861  15.241   8.593 -0.2213 -0.1481 -0.1226
   56loPI   C5A  891  19.065  15.209   8.227  0.3241 -0.0407  0.0015
   56loPI   C6A  892  19.271  15.195   7.823  0.2458 -0.1975 -0.1756
   56loPI   C1B  893  18.428  14.987   9.635 -0.4635 -0.2968 -0.2328
   56loPI   C2B  894  18.525  15.012   9.171 -0.1139  0.0141 -0.0573
   56loPI   C3B  895  18.579  14.884   8.747 -0.0548 -0.0806  0.0230
   56loPI   C4B  896  18.315  14.793   8.437  0.2528 -0.0700 -0.0247
   57loPI    C1  897  18.307  12.536  10.582 -0.1982 -0.3547 -0.2291
   57loPI    C2  898  18.423  12.159  10.650  0.0957 -0.2343 -0.0418
   57loPI    C3  899  18.277  12.381  10.949  0.1165 -0.1336 -0.1057
   57loPI   PO4  900  18.190  12.525  10.385  0.0544  0.0480 -0.3838
   57loPI   GL1  901  18.223  12.180  10.138  0.0093  0.1375  0.0584
   57loPI   GL2  902  17.976  11.860  10.085 -0.2447 -0.1108  0.3035
   57loPI   C1A  903  18.380  12.176   9.804  0.0189 -0.3189  0.1249
   57loPI   C2A  904  18.184  12.280   9.387  0.1257 -0.1222  0.3010
   57loPI   C3A  905  17.979  12.262   8.954 -0.0131  0.2945  0.1883
   57loPI   C4A  906  17.971  12.119   8.556  0.4102 -0.0299 -0.1595
   57loPI   C5A  907  18.131  11.860   8.275 -0.0695 -0.0658 -0.2739
   57loPI   C6A  908  18.015  11.411   8.067  0.1160  0.1325 -0.2113
   57loPI   C1B  909  18.000  11.829   9.572 -0.2209  0.0806  0.3240
   57loPI   C2B  910  18.040  11.828   9.194 -0.0783  0.1742 -0.0377
   57loPI   C3B  911  18.081  11.538   8.790  0.3516 -0.3313  0.2247
   57loPI   C4B  912  18.390  11.500   8.540  0.1155  0.0120  0.1958
   58loPI    C1  913   9.171  11.167  10.266  0.0641  0.0715  0.1053
   58loPI    C2  914   9.370  11.251  10.603  0.0337 -0.0419  0.1520
   58loPI    C3  915   9.057  11.002  10.613 -0.0347  0.0395  0.0580
   58loPI   PO4  916   9.157  11.354  10.138  0.0745 -0.2307 -0.3160
   58loPI   GL1  917   9.004  11.548   9.710 -0.0314 -0.3077  0.0842
   58loPI   GL2  918   8.677  11.621   9.659  0.2305 -0.0067  0.1524
   58loPI   C1A  919   9.119  11.643   9.277 -0.1391  0.2175  0.1463
   58loPI   C2A  920   9.153  11.670   8.834 -0.2244  0.1404  0.1535
   58loPI   C3A  921   9.160  11.777   8.408  0.0423  0.0280 -0.0187
   58loPI   C4A  922   9.387  11.928   8.117  0.0082 -0.3169 -0.0212
   58loPI   C5A  923   9.586  11.924   7.682  0.2858  0.2797  0.0930
   58loPI   C6A  924   9.972  11.943   7.609 -0.1504 -0.0398  0.4267
   58loPI   C1B  925   8.572  11.711   9.244  0.1660 -0.4456  0.3219
   58loPI   C2B  926   8.602  11.694   8.845 -0.1077 -0.1194  0.2644
   58loPI   C3B  927   8.748  11.492   8.431 -0.1703 -0.3185  0.0407
   58loPI   C4B  928   8.775  11.274   8.096  0.1793 -0.0923 -0.1288
   59loPI    C1  929  14.928  10.344  10.298  0.2799 -0.0582 -0.1132
   59loPI    C2  930  14.824  10.487  10.657 -0.1362 -0.1416 -0.1951
   59loPI    C3  931  15.109  10.209  10.628 -0.0737 -0.1072  0.0663
   59loPI   PO4  932  14.883  10.652  10.131  0.2760  0.2065 -0.1206
   59loPI   GL1  933  14.774  10.479   9.754  0.0522 -0.0523 -0.1141
   59loPI   GL2  934  14.514  10.675   9.709 -0.2418  0.0087 -0.2108
   59loPI   C1A  935  14.947  10.442   9.404  0.0201  0.0265 -0.0905
   59loPI   C2A  936  14.977  10.317   8.879 -0.5283 -0.0850 -0.2037
   59loPI   C3A  937  14.927  10.227   8.439  0.2252  0.0911  0.0033
   59loPI   C4A  938  14.979  10.322   8.035 -0.2156  0.0479  0.1089
   59loPI   C5A  939  15.233  10.198   7.763  0.4399 -0.0536 -0.1822
   59loPI   C6A  940  15.493  10.145   7.469  0.2496 -0.0238 -0.2391
   59loPI   C1B  941  14.203  10.922   9.477 -0.0277  0.2227  0.2937
   59loPI   C2B  942  14.264  10.979   9.079  0.0850  0.2230  0.0508
   59loPI   C3B  943  14.444  10.976   8.657 -0.2038  0.0948  0.2120
   59loPI   C4B  944  14.257  11.070   8.235 -0.4178  0.0201  0.0953
   60loPI    C1  945  15.449  13.201  10.403  0.0902  0.1458 -0.1898
   60loPI    C2  946  15.819  13.272  10.538  0.0310  0.1072 -0.0047
   60loPI    C3  947  15.711  13.397  10.173  0.1391  0.3659  0.0499
   60loPI   PO4  948  15.468  12.938  10.434  0.1116 -0.1141 -0.0631
   60loPI   GL1  949  15.793  12.896  10.164  0.0269  0.0419 -0.3417
   60loPI   GL2  950  15.655  12.681  10.019  0.0349 -0.1698  0.2994
   60loPI   C1A  951  15.559  13.112   9.726  0.1780  0.0866 -0.3498
   60loPI   C2A  952  15.277  13.216   9.400 -0.1621  0.2218 -0.1512
   60loPI   C3A  953  15.157  13.125   8.946 -0.0811 -0.1135 -0.0017
   60loPI   C4A  954  15.267  13.250   8.559 -0.3551  0.1341  0.0473
   60loPI   C5A  955  15.324  13.429   8.243 -0.1431 -0.0356  0.2171
   60loPI   C6A  956  15.306  13.676   7.868 -0.1145 -0.4571 -0.0463
   60loPI   C1B  957  15.544  12.623   9.569  0.0992 -0.0072  0.3630
   60loPI   C2B  958  15.509  12.693   9.062  0.2399  0.0491 -0.0247
   60loPI   C3B  959  15.302  12.660   8.716 -0.0608 -0.0349 -0.0082
   60loPI   C4B  960  15.496  12.393   8.354 -0.0431 -0.2846  0.2677
   61loPI    C1  961  10.796   9.270  10.226 -0.1267  0.1240  0.0667
   61loPI    C2  962  11.094   9.065  10.398 -0.1892  0.1667  0.2271
   61loPI    C3  963  10.970   9.410  10.558 -0.1711  0.2657  0.0307
   61loPI   PO4  964  10.786   9.351  10.008  0.1470  0.1031  0.2757
   61loPI   GL1  965  10.527   9.486   9.691  0.0715 -0.1070  0.0204
   61loPI   GL2  966  10.733   9.203   9.552  0.0585  0.2814 -0.2001
   61loPI   C1A  967  10.759   9.739   9.389 -0.1032  0.0965  0.1448
   61loPI   C2A  968  10.936  10.025   9.058  0.0298 -0.1591  0.1705
   61loPI   C3A  969  10.995  10.051   8.625 -0.1487  0.2448  0.3937
   61loPI   C4A  970  11.295  10.310   8.438  0.1609 -0.4565  0.1979
   61loPI   C5A  971  11.330  10.512   8.021 -0.0214 -0.1483 -0.1970
   61loPI   C6A  972  10.945  10.557   7.756  0.1859  0.0529 -0.0048
   61loPI   C1B  973  10.843   9.256   9.123 -0.3185 -0.3432 -0.3504
   61loPI   C2B  974  10.820   9.483   8.656  0.1009  0.0179 -0.3374
   61loPI   C3B  975  10.877   9.616   8.237  0.1203  0.0665  0.2589
   61loPI   C4B  976  11.027   9.518   7.862 -0.0294 -0.0344  0.0281
   62loPI    C1  977   8.098  12.209  10.259 -0.1002 -0.1830  0.1064
   62loPI    C2  978   7.786  12.343  10.470  0.0346  0.0527  0.1589
   62loPI    C3  979   8.090  12.162  10.656  0.0083 -0.0235  0.1281
   62loPI   PO4  980   8.033  12.245  10.014  0.1867 -0.1394  0.2797
   62loPI   GL1  981   7.874  11.897   9.742  0.0616  0.0228 -0.0418
   62loPI   GL2  982   7.647  11.587   9.835  0.0419  0.2141  0.0668
   62loPI   C1A  983   8.136  12.024   9.345  0.3928 -0.0495  0.0757
   62loPI   C2A  984   8.382  12.146   8.971  0.0860  0.1459  0.0166
   62loPI   C3A  985   8.261  11.927   8.665  0.1579 -0.1251 -0.1402
   62loPI   C4A  986   8.213  11.913   8.196  0.0118 -0.3190  0.0690
   62loPI   C5A  987   7.907  11.953   7.791 -0.4249  0.0581  0.1402
   62loPI   C6A  988   7.461  12.094   7.817  0.1713 -0.3011  0.1061
   62loPI   C1B  989   7.737  11.688   9.321  0.1684  0.2298  0.0669
   62loPI   C2B  990   7.699  11.693   8.867  0.2786 -0.0741 -0.2074
   62loPI   C3B  991   7.801  11.650   8.358 -0.0990  0.1375 -0.2023
   62loPI   C4B  992   7.553  11.629   8.057  0.1582  0.3060  0.0362
   63loPI    C1  993  11.592   0.706  10.430  0.0575  0.1560  0.1641
   63loPI    C2  994  11.808   0.801  10.753 -0.0377  0.4484  0.1441
   63loPI    C3  995  11.436   0.944  10.711 -0.0594  0.3377 -0.0512
   63loPI   PO4  996  11.784   0.731  10.225 -0.1120  0.0607 -0.4160
   63loPI   GL1  997  11.891   0.843   9.910 -0.0888 -0.0645 -0.0586
   63loPI   GL2  998  11.775   0.609   9.723  0.0512  0.1265  0.0292
   63loPI   C1A  999  12.241   0.858   9.641  0.0947 -0.2150  0.2333
   63loPI   C2A 1000  12.291   0.883   9.172  0.1248 -0.0028 -0.1375
   63loPI   C3A 1001  12.126   0.851   8.736  0.2736  0.0864  0.1761
   63loPI   C4A 1002  12.154   0.819   8.314  0.2087  0.3526  0.2166
   63loPI   C5A 1003  12.343   0.527   7.985  0.1681 -0.1254  0.3587
   63loPI   C6A 1004  12.440   0.483   7.545  0.0279 -0.0091 -0.1978
   63loPI   C1B 1005  11.821   0.681   9.288  0.1373 -0.1460  0.0541
   63loPI   C2B 1006  11.697   0.682   8.913  0.2355  0.1401 -0.0555
   63loPI   C3B 1007  11.690   0.730   8.441 -0.0395  0.0721 -0.0954
   63loPI   C4B 1008  11.464   0.719   8.119  0.0796 -0.3224 -0.1866
   64loPI    C1 1009  10.942  17.286  10.450  0.2278 -0.2526  0.1048
   64loPI    C2 1010  11.264  17.523  10.462 -0.0540  0.1417  0.0899
   64loPI    C3 1011  11.057  17.449  10.797  0.0654 -0.1369  0.1054
   64loPI   PO4 1012  10.770  17.421  10.205 -0.0556  0.0512  0.1331
   64loPI   GL1 1013  10.644  17.061   9.903  0.1728 -0.2740  0.0862
   64loPI   GL2 1014  10.802  16.944  10.090 -0.3803 -0.2384 -0.2212
   64loPI   C1A 1015  10.723  17.337   9.505  0.1609 -0.1690 -0.1179
   64loPI   C2A 1016  10.671  17.416   9.040 -0.4801 -0.4239 -0.4477
   64loPI   C3A 1017  10.585  17.456   8.612 -0.0800 -0.2336  0.2247
   64loPI   C4A 1018  10.543  17.273   8.214 -0.2265  0.0853  0.1612
   64loPI   C5A 1019  10.451  17.066   7.905  0.1848  0.1275  0.3906
   64loPI   C6A 1020  10.256  16.600   7.959 -0.3268  0.3616 -0.3851
   64loPI   C1B 1021  11.155  16.871   9.657  0.1065 -0.1771 -0.0388
   64loPI   C2B 1022  11.210  16.780   9.364 -0.0948 -0.2570  0.0846
   64loPI   C3B 1023  11.127  16.831   8.821  0.2498 -0.1224 -0.0756
   64loPI   C4B 1024  10.703  16.903   8.590  0.0596  0.1560 -0.1851
   65loPI    C1 1025   4.520  10.688  10.281 -0.1748 -0.0269 -0.2302
   65loPI    C2 1026   4.331  10.336  10.281 -0.3318  0.0561 -0.1469
   65loPI    C3 1027   4.357  10.549  10.618 -0.0393  0.0208 -0.1440
   65loPI   PO4 1028   4.642  10.703  10.013 -0.0010  0.0743 -0.1465
   65loPI   GL1 1029   4.423  10.707   9.650 -0.1767 -0.1243  0.2145
   65loPI   GL2 1030   4.658  10.916   9.393  0.0494  0.0625 -0.3074
   65loPI   C1A 1031   4.205  10.726   9.260  0.1796  0.0524 -0.1387
   65loPI   C2A 1032   4.187  10.719   8.880 -0.0281 -0.1332  0.0716
   65loPI   C3A 1033   4.041  10.671   8.534  0.3351 -0.1200  0.2761
   65loPI   C4A 1034   4.237  10.498   8.180  0.0126 -0.0768 -0.1332
   65loPI   C5A 1035   4.096  10.166   7.954  0.1033  0.0755 -0.0154
   65loPI   C6A 1036   4.003   9.961   7.617 -0.1689 -0.0202  0.1742
   65loPI   C1B 1037   4.612  10.999   9.043 -0.0022 -0.2665  0.0964
   65loPI   C2B 1038   4.501  10.908   8.577 -0.2933  0.0466  0.1152
   65loPI   C3B 1039   4.351  10.979   8.098 -0.2029 -0.2692  0.0060
   65loPI   C4B 1040   4.381  10.892   7.659 -0.0610 -0.0324 -0.4688
   66loPI    C1 1041  17.539  13.972  10.805 -0.0306 -0.1945 -0.0780
   66loPI    C2 1042  17.861  14.064  11.025 -0.0183  0.0588 -0.1984
   66loPI    C3 1043  17.551  13.875  11.193  0.0750  0.0688 -0.0126
   66loPI   PO4 1044  17.638  13.907  10.586 -0.2307  0.2962 -0.1320
   66loPI   GL1 1045  17.512  14.032  10.120 -0.2755 -0.2005 -0.0472
   66loPI   GL2 1046  17.854  14.197  10.129  0.0191  0.4144 -0.1561
   66loPI   C1A 1047  17.663  13.813   9.812  0.0302  0.2151 -0.1380
   66loPI   C2A 1048  17.705  13.810   9.409  0.4172  0.1094 -0.0165
   66loPI   C3A 1049  17.900  13.702   9.048 -0.2201 -0.1768 -0.2553
   66loPI   C4A 1050  17.965  13.934   8.607 -0.2032 -0.0371 -0.1110
   66loPI   C5A 1051  17.865  14.057   8.326  0.1149  0.1250 -0.1868
   66loPI   C6A 1052  17.701  14.279   7.989  0.1245 -0.1002  0.1594
   66loPI   C1B 1053  17.781  14.292   9.704  0.1765  0.1873 -0.4809
   66loPI   C2B 1054  17.734  14.328   9.298  0.0564  0.2666 -0.2401
   66loPI   C3B 1055  17.595  14.139   8.914 -0.3782  0.3628  0.0885
   66loPI   C4B 1056  17.489  13.780   8.662 -0.1304  0.3275 -0.1760
   67loPI    C1 1057   5.842   3.785  10.585 -0.1849 -0.0140 -0.1466
   67loPI    C2 1058   5.853   3.386  10.621 -0.0865 -0.0002 -0.0150
   67loPI    C3 1059   6.080   3.615  10.858 -0.2661  0.1413  0.0229
   67loPI   PO4 1060   5.873   3.754  10.277 -0.2180  0.3084  0.3473
   67loPI   GL1 1061   5.668   3.714   9.881  0.1854 -0.0388 -0.2087
   67loPI   GL2 1062   5.755   3.907   9.715  0.3013 -0.1994 -0.2151
   67loPI   C1A 1063   5.473   3.441   9.584  0.2382 -0.0101  0.0374
   67loPI   C2A 1064   5.361   3.322   9.194  0.0070  0.1730 -0.2251
   67loPI   C3A 1065   5.486   3.354   8.845  0.2733 -0.2482 -0.1183
   67loPI   C4A 1066   5.547   3.375   8.365 -0.0233 -0.2602 -0.0243
   67loPI   C5A 1067   5.907   3.523   8.156  0.3868 -0.0132 -0.1628
   67loPI   C6A 1068   6.101   3.487   7.681  0.0172 -0.0251  0.0959
   67loPI   C1B 1069   5.802   3.707   9.218 -0.2724  0.0359 -0.0448
   67loPI   C2B 1070   5.779   3.687   8.734 -0.0480 -0.0495 -0.1922
   67loPI   C3B 1071   5.665   3.923   8.450  0.1551  0.1647  0.0084
   67loPI   C4B 1072   5.613   4.097   8.058  0.2631 -0.0211 -0.3020
   68loPI    C1 1073   4.836  10.148  10.243  0.0588 -0.0334  0.1841
   68loPI    C2 1074   4.547   9.881  10.170  0.3442 -0.2433 -0.2169
   68loPI    C3 1075   4.686   9.929  10.542 -0.1964 -0.1420 -0.0194
   68loPI   PO4 1076   4.962  10.099  10.020  0.3253 -0.1181 -0.1006
   68loPI   GL1 1077   5.003  10.063   9.636 -0.1910  0.2902  0.0272
   68loPI   GL2 1078   5.297   9.984   9.566  0.1675 -0.0291  0.4813
   68loPI   C1A 1079   5.085   9.770   9.207 -0.1537  0.4780  0.2108
   68loPI   C2A 1080   5.009   9.931   8.762 -0.0644  0.3310 -0.1036
   68loPI   C3A 1081   4.926  10.225   8.407 -0.0067 -0.2855 -0.1919
   68loPI   C4A 1082   5.011  10.331   8.015 -0.1018  0.1878  0.1552
   68loPI   C5A 1083   5.282  10.495   7.694 -0.2229  0.1956 -0.2004
   68loPI   C6A 1084   5.535  10.684   7.350 -0.1290 -0.1441 -0.2782
   68loPI   C1B 1085   5.085  10.255   9.147 -0.1086 -0.1877  0.0761
   68loPI   C2B 1086   5.313  10.438   8.781  0.0149  0.1134 -0.0494
   68loPI   C3B 1087   5.399  10.315   8.343 -0.1707  0.0949 -0.1785
   68loPI   C4B 1088   5.508  10.100   8.005  0.3139 -0.1832 -0.0335
   69loPI    C1 1089   9.507  15.720  10.506  0.0752  0.3284 -0.2765
   69loPI    C2 1090   9.689  15.377  10.600 -0.5170 -0.0242 -0.3600
   69loPI    C3 1091   9.539  15.609  10.889  0.0567  0.2779 -0.2896
   69loPI   PO4 1092   9.535  15.726  10.232  0.0308 -0.0232  0.0457
   69loPI   GL1 1093   9.731  15.825   9.911 -0.1254 -0.0373 -0.1335
   69loPI   GL2 1094  10.043  15.815   9.884 -0.1338  0.0839  0.0778
   69loPI   C1A 1095   9.721  15.585   9.545  0.0651  0.1636  0.0380
   69loPI   C2A 1096   9.866  15.590   9.174  0.0656 -0.0210 -0.0974
   69loPI   C3A 1097   9.886  16.029   8.902 -0.1885 -0.1315 -0.1258
   69loPI   C4A 1098  10.014  16.062   8.518 -0.0490  0.1468 -0.0864
   69loPI   C5A 1099  10.139  16.134   8.121  0.0053  0.1931 -0.0806
   69loPI   C6A 1100  10.327  15.933   7.730  0.1429  0.5174 -0.1194
   69loPI   C1B 1101  10.205  15.797   9.546  0.1036 -0.4275  0.0765
   69loPI   C2B 1102  10.216  16.102   9.351  0.0469  0.1855 -0.1413
   69loPI   C3B 1103  10.449  16.180   8.881 -0.2285  0.0205  0.0584
   69loPI   C4B 1104  10.584  16.025   8.609  0.0651  0.3233  0.1957
   70loPI    C1 1105  16.383  16.217  10.384 -0.3758  0.0671  0.0852
   70loPI    C2 1106  16.626  16.525  10.462 -0.2901  0.0617 -0.1500
   70loPI    C3 1107  16.414  16.358  10.757  0.2868 -0.1882  0.1395
   70loPI   PO4 1108  16.656  16.083  10.142  0.2983  0.3189  0.0201
   70loPI   GL1 1109  16.694  16.080   9.791  0.1169 -0.0122 -0.0283
   70loPI   GL2 1110  17.018  15.845   9.800 -0.0642  0.3701 -0.1177
   70loPI   C1A 1111  16.770  16.401   9.377 -0.1117 -0.1566 -0.1901
   70loPI   C2A 1112  16.777  16.363   8.953 -0.0055  0.1585 -0.0148
   70loPI   C3A 1113  16.942  16.186   8.596  0.0517 -0.2483  0.2145
   70loPI   C4A 1114  17.009  16.031   8.247  0.1805 -0.0465 -0.1794
   70loPI   C5A 1115  17.330  16.180   8.064  0.3518 -0.0153 -0.2145
   70loPI   C6A 1116  17.638  16.494   7.899  0.0420  0.0809 -0.0709
   70loPI   C1B 1117  16.877  15.858   9.421 -0.1026  0.1214 -0.1376
   70loPI   C2B 1118  16.761  15.834   8.852 -0.2875 -0.2569 -0.1097
   70loPI   C3B 1119  16.577  15.871   8.452  0.0156  0.0220  0.2362
   70loPI   C4B 1120  16.670  15.642   8.150 -0.0962  0.2098 -0.2149
   71loPI    C1 1121  13.337   9.947  10.413  0.1033  0.0474 -0.1370
   71loPI    C2 1122  13.102  10.159  10.658  0.0198  0.0993 -0.2609
   71loPI    C3 1123  13.452  10.017  10.790 -0.1890 -0.1881 -0.0002
   71loPI   PO4 1124  13.314  10.088  10.179 -0.1847 -0.0947 -0.1628
   71loPI   GL1 1125  13.269  10.194   9.752  0.2303 -0.0158  0.2166
   71loPI   GL2 1126  13.053  10.522   9.683 -0.0048 -0.0272  0.2182
   71loPI   C1A 1127  13.483  10.202   9.466  0.0131  0.0223  0.1187
   71loPI   C2A 1128  13.659   9.963   9.138 -0.3600  0.1373 -0.0984
   71loPI   C3A 1129  13.501   9.687   8.837  0.2627 -0.1368 -0.2623
   71loPI   C4A 1130  13.489   9.587   8.355 -0.4122 -0.0678 -0.0391
   71loPI   C5A 1131  13.717   9.164   8.123 -0.1117 -0.3364 -0.2124
   71loPI   C6A 1132  13.771   9.026   7.759  0.0916 -0.0058 -0.0065
   71loPI   C1B 1133  13.179  10.564   9.244  0.2141  0.2293  0.1764
   71loPI   C2B 1134  13.098  10.626   8.794 -0.1865 -0.2727 -0.0631
   71loPI   C3B 1135  12.950  10.560   8.375 -0.3756 -0.2318 -0.0087
   71loPI   C4B 1136  13.074  10.607   7.968 -0.1606  0.0751 -0.0860
   72loPI    C1 1137   4.362   6.778  10.001  0.0669 -0.1358  0.2058
   72loPI    C2 1138   4.176   7.132  10.004  0.2334 -0.0460  0.1060
   72loPI    C3 1139   4.325   6.982  10.343  0.3807  0.0972  0.1056
   72loPI   PO4 1140   4.608   6.788   9.800  0.2710 -0.3572 -0.5719
   72loPI   GL1 1141   4.710   6.528   9.501  0.3159  0.0933  0.1881
   72loPI   GL2 1142   4.818   6.282   9.592 -0.0099 -0.2160  0.4734
   72loPI   C1A 1143   4.492   6.839   9.195  0.3729 -0.1807  0.0573
   72loPI   C2A 1144   4.332   6.944   8.838  0.0963 -0.3948 -0.0131
   72loPI   C3A 1145   4.179   7.012   8.432 -0.3896  0.0211  0.0500
   72loPI   C4A 1146   4.406   7.164   8.105  0.1491  0.0633  0.0018
   72loPI   C5A 1147   4.198   7.219   7.639  0.3466  0.2178  0.1774
   72loPI   C6A 1148   4.468   6.968   7.327  0.0863  0.0890 -0.0091
   72loPI   C1B 1149   5.034   5.957   9.247  0.1072  0.3022  0.1726
   72loPI   C2B 1150   4.959   5.887   8.920 -0.1217  0.1002  0.1522
   72loPI   C3B 1151   5.046   5.808   8.476 -0.0727  0.2804  0.0877
   72loPI   C4B 1152   5.250   5.821   8.051  0.2816  0.1521  0.1526
   73loPI    C1 1153  11.486  12.652  10.167  0.3085  0.2319  0.0108
   73loPI    C2 1154  11.423  12.733  10.554 -0.0314 -0.3663  0.0925
   73loPI    C3 1155  11.744  12.521  10.444  0.0509 -0.2193  0.0459
   73loPI   PO4 1156  11.292  12.534  10.085 -0.2194 -0.2658 -0.0063
   73loPI   GL1 1157  10.980  12.617   9.758  0.1964 -0.0519  0.0324
   73loPI   GL2 1158  10.626  12.752   9.869 -0.1888 -0.2906 -0.2310
   73loPI   C1A 1159  11.013  12.855   9.422  0.4028  0.1199  0.1009
   73loPI   C2A 1160  11.050  12.967   9.044 -0.3100  0.1373  0.0085
   73loPI   C3A 1161  11.147  12.969   8.715  0.0531 -0.1134  0.2747
   73loPI   C4A 1162  11.123  12.961   8.328  0.4620  0.1304  0.1887
   73loPI   C5A 1163  10.973  13.063   7.963  0.1016  0.0180  0.2350
   73loPI   C6A 1164  10.723  13.284   7.786  0.1572  0.0052  0.1139
   73loPI   C1B 1165  10.473  12.850   9.418  0.1480  0.1782 -0.3542
   73loPI   C2B 1166  10.594  12.851   8.994  0.2459  0.0519  0.0919
   73loPI   C3B 1167  10.688  13.143   8.669 -0.4246 -0.0830  0.0614
   73loPI   C4B 1168  10.712  13.292   8.305 -0.0425  0.1934 -0.1498
   74loPI    C1 1169  17.837   9.527  10.798 -0.0922 -0.1755 -0.0222
   74loPI    C2 1170  17.944   9.899  10.697 -0.4285 -0.0791 -0.0347
   74loPI    C3 1171  18.223   9.614  10.735 -0.1356  0.2350  0.2402
   74loPI   PO4 1172  17.598   9.547  10.646  0.1313  0.2557 -0.3236
   74loPI   GL1 1173  17.438   9.625  10.335 -0.0475  0.0336  0.0193
   74loPI   GL2 1174  17.532   9.943  10.325 -0.2861  0.0382 -0.2046
   74loPI   C1A 1175  17.268   9.514   9.927 -0.1885 -0.0119  0.1638
   74loPI   C2A 1176  17.206   9.654   9.491 -0.0837 -0.4017 -0.1206
   74loPI   C3A 1177  17.249   9.844   9.084  0.2177  0.1511 -0.0703
   74loPI   C4A 1178  17.483   9.970   8.727 -0.0637  0.0900 -0.1371
   74loPI   C5A 1179  17.772  10.181   8.582 -0.1779 -0.1159 -0.1650
   74loPI   C6A 1180  18.112  10.365   8.304 -0.1576  0.1429 -0.0513
   74loPI   C1B 1181  17.593   9.959   9.982 -0.2821  0.1679 -0.0646
   74loPI   C2B 1182  17.591   9.904   9.559  0.1896 -0.0434 -0.3212
   74loPI   C3B 1183  17.666  10.058   9.158 -0.2523  0.2375 -0.2085
   74loPI   C4B 1184  17.488  10.465   8.911 -0.1046  0.2234 -0.2737
   75loPI    C1 1185  12.937   9.239   9.964 -0.0392  0.1770 -0.0366
   75loPI    C2 1186  12.603   9.247  10.184  0.0085  0.0618  0.0409
   75loPI    C3 1187  12.960   9.286  10.361  0.0339  0.2534 -0.0499
   75loPI   PO4 1188  12.788   9.339   9.694  0.0864  0.0544  0.2023
   75loPI   GL1 1189  12.537   9.117   9.424  0.0469  0.2437  0.0759
   75loPI   GL2 1190  12.328   8.807   9.418  0.0268  0.3061  0.0259
   75loPI   C1A 1191  12.601   9.245   9.002  0.1033  0.3197  0.1940
   75loPI   C2A 1192  12.646   9.125   8.544  0.1683  0.1883  0.2667
   75loPI   C3A 1193  12.611   9.005   8.213  0.0137  0.3580  0.1554
   75loPI   C4A 1194  12.650   9.248   7.851  0.0575  0.1019 -0.3143
   75loPI   C5A 1195  12.779   9.702   7.715  0.0455  0.1012 -0.1265
   75loPI   C6A 1196  12.672   9.970   7.469 -0.0671  0.0181  0.0361
   75loPI   C1B 1197  12.347   8.841   8.939  0.2795  0.0198 -0.2696
   75loPI   C2B 1198  12.288   8.740   8.530 -0.3877 -0.1338 -0.2172
   75loPI   C3B 1199  12.403   8.481   8.128 -0.3167  0.1944 -0.0568
   75loPI   C4B 1200  12.694   8.159   8.016 -0.0040  0.0043  0.0990
   76loPI    C1 1201  12.065  18.470  10.478  0.0433  0.2089 -0.1364
   76loPI    C2 1202  12.062  18.122  10.280  0.0551  0.1641 -0.0582
   76loPI    C3 1203  12.187  18.135  10.660  0.0071  0.2450 -0.0451
   76loPI   PO4 1204  12.139  18.578  10.266 -0.2953 -0.0859  0.0477
   76loPI   GL1 1205  12.029  18.609   9.785 -0.0568  0.0434  0.0153
   76loPI   GL2 1206  11.804  18.328   9.648  0.0101  0.0180  0.0043
   76loPI   C1A 1207  11.786  18.797   9.410 -0.0132  0.1504 -0.2886
   76loPI   C2A 1208  11.539  18.845   9.020  0.1443 -0.0292 -0.3094
   76loPI   C3A 1209  11.404  18.918   8.663 -0.2893  0.0946 -0.0507
   76loPI   C4A 1210  11.381  18.777   8.245  0.5602  0.2130 -0.0714
   76loPI   C5A 1211  11.366  18.937   7.862  0.3428 -0.0226  0.1179
   76loPI   C6A 1212  11.448  18.770   7.487 -0.1231  0.0200 -0.1845
   76loPI   C1B 1213  11.634  18.122   9.271  0.2904 -0.1500  0.3825
   76loPI   C2B 1214  11.553  17.968   8.838  0.2031  0.1234  0.0949
   76loPI   C3B 1215  11.525  17.985   8.382 -0.3628 -0.5044  0.0322
   76loPI   C4B 1216  11.608  18.301   8.043  0.1011 -0.4217  0.1208
   77loPI    C1 1217   4.176   6.418  10.358  0.1420 -0.1317  0.1204
   77loPI    C2 1218   4.175   6.339  10.750  0.4034 -0.0224  0.1454
   77loPI    C3 1219   4.039   6.691  10.617  0.1054 -0.1459  0.1160
   77loPI   PO4 1220   4.114   6.182  10.080  0.4409 -0.0285 -0.0127
   77loPI   GL1 1221   3.980   6.362   9.629  0.2898 -0.0138 -0.2388
   77loPI   GL2 1222   4.204   6.518   9.636 -0.3998 -0.1228  0.2912
   77loPI   C1A 1223   3.832   6.092   9.454 -0.4669 -0.2166 -0.1127
   77loPI   C2A 1224   3.874   6.065   9.048  0.0018  0.1408 -0.0141
   77loPI   C3A 1225   3.903   6.030   8.612  0.1867  0.0557 -0.3798
   77loPI   C4A 1226   3.901   6.113   8.127 -0.1997 -0.0170 -0.0413
   77loPI   C5A 1227   3.933   5.870   7.705 -0.1472 -0.1016 -0.2443
   77loPI   C6A 1228   3.922   6.059   7.419  0.1987  0.2927  0.0604
   77loPI   C1B 1229   4.045   6.580   9.139  0.0883 -0.1595 -0.2302
   77loPI   C2B 1230   4.094   6.515   8.686 -0.1660 -0.4183  0.1648
   77loPI   C3B 1231   3.983   6.608   8.219 -0.0172 -0.0838 -0.2316
   77loPI   C4B 1232   3.866   6.816   7.825  0.0217 -0.0219 -0.0117
   78loPI    C1 1233   3.264   9.557  10.252  0.4422  0.1486  0.1801
   78loPI    C2 1234   3.039   9.396  10.541 -0.1240  0.1951 -0.2175
   78loPI    C3 1235   3.346   9.190  10.389  0.0247  0.0704  0.2356
   78loPI   PO4 1236   3.033   9.639  10.087 -0.0604 -0.0807  0.0626
   78loPI   GL1 1237   2.902   9.691   9.748  0.1441  0.0299  0.0599
   78loPI   GL2 1238   2.653   9.976   9.763 -0.3606  0.0598  0.0335
   78loPI   C1A 1239   2.912   9.737   9.340 -0.0977 -0.2293 -0.0236
   78loPI   C2A 1240   2.834  10.062   8.901  0.2096  0.3240  0.1898
   78loPI   C3A 1241   2.834  10.286   8.468 -0.2662 -0.1114 -0.1329
   78loPI   C4A 1242   2.777  10.221   8.098 -0.0117 -0.1987  0.2371
   78loPI   C5A 1243   2.800  10.055   7.674 -0.0767 -0.0698 -0.3779
   78loPI   C6A 1244   2.772  10.158   7.289 -0.0987  0.1020  0.1152
   78loPI   C1B 1245   2.778  10.282   9.346  0.0319  0.0370 -0.3030
   78loPI   C2B 1246   2.772  10.490   9.079  0.0165 -0.0444  0.0063
   78loPI   C3B 1247   2.929  10.726   8.722 -0.0253  0.1112 -0.1570
   78loPI   C4B 1248   2.757  10.857   8.327  0.0057  0.1158 -0.0549
   79loPI    C1 1249  13.347  18.573  10.357  0.0252  0.1946 -0.0517
   79loPI    C2 1250  13.408  18.306  10.648 -0.0760 -0.0426 -0.2455
   79loPI    C3 1251  13.456  18.696  10.722  0.2952 -0.1261 -0.0197
   79loPI   PO4 1252  12.996  18.608  10.250 -0.1602  0.0444 -0.0835
   79loPI   GL1 1253  12.806  18.808   9.893 -0.4580 -0.0385  0.1116
   79loPI   GL2 1254  12.562  18.770   9.828  0.0647  0.2211 -0.2634
   79loPI   C1A 1255  12.909  18.734   9.463 -0.1996 -0.1317 -0.0603
   79loPI   C2A 1256  12.705  18.656   9.128 -0.0344  0.1149  0.0367
   79loPI   C3A 1257  12.606  18.728   8.662 -0.1547 -0.1995 -0.0117
   79loPI   C4A 1258  12.838  18.478   8.377  0.3685 -0.0175  0.2748
   79loPI   C5A 1259  12.828  18.118   8.107 -0.2795 -0.0655 -0.3854
   79loPI   C6A 1260  12.420  17.954   7.924 -0.0119  0.2156  0.1875
   79loPI   C1B 1261  12.438  18.473   9.460 -0.1249  0.0241 -0.1023
   79loPI   C2B 1262  12.078  18.434   9.230 -0.0130 -0.2052  0.0750
   79loPI   C3B 1263  11.803  18.411   8.884 -0.1819 -0.0828  0.1158
   79loPI   C4B 1264  11.721  18.425   8.509  0.0333  0.1303 -0.2281
   80loPI    C1 1265   9.005   0.260  10.620 -0.2342  0.0729  0.1204
   80loPI    C2 1266   9.080   0.570  10.862 -0.0263 -0.0998  0.2821
   80loPI    C3 1267   9.105   0.196  11.002 -0.1522 -0.1955  0.0564
   80loPI   PO4 1268   8.854   0.310  10.440  0.2001 -0.2712 -0.2615
   80loPI   GL1 1269   8.901  -0.028  10.105 -0.1529  0.1050  0.0339
   80loPI   GL2 1270   9.227  -0.159   9.948 -0.0446  0.2161 -0.0905
   80loPI   C1A 1271   8.912   0.026   9.554  0.0881 -0.0710 -0.0876
   80loPI   C2A 1272   8.794   0.034   9.139  0.1922  0.4254 -0.0385
   80loPI   C3A 1273   9.067   0.286   8.917 -0.2685  0.0222 -0.0031
   80loPI   C4A 1274   9.095   0.356   8.459  0.2830  0.1672  0.0419
   80loPI   C5A 1275   8.918   0.217   8.090 -0.1702  0.1101 -0.2476
   80loPI   C6A 1276   8.791   0.317   7.621 -0.0910  0.1950  0.0567
   80loPI   C1B 1277   9.470  -0.062   9.597  0.1499 -0.1078  0.0241
   80loPI   C2B 1278   9.485   0.080   9.179 -0.1094 -0.2161  0.0780
   80loPI   C3B 1279   9.657  -0.196   8.946 -0.0870 -0.0753 -0.0541
   80loPI   C4B 1280   9.723  -0.319   8.464  0.1738 -0.1811 -0.0138
   81loPI    C1 1281  10.273   1.949  10.515  0.0445 -0.0971 -0.1131
   81loPI    C2 1282  10.663   1.940  10.603 -0.0204  0.0532  0.2043
   81loPI    C3 1283  10.423   1.643  10.725 -0.0166 -0.0117  0.0565
   81loPI   PO4 1284  10.246   1.997  10.346 -0.1248  0.2258 -0.1052
   81loPI   GL1 1285  10.230   2.110   9.978 -0.2335  0.0590 -0.2955
   81loPI   GL2 1286  10.517   1.981   9.846 -0.1162 -0.1377 -0.0665
   81loPI   C1A 1287  10.163   2.304   9.616 -0.1326  0.2889 -0.0334
   81loPI   C2A 1288  10.351   2.386   9.194 -0.3501  0.1331 -0.0369
   81loPI   C3A 1289  10.598   2.163   8.825  0.0717 -0.0387 -0.0359
   81loPI   C4A 1290  10.516   2.155   8.447 -0.1200  0.0336  0.0566
   81loPI   C5A 1291  10.457   2.325   8.054  0.0513 -0.1749 -0.0967
   81loPI   C6A 1292  10.337   2.245   7.692  0.0879 -0.0545 -0.3074
   81loPI   C1B 1293  10.509   1.823   9.426  0.2312  0.2097  0.1854
   81loPI   C2B 1294  10.563   1.719   8.989  0.0608  0.1307 -0.0938
   81loPI   C3B 1295  10.513   1.695   8.597  0.1032  0.0177  0.1596
   81loPI   C4B 1296  10.356   1.731   8.274  0.0019  0.4286  0.2416
   82loPI    C1 1297  11.799  17.044  10.374  0.1676 -0.2698 -0.0441
   82loPI    C2 1298  11.853  16.979  10.765  0.0819 -0.0849 -0.0004
   82loPI    C3 1299  12.168  16.991  10.519  0.1525 -0.0170  0.0926
   82loPI   PO4 1300  11.720  17.323  10.355 -0.4249  0.0230  0.3404
   82loPI   GL1 1301  11.550  17.495  10.037  0.0122  0.2878  0.2608
   82loPI   GL2 1302  11.215  17.384   9.953 -0.1048  0.1758 -0.0839
   82loPI   C1A 1303  11.653  17.144   9.769 -0.0265  0.3777  0.3102
   82loPI   C2A 1304  11.716  17.082   9.231  0.3013  0.0245  0.1590
   82loPI   C3A 1305  11.667  17.042   8.807  0.3065 -0.1477 -0.1511
   82loPI   C4A 1306  11.906  17.176   8.424 -0.1043  0.1073  0.0304
   82loPI   C5A 1307  12.227  17.482   8.228  0.1481  0.0040  0.0432
   82loPI   C6A 1308  12.573  17.677   8.337  0.0379  0.0830  0.1594
   82loPI   C1B 1309  11.257  17.298   9.462 -0.0458  0.3627 -0.1484
   82loPI   C2B 1310  11.137  17.244   9.066 -0.2800 -0.1958  0.1086
   82loPI   C3B 1311  11.109  17.267   8.617  0.1673 -0.1246 -0.2824
   82loPI   C4B 1312  11.021  17.228   8.251 -0.1359 -0.2398  0.0931
   83loPI    C1 1313   7.308  10.958  10.406  0.2088 -0.1458  0.0481
   83loPI    C2 1314   7.399  10.965  10.795  0.1002 -0.1199  0.0734
   83loPI    C3 1315   7.086  11.174  10.659  0.1433 -0.1216 -0.0294
   83loPI   PO4 1316   7.426  11.017  10.265  0.0593  0.1189  0.0403
   83loPI   GL1 1317   7.331  11.178   9.888  0.0825 -0.1164  0.2224
   83loPI   GL2 1318   7.071  10.948   9.776 -0.0544  0.0956 -0.1305
   83loPI   C1A 1319   7.305  11.391   9.511 -0.1286  0.0957 -0.0090
   83loPI   C2A 1320   7.299  11.434   9.166  0.0786  0.0318  0.1299
   83loPI   C3A 1321   7.143  11.682   8.878  0.1563 -0.0614 -0.1093
   83loPI   C4A 1322   6.825  11.805   8.640  0.2327 -0.1783  0.0011
   83loPI   C5A 1323   6.469  12.071   8.683  0.0319  0.2556 -0.2349
   83loPI   C6A 1324   6.200  12.296   8.664 -0.0337  0.1837  0.0007
   83loPI   C1B 1325   6.965  11.038   9.480  0.2028  0.0133  0.2975
   83loPI   C2B 1326   6.620  11.035   9.227  0.2445  0.1051  0.2145
   83loPI   C3B 1327   6.255  11.061   8.964  0.0023 -0.0477  0.1446
   83loPI   C4B 1328   5.867  11.160   8.771  0.2832  0.2192 -0.0580
   84loPI    C1 1329   2.566  13.832  10.421 -0.1666 -0.3102 -0.2218
   84loPI    C2 1330   2.947  13.720  10.374 -0.0506  0.0019 -0.0517
   84loPI    C3 1331   2.700  13.499  10.596 -0.0055 -0.2699 -0.2667
   84loPI   PO4 1332   2.492  13.874  10.107  0.0755 -0.1739  0.0602
   84loPI   GL1 1333   2.618  13.687   9.702 -0.2069  0.3158 -0.2383
   84loPI   GL2 1334   2.916  13.805   9.719  0.2402  0.3052  0.0476
   84loPI   C1A 1335   2.625  13.831   9.311 -0.0847  0.0436 -0.0256
   84loPI   C2A 1336   2.689  14.130   8.874  0.0719 -0.2901  0.1717
   84loPI   C3A 1337   2.892  14.132   8.515  0.0961 -0.0779  0.2063
   84loPI   C4A 1338   3.207  13.917   8.240 -0.0660  0.2796  0.1535
   84loPI   C5A 1339   3.322  13.597   7.971  0.1575 -0.0697  0.1295
   84loPI   C6A 1340   3.740  13.488   7.601 -0.1335  0.2690 -0.3478
   84loPI   C1B 1341   3.044  13.481   9.434 -0.0888  0.2221  0.4169
   84loPI   C2B 1342   2.945  13.517   8.999 -0.1595 -0.4307  0.0459
   84loPI   C3B 1343   2.877  13.656   8.520  0.0610 -0.2962 -0.3259
   84loPI   C4B 1344   2.758  13.508   8.088  0.2397 -0.0381  0.0634
   85loPI    C1 1345   4.026  10.722  10.239  0.2050 -0.4180 -0.0539
   85loPI    C2 1346   3.627  10.701  10.233  0.1777  0.0488 -0.3120
   85loPI    C3 1347   3.826  10.624  10.571 -0.1360 -0.0852 -0.1544
   85loPI   PO4 1348   4.028  10.718   9.949  0.0484  0.1310  0.0084
   85loPI   GL1 1349   4.021  10.329   9.701  0.0032 -0.3170  0.1355
   85loPI   GL2 1350   3.804  10.056   9.545 -0.1308 -0.1447 -0.1954
   85loPI   C1A 1351   3.745  10.500   9.337 -0.2691 -0.2850 -0.2430
   85loPI   C2A 1352   3.683  10.861   9.019 -0.2424 -0.2403  0.1296
   85loPI   C3A 1353   3.669  10.996   8.682 -0.1794 -0.0249 -0.1757
   85loPI   C4A 1354   3.666  10.934   8.243 -0.0246 -0.1075 -0.1266
   85loPI   C5A 1355   3.925  11.043   7.878 -0.4661 -0.2970  0.0960
   85loPI   C6A 1356   3.864  10.953   7.561 -0.1907  0.4563 -0.0132
   85loPI   C1B 1357   3.565   9.914   9.203  0.0471  0.0719 -0.0768
   85loPI   C2B 1358   3.606   9.752   8.822  0.2420  0.1037  0.0700
   85loPI   C3B 1359   3.614   9.791   8.433 -0.1843 -0.0352  0.0965
   85loPI   C4B 1360   3.687   9.878   8.068  0.0028 -0.0887 -0.2024
   86loPI    C1 1361   1.853  11.846  10.575  0.0189 -0.1985  0.0337
   86loPI    C2 1362   2.129  11.919  10.295  0.0536 -0.1128  0.0897
   86loPI    C3 1363   2.186  11.626  10.561  0.2804  0.1645  0.3527
   86loPI   PO4 1364   1.637  11.901  10.515 -0.1711  0.0255  0.3503
   86loPI   GL1 1365   1.574  11.921  10.009 -0.1071  0.1409  0.0033
   86loPI   GL2 1366   1.376  11.825   9.877  0.1550 -0.0075 -0.1149
   86loPI   C1A 1367   1.707  11.922   9.466 -0.2109  0.1261  0.0740
   86loPI   C2A 1368   1.452  11.925   9.139 -0.2017  0.1280 -0.0069
   86loPI   C3A 1369   1.489  12.038   8.754 -0.0245 -0.0343 -0.0338
   86loPI   C4A 1370   1.308  12.085   8.378  0.1610 -0.1220  0.0244
   86loPI   C5A 1371   1.010  11.919   8.283  0.2477 -0.3191 -0.0966
   86loPI   C6A 1372   0.642  11.836   8.099  0.0429  0.0440  0.2224
   86loPI   C1B 1373   1.224  11.701   9.549  0.1502  0.1554 -0.3273
   86loPI   C2B 1374   0.855  11.729   9.349  0.1322  0.3090 -0.0040
   86loPI   C3B 1375   0.653  11.867   8.997 -0.0337 -0.1169  0.1701
   86loPI   C4B 1376   0.273  11.989   8.775  0.2470 -0.2983 -0.2148
   87loPI    C1 1377   8.009  15.418  10.627  0.0686 -0.2860  0.1034
   87loPI    C2 1378   7.872  15.590  10.962  0.0943 -0.1632  0.0516
   87loPI    C3 1379   7.718  15.242  10.837  0.0800 -0.2059  0.1870
   87loPI   PO4 1380   7.931  15.772  10.419  0.3226 -0.4114  0.1249
   87loPI   GL1 1381   7.713  15.820  10.100 -0.1502 -0.2647 -0.3546
   87loPI   GL2 1382   8.115  15.865   9.869 -0.0537  0.0823 -0.0749
   87loPI   C1A 1383   7.695  16.118   9.718 -0.2399 -0.0432 -0.0483
   87loPI   C2A 1384   7.574  16.539   9.409  0.2034  0.1550  0.0748
   87loPI   C3A 1385   7.598  16.607   8.944 -0.1023 -0.0309 -0.2368
   87loPI   C4A 1386   7.506  16.638   8.519 -0.0393  0.1659 -0.1901
   87loPI   C5A 1387   7.800  16.774   8.251  0.1789  0.2466 -0.2001
   87loPI   C6A 1388   8.078  16.837   7.950  0.0254 -0.1974  0.0078
   87loPI   C1B 1389   8.162  15.920   9.473  0.0483 -0.1127 -0.2308
   87loPI   C2B 1390   7.840  16.085   9.259  0.1032  0.0696 -0.2692
   87loPI   C3B 1391   7.677  16.092   8.799 -0.1887 -0.4138 -0.0605
   87loPI   C4B 1392   7.667  16.197   8.392  0.1578  0.0960 -0.1590
   88loPI    C1 1393   6.583  18.289  10.638  0.0696 -0.1698  0.0926
   88loPI    C2 1394   6.368  18.366  10.966 -0.1026 -0.2452 -0.0012
   88loPI    C3 1395   6.727  18.192  10.998  0.0605  0.1127  0.1748
   88loPI   PO4 1396   6.444  18.173  10.515  0.2071 -0.1424  0.1099
   88loPI   GL1 1397   6.654  17.957  10.216  0.1523 -0.0241  0.0052
   88loPI   GL2 1398   6.745  17.617  10.321 -0.0609 -0.0225 -0.0957
   88loPI   C1A 1399   6.587  18.132   9.815  0.2371  0.0759 -0.2199
   88loPI   C2A 1400   6.549  17.965   9.498 -0.1197 -0.1290 -0.3710
   88loPI   C3A 1401   6.443  17.792   9.062  0.1694 -0.0665  0.0903
   88loPI   C4A 1402   6.373  17.864   8.605 -0.2164  0.1215 -0.0488
   88loPI   C5A 1403   6.736  18.031   8.463  0.1084 -0.0166  0.0925
   88loPI   C6A 1404   6.904  18.187   8.074 -0.1381 -0.2932 -0.0642
   88loPI   C1B 1405   6.796  17.547   9.860 -0.1413 -0.2394 -0.2026
   88loPI   C2B 1406   6.595  17.469   9.532 -0.0002 -0.0794  0.0662
   88loPI   C3B 1407   6.497  17.271   9.121  0.2093 -0.0491 -0.0904
   88loPI   C4B 1408   6.315  17.336   8.742 -0.0081  0.2447  0.0513
   89loPI    C1 1409  11.724   5.354  10.539  0.3481 -0.2888  0.1093
   89loPI    C2 1410  11.498   5.438  10.858  0.0065  0.1223 -0.2291
   89loPI    C3 1411  11.525   5.062  10.726 -0.0766 -0.0067  0.1115
   89loPI   PO4 1412  11.639   5.556  10.301 -0.1056  0.1635  0.1558
   89loPI   GL1 1413  11.415   5.300  10.016 -0.0450 -0.1905  0.0707
   89loPI   GL2 1414  11.458   4.968   9.977  0.2313  0.4463 -0.0560
   89loPI   C1A 1415  11.390   5.293   9.601  0.0367 -0.3406 -0.3996
   89loPI   C2A 1416  11.225   5.245   9.203  0.1340 -0.0228 -0.2261
   89loPI   C3A 1417  11.318   5.334   8.778 -0.1762 -0.1406  0.1108
   89loPI   C4A 1418  11.271   5.346   8.332  0.1487 -0.0859  0.3101
   89loPI   C5A 1419  11.481   5.361   7.854  0.1882 -0.1040  0.0134
   89loPI   C6A 1420  11.803   5.139   7.684  0.2748 -0.0623  0.1754
   89loPI   C1B 1421  11.449   4.824   9.635  0.0188 -0.1192 -0.2165
   89loPI   C2B 1422  11.270   4.692   9.296  0.3013  0.0825  0.0291
   89loPI   C3B 1423  11.265   4.725   8.871  0.1746 -0.0278  0.1754
   89loPI   C4B 1424  11.159   4.641   8.493  0.0746  0.0515 -0.2038
   90loPI    C1 1425   9.795   9.374  10.306 -0.0217  0.0912 -0.0144
   90loPI    C2 1426   9.580   9.259  10.623 -0.1033 -0.3684 -0.2283
   90loPI    C3 1427   9.400   9.434  10.312 -0.0410 -0.0258 -0.0752
   90loPI   PO4 1428   9.920   9.195  10.141 -0.0375  0.2741  0.2166
   90loPI   GL1 1429   9.962   8.967   9.741 -0.0032 -0.2156 -0.0529
   90loPI   GL2 1430   9.597   8.937   9.461 -0.0025 -0.1917 -0.3234
   90loPI   C1A 1431   9.975   9.179   9.311 -0.0999  0.0253  0.4823
   90loPI   C2A 1432  10.289   9.301   9.096  0.1735 -0.0128  0.2351
   90loPI   C3A 1433  10.392   9.579   8.900 -0.2302 -0.0054 -0.1084
   90loPI   C4A 1434  10.432   9.901   8.559 -0.0967  0.2785 -0.0683
   90loPI   C5A 1435  10.597  10.046   8.186 -0.1388 -0.3479 -0.0258
   90loPI   C6A 1436  10.545  10.291   7.863  0.1419  0.1950 -0.1975
   90loPI   C1B 1437   9.645   8.910   9.024 -0.1706 -0.0522  0.0056
   90loPI   C2B 1438   9.893   9.177   8.777 -0.1136  0.0520 -0.1402
   90loPI   C3B 1439  10.026   9.498   8.510  0.1415 -0.1762  0.0636
   90loPI   C4B 1440  10.358   9.443   8.312 -0.0401  0.0438 -0.1380
   91loPI    C1 1441   5.707   7.352  10.126 -0.0484  0.1721 -0.1340
   91loPI    C2 1442   5.963   7.130   9.913 -0.1111  0.1088 -0.1439
   91loPI    C3 1443   6.009   7.164  10.309 -0.0268  0.1820 -0.1594
   91loPI   PO4 1444   5.744   7.580   9.926 -0.0408  0.2434  0.0590
   91loPI   GL1 1445   5.644   7.870   9.645  0.2818  0.0241  0.2794
   91loPI   GL2 1446   5.337   7.871   9.493 -0.1018  0.1445  0.2204
   91loPI   C1A 1447   5.915   8.002   9.236  0.0352 -0.1684  0.0933
   91loPI   C2A 1448   6.001   7.917   8.765 -0.0199 -0.1543 -0.0786
   91loPI   C3A 1449   5.799   7.999   8.408 -0.2029  0.0439 -0.4374
   91loPI   C4A 1450   5.834   8.014   7.967  0.1034  0.0360 -0.0956
   91loPI   C5A 1451   6.071   8.217   7.571 -0.1233  0.2164  0.0240
   91loPI   C6A 1452   5.909   8.373   7.209 -0.0123 -0.2301  0.1348
   91loPI   C1B 1453   5.251   7.942   9.144 -0.1324  0.0833  0.5307
   91loPI   C2B 1454   5.249   7.954   8.751  0.1246  0.1966  0.0434
   91loPI   C3B 1455   5.336   8.065   8.446 -0.0402 -0.0176 -0.2437
   91loPI   C4B 1456   5.313   8.034   8.003 -0.1820 -0.0139 -0.2270
   92loPI    C1 1457   0.195   9.057  10.318 -0.1191 -0.2482 -0.1357
   92loPI    C2 1458   0.101   9.270  10.644  0.2135  0.0188 -0.2086
   92loPI    C3 1459   0.110   8.870  10.662 -0.0585  0.0200  0.0284
   92loPI   PO4 1460   0.490   9.083  10.225 -0.1796 -0.1071 -0.1705
   92loPI   GL1 1461   0.639   9.207   9.857 -0.3352  0.2559 -0.3733
   92loPI   GL2 1462   0.640   9.603   9.829 -0.1720  0.0898  0.1550
   92loPI   C1A 1463   0.477   9.145   9.480  0.4750 -0.0415  0.0554
   92loPI   C2A 1464   0.268   9.307   9.129 -0.2660  0.0923 -0.1810
   92loPI   C3A 1465  -0.091   9.310   8.845 -0.0267  0.0564  0.1935
   92loPI   C4A 1466  -0.201   9.459   8.563 -0.2948 -0.0195  0.0922
   92loPI   C5A 1467  -0.283   9.348   8.141  0.1367  0.1278  0.2441
   92loPI   C6A 1468  -0.095   9.028   7.882  0.3188 -0.2221 -0.0464
   92loPI   C1B 1469   0.562   9.708   9.374  0.0511  0.1984 -0.0802
   92loPI   C2B 1470   0.574   9.783   8.935 -0.1787 -0.1416 -0.2446
   92loPI   C3B 1471   0.716  10.046   8.681  0.0449 -0.1408 -0.0429
   92loPI   C4B 1472   0.830  10.250   8.365  0.0296 -0.0338 -0.2007
   93loPI    C1 1473  11.866  10.501  10.443 -0.1625  0.0672  0.1807
   93loPI    C2 1474  11.967  10.119  10.501 -0.1225  0.0645  0.0948
   93loPI    C3 1475  11.740  10.309  10.771  0.0353  0.0435  0.2440
   93loPI   PO4 1476  11.917  10.437  10.128 -0.1155 -0.1369  0.1416
   93loPI   GL1 1477  12.005   9.968   9.925  0.1637 -0.3202  0.2305
   93loPI   GL2 1478  11.925  10.313   9.672 -0.2307 -0.1216  0.0060
   93loPI   C1A 1479  11.935   9.858   9.493 -0.0189 -0.4315 -0.0495
   93loPI   C2A 1480  12.040   9.865   9.047  0.4688 -0.0106  0.1918
   93loPI   C3A 1481  12.241   9.728   8.630 -0.3579  0.2276  0.2501
   93loPI   C4A 1482  12.566   9.625   8.435 -0.0107 -0.1032 -0.0232
   93loPI   C5A 1483  12.867   9.578   8.190 -0.0253  0.1494 -0.0361
   93loPI   C6A 1484  13.198   9.965   8.206  0.1334  0.0137 -0.0897
   93loPI   C1B 1485  11.946  10.310   9.221 -0.0698  0.3002 -0.0048
   93loPI   C2B 1486  12.057  10.403   8.759 -0.1765  0.0783 -0.0062
   93loPI   C3B 1487  12.239  10.186   8.383 -0.0486  0.1101 -0.1155
   93loPI   C4B 1488  12.278   9.828   8.099 -0.1623 -0.1682  0.2042
   94loPI    C1 1489   2.947  14.980  10.417  0.0274 -0.0927  0.1186
   94loPI    C2 1490   2.598  14.889  10.590 -0.0116 -0.2099 -0.0200
   94loPI    C3 1491   2.940  14.848  10.794 -0.0746 -0.1351  0.1019
   94loPI   PO4 1492   2.898  14.924  10.159  0.0152 -0.0263 -0.1006
   94loPI   GL1 1493   2.662  14.738   9.798 -0.1243 -0.0339 -0.0039
   94loPI   GL2 1494   2.464  14.721   9.737  0.0315 -0.0459 -0.1807
   94loPI   C1A 1495   2.416  15.126   9.385 -0.1304  0.2041 -0.1180
   94loPI   C2A 1496   2.365  15.373   9.009  0.0357 -0.0833  0.0428
   94loPI   C3A 1497   2.187  15.468   8.735 -0.1670 -0.1441  0.0659
   94loPI   C4A 1498   2.201  15.336   8.338 -0.0415 -0.0252  0.0454
   94loPI   C5A 1499   2.503  15.423   7.914 -0.1144  0.1976 -0.4021
   94loPI   C6A 1500   2.771  15.638   7.726  0.1571 -0.1636 -0.2982
   94loPI   C1B 1501   2.082  14.736   9.483  0.1863  0.2973 -0.1025
   94loPI   C2B 1502   1.969  14.898   9.065 -0.0954 -0.2162 -0.1969
   94loPI   C3B 1503   1.995  15.006   8.592  0.2788  0.0585  0.1919
   94loPI   C4B 1504   1.787  14.890   8.250 -0.2336 -0.1007  0.2433
   95loPI    C1 1505   2.578   6.802  10.021 -0.3191 -0.0454 -0.0621
   95loPI    C2 1506   2.682   6.451   9.858  0.1104 -0.0410  0.1883
   95loPI    C3 1507   2.459   6.459  10.191 -0.2169 -0.0630 -0.0257
   95loPI   PO4 1508   2.461   6.932   9.843  0.0680  0.1840 -0.1800
   95loPI   GL1 1509   2.143   6.837   9.455 -0.1330  0.2289  0.1561
   95loPI   GL2 1510   2.243   7.207   9.453 -0.3067  0.4271 -0.2092
   95loPI   C1A 1511   2.102   6.658   9.070  0.1083 -0.0378  0.0706
   95loPI   C2A 1512   2.314   6.551   8.694  0.0969 -0.1463  0.0963
   95loPI   C3A 1513   2.523   6.487   8.362 -0.0302 -0.2968  0.0760
   95loPI   C4A 1514   2.663   6.379   7.860 -0.1371 -0.1120 -0.0150
   95loPI   C5A 1515   2.733   6.071   7.528 -0.0128  0.0600  0.0531
   95loPI   C6A 1516   2.985   5.918   7.257 -0.0399  0.0992 -0.0518
   95loPI   C1B 1517   2.216   7.209   9.028 -0.0335  0.2932 -0.3021
   95loPI   C2B 1518   2.041   7.113   8.643 -0.0756 -0.0672  0.0432
   95loPI   C3B 1519   2.169   6.866   8.221 -0.2178  0.3746 -0.2140
   95loPI   C4B 1520   2.302   6.724   7.850 -0.2804 -0.1395  0.0429
   96loPI    C1 1521  16.232  16.760  10.410  0.0268 -0.1480  0.0282
   96loPI    C2 1522  15.984  16.999  10.613  0.2031  0.1227 -0.0709
   96loPI    C3 1523  16.350  16.923  10.756  0.2601  0.1644 -0.1937
   96loPI   PO4 1524  16.240  16.923  10.145 -0.0309 -0.0281 -0.1640
   96loPI   GL1 1525  16.320  17.046   9.691  0.3685  0.0865 -0.1416
   96loPI   GL2 1526  16.631  16.985   9.598  0.0085  0.1573  0.0416
   96loPI   C1A 1527  16.049  16.835   9.358 -0.0084 -0.0346  0.0032
   96loPI   C2A 1528  16.027  16.656   8.875 -0.0183 -0.1824 -0.0975
   96loPI   C3A 1529  16.017  16.852   8.505 -0.0685  0.2745  0.0715
   96loPI   C4A 1530  16.087  16.680   8.050 -0.1444  0.1994  0.1458
   96loPI   C5A 1531  16.420  16.522   7.806  0.1598  0.2307  0.1331
   96loPI   C6A 1532  16.885  16.483   7.939 -0.0308  0.0272  0.0141
   96loPI   C1B 1533  16.541  16.902   9.226 -0.2288 -0.0402  0.0739
   96loPI   C2B 1534  16.503  16.724   8.765 -0.0044  0.0855 -0.2215
   96loPI   C3B 1535  16.574  16.794   8.266  0.2998 -0.3720 -0.0758
   96loPI   C4B 1536  16.614  17.163   7.958 -0.2800 -0.3210 -0.0846
   97loPI    C1 1537  12.442   1.729  10.257 -0.5372 -0.2099 -0.0877
   97loPI    C2 1538  12.269   1.909  10.569 -0.2194  0.0826 -0.0755
   97loPI    C3 1539  12.455   1.558  10.619  0.1027  0.2778  0.1377
   97loPI   PO4 1540  12.292   1.677  10.125 -0.1690  0.1711  0.4577
   97loPI   GL1 1541  12.138   1.837   9.631 -0.1570  0.2426  0.0868
   97loPI   GL2 1542  11.799   1.697   9.565 -0.1429  0.1654 -0.1153
   97loPI   C1A 1543  11.989   1.866   9.153 -0.3512 -0.0216  0.1609
   97loPI   C2A 1544  12.061   1.874   8.695 -0.1078 -0.0747  0.0166
   97loPI   C3A 1545  11.903   2.062   8.455 -0.1225 -0.0055 -0.1435
   97loPI   C4A 1546  11.972   2.034   7.988 -0.3779  0.1445  0.0278
   97loPI   C5A 1547  11.956   2.172   7.548 -0.1913  0.0838  0.2428
   97loPI   C6A 1548  11.579   2.239   7.413 -0.1652 -0.2457  0.2474
   97loPI   C1B 1549  11.528   1.747   9.296  0.0734 -0.1069  0.0872
   97loPI   C2B 1550  11.577   1.651   8.883 -0.0070 -0.0779  0.0153
   97loPI   C3B 1551  11.480   1.700   8.544  0.1851  0.1244 -0.1277
   97loPI   C4B 1552  11.675   1.726   8.117  0.2901 -0.0602 -0.0135
   98loPI    C1 1553   7.166   3.803  10.453  0.1213 -0.0075 -0.0396
   98loPI    C2 1554   7.149   3.536  10.750 -0.1467  0.0477 -0.0027
   98loPI    C3 1555   6.813   3.706  10.615 -0.0347 -0.0198 -0.3783
   98loPI   PO4 1556   7.278   3.684  10.257  0.1483 -0.0995  0.1340
   98loPI   GL1 1557   7.510   3.676   9.925  0.2372  0.0887  0.0158
   98loPI   GL2 1558   7.261   4.000   9.839  0.1769  0.0455  0.1825
   98loPI   C1A 1559   7.501   3.620   9.492 -0.0501  0.2112 -0.2582
   98loPI   C2A 1560   7.497   3.511   9.076 -0.0637  0.0948 -0.2061
   98loPI   C3A 1561   7.587   3.324   8.638  0.0550  0.0322  0.0637
   98loPI   C4A 1562   7.757   3.247   8.285 -0.1017 -0.0301 -0.2345
   98loPI   C5A 1563   7.907   3.039   7.848  0.1119 -0.2600 -0.3534
   98loPI   C6A 1564   8.336   3.059   7.648  0.1692  0.3466  0.4115
   98loPI   C1B 1565   7.086   3.921   9.379 -0.1374 -0.1985 -0.0397
   98loPI   C2B 1566   7.170   3.874   9.010 -0.1497 -0.0832  0.0500
   98loPI   C3B 1567   7.298   3.785   8.582  0.0136  0.1438 -0.1054
   98loPI   C4B 1568   7.471   3.832   8.241 -0.0250  0.1800  0.1199
   99loPI    C1 1569   8.002   4.378  10.085 -0.0052 -0.1550  0.1666
   99loPI    C2 1570   8.129   4.339  10.462  0.0940  0.0750  0.1585
   99loPI    C3 1571   7.764   4.485  10.388  0.0721  0.0241  0.1648
   99loPI   PO4 1572   8.168   4.481   9.974 -0.1346  0.2430  0.0085
   99loPI   GL1 1573   8.106   4.599   9.590  0.0685  0.0654  0.0139
   99loPI   GL2 1574   7.781   4.527   9.579 -0.2945 -0.1809  0.2185
   99loPI   C1A 1575   8.213   4.655   9.165 -0.4778  0.1828 -0.2612
   99loPI   C2A 1576   8.190   4.565   8.800  0.1601 -0.0821 -0.1050
   99loPI   C3A 1577   8.146   4.538   8.320  0.1410 -0.2756 -0.0546
   99loPI   C4A 1578   8.234   4.483   7.934 -0.0270 -0.2718  0.0565
   99loPI   C5A 1579   8.583   4.639   7.602  0.0581 -0.0702  0.0226
   99loPI   C6A 1580   8.809   5.000   7.705  0.0082 -0.0965  0.2025
   99loPI   C1B 1581   7.749   4.567   9.099  0.0327 -0.1719  0.0493
   99loPI   C2B 1582   7.685   4.652   8.655  0.1954  0.1165  0.1116
   99loPI   C3B 1583   7.668   4.739   8.269  0.0845 -0.1708 -0.1570
   99loPI   C4B 1584   7.746   4.573   7.856  0.0289 -0.0746 -0.0594
  100loPI    C1 1585   5.828  16.717  10.577 -0.1316  0.1874  0.1455
  100loPI    C2 1586   5.435  16.665  10.525 -0.1084  0.3730 -0.2477
  100loPI    C3 1587   5.571  16.855  10.850 -0.3057 -0.1868  0.1769
  100loPI   PO4 1588   5.853  16.485  10.363 -0.1671  0.0012 -0.1269
  100loPI   GL1 1589   5.723  16.257   9.968  0.1213  0.0528 -0.0909
  100loPI   GL2 1590   5.465  16.444  10.101  0.2885  0.3739  0.2466
  100loPI   C1A 1591   5.717  16.264   9.525 -0.0800 -0.0257 -0.0273
  100loPI   C2A 1592   5.830  16.251   9.172 -0.2113 -0.1093 -0.1245
  100loPI   C3A 1593   5.802  16.547   8.741  0.0438  0.1597 -0.2010
  100loPI   C4A 1594   5.864  16.729   8.317 -0.3204  0.0324 -0.1306
  100loPI   C5A 1595   6.265  16.752   8.083  0.0353  0.0551 -0.1042
  100loPI   C6A 1596   6.502  17.008   7.765 -0.1080 -0.0467  0.2857
  100loPI   C1B 1597   5.390  16.683   9.661 -0.0751  0.2600 -0.2274
  100loPI   C2B 1598   5.169  16.730   9.313 -0.1204 -0.1201 -0.2255
  100loPI   C3B 1599   4.826  16.573   9.124  0.1324  0.1676 -0.0185
  100loPI   C4B 1600   4.649  16.668   8.763 -0.4467  0.2237  0.0382
  101loPI    C1 1601   8.685  12.432   9.967 -0.5296 -0.1775  0.0609
  101loPI    C2 1602   8.561  12.351  10.339  0.1150 -0.1277  0.2994
  101loPI    C3 1603   8.945  12.441  10.271 -0.0496  0.1470 -0.3434
  101loPI   PO4 1604   8.488  12.487   9.893 -0.0201 -0.1320 -0.1375
  101loPI   GL1 1605   8.117  12.511   9.616  0.2031  0.0641 -0.0335
  101loPI   GL2 1606   8.071  12.850   9.657  0.0657 -0.0139 -0.4050
  101loPI   C1A 1607   8.159  12.694   9.177  0.4483  0.0489  0.2919
  101loPI   C2A 1608   7.877  12.751   8.904  0.2306  0.2063 -0.0683
  101loPI   C3A 1609   7.563  12.531   8.634 -0.0180  0.2383  0.2023
  101loPI   C4A 1610   7.154  12.520   8.429 -0.0510 -0.1168  0.0799
  101loPI   C5A 1611   6.858  12.302   8.409  0.1115  0.0802 -0.1549
  101loPI   C6A 1612   6.829  11.937   8.163  0.0709  0.1565  0.0676
  101loPI   C1B 1613   8.205  13.145   9.389 -0.0658 -0.3113  0.2203
  101loPI   C2B 1614   8.158  13.184   8.926 -0.2223 -0.1366 -0.2404
  101loPI   C3B 1615   7.840  13.237   8.557 -0.0033 -0.1014  0.3968
  101loPI   C4B 1616   7.596  13.360   8.204  0.0345  0.1781  0.1366
  102loPI    C1 1617   9.491  13.285  10.601  0.0296  0.0120 -0.0422
  102loPI    C2 1618   9.841  13.434  10.476  0.0392  0.0414  0.0196
  102loPI    C3 1619   9.652  13.600  10.787 -0.0908  0.1036 -0.0916
  102loPI   PO4 1620   9.408  13.229  10.267  0.1040  0.1894 -0.1145
  102loPI   GL1 1621   9.576  13.289   9.904 -0.0090  0.0245  0.0775
  102loPI   GL2 1622   9.677  13.580   9.731 -0.0441  0.0302  0.0612
  102loPI   C1A 1623   9.634  13.175   9.431 -0.1370 -0.2866  0.1047
  102loPI   C2A 1624   9.705  13.245   8.979 -0.1404 -0.0861 -0.2105
  102loPI   C3A 1625   9.725  13.258   8.581 -0.1350 -0.1064  0.1500
  102loPI   C4A 1626   9.830  13.198   8.179  0.1835 -0.0475 -0.2653
  102loPI   C5A 1627   9.954  13.242   7.716 -0.2583 -0.0871  0.0921
  102loPI   C6A 1628   9.966  13.013   7.396  0.2068  0.0141  0.0680
  102loPI   C1B 1629   9.852  13.647   9.271 -0.1330 -0.1863 -0.2133
  102loPI   C2B 1630   9.881  13.735   8.898 -0.0840  0.0002  0.0862
  102loPI   C3B 1631   9.785  13.787   8.465 -0.0386  0.3361 -0.0970
  102loPI   C4B 1632   9.604  14.124   8.137  0.0381  0.1920 -0.0378
  103loPI    C1 1633   3.006   3.304  10.244 -0.2579  0.1841 -0.2041
  103loPI    C2 1634   2.740   3.190  10.520  0.0150 -0.0447 -0.0307
  103loPI    C3 1635   3.010   3.471  10.607  0.0686 -0.0803 -0.0814
  103loPI   PO4 1636   2.869   3.167  10.025 -0.0593 -0.0350 -0.3533
  103loPI   GL1 1637   2.961   2.943   9.797 -0.0495 -0.0598  0.2186
  103loPI   GL2 1638   2.822   2.700   9.773  0.2363  0.1677  0.0616
  103loPI   C1A 1639   2.957   3.190   9.399  0.2384 -0.2965  0.3383
  103loPI   C2A 1640   3.117   3.257   9.006 -0.1424  0.1688  0.0464
  103loPI   C3A 1641   3.356   3.045   8.684  0.0175 -0.2348  0.0369
  103loPI   C4A 1642   3.389   2.815   8.313 -0.1037  0.1233  0.0675
  103loPI   C5A 1643   3.329   2.517   8.089 -0.1129 -0.3441 -0.0152
  103loPI   C6A 1644   3.146   2.164   7.720 -0.3469  0.2701  0.1956
  103loPI   C1B 1645   2.601   2.639   9.359 -0.2056  0.1463  0.4083
  103loPI   C2B 1646   2.677   2.364   9.017 -0.1836 -0.0215  0.0750
  103loPI   C3B 1647   2.797   2.309   8.661  0.1918  0.0222 -0.0717
  103loPI   C4B 1648   3.089   2.560   8.561  0.1829  0.1402 -0.1818
  104loPI    C1 1649  16.781  11.674  10.563 -0.1192 -0.0558 -0.0245
  104loPI    C2 1650  16.796  11.303  10.713  0.1962 -0.0874 -0.1274
  104loPI    C3 1651  16.888  11.616  10.945  0.1439 -0.0912 -0.1014
  104loPI   PO4 1652  16.861  11.587  10.335  0.1371 -0.0090  0.0842
  104loPI   GL1 1653  17.085  11.548  10.015  0.5191  0.0364  0.0270
  104loPI   GL2 1654  17.122  11.759   9.906  0.0580 -0.0726 -0.0912
  104loPI   C1A 1655  16.963  11.344   9.692  0.2504  0.2005  0.0502
  104loPI   C2A 1656  16.726  11.146   9.405  0.1127  0.1888  0.0265
  104loPI   C3A 1657  16.528  10.880   9.200 -0.1308 -0.1301  0.2224
  104loPI   C4A 1658  16.702  10.756   8.841 -0.1003 -0.2629 -0.0733
  104loPI   C5A 1659  16.817  10.642   8.471 -0.1824  0.0856  0.0130
  104loPI   C6A 1660  16.745  10.368   8.135 -0.2781 -0.1324  0.1162
  104loPI   C1B 1661  17.038  11.791   9.489  0.0425  0.2308 -0.1813
  104loPI   C2B 1662  16.950  11.801   9.066 -0.0790  0.0374  0.2760
  104loPI   C3B 1663  16.995  11.684   8.618 -0.2134 -0.0343 -0.0142
  104loPI   C4B 1664  17.099  11.444   8.283 -0.0667 -0.3219  0.0078
  105loPI    C1 1665   1.857  14.395  10.455  0.0318  0.1908  0.0835
  105loPI    C2 1666   1.976  14.776  10.473 -0.0143  0.2081  0.0250
  105loPI    C3 1667   2.119  14.510  10.735  0.0643  0.2528  0.0280
  105loPI   PO4 1668   1.696  14.414  10.179  0.0281 -0.0561 -0.0812
  105loPI   GL1 1669   1.335  14.578   9.913 -0.1903  0.1602  0.1327
  105loPI   GL2 1670   0.970  14.730   9.827  0.1948  0.0634  0.0312
  105loPI   C1A 1671   1.230  14.315   9.636  0.1592  0.0457 -0.1192
  105loPI   C2A 1672   1.248  14.125   9.250 -0.1326  0.0676 -0.0720
  105loPI   C3A 1673   1.220  14.027   8.852 -0.0582  0.2020  0.3073
  105loPI   C4A 1674   1.158  13.996   8.398 -0.2328  0.0296  0.0878
  105loPI   C5A 1675   1.477  14.077   7.964  0.2708 -0.0147 -0.4281
  105loPI   C6A 1676   1.845  13.821   7.908 -0.0394 -0.0892  0.2993
  105loPI   C1B 1677   0.955  14.764   9.268 -0.2204 -0.0331  0.1192
  105loPI   C2B 1678   0.942  14.889   8.759  0.2684  0.0666 -0.0213
  105loPI   C3B 1679   0.762  14.871   8.362  0.2296 -0.0092  0.0278
  105loPI   C4B 1680   0.662  14.676   7.914 -0.0647 -0.0279  0.4040
  106loPI    C1 1681  11.011   1.136  10.321  0.1896 -0.1239 -0.2474
  106loPI    C2 1682  10.671   1.263  10.490  0.4003  0.2472 -0.0913
  106loPI    C3 1683  10.986   1.169  10.719  0.2750 -0.5148 -0.2054
  106loPI   PO4 1684  10.913   1.244  10.046 -0.0203  0.1416  0.1272
  106loPI   GL1 1685  10.913   1.083   9.700  0.0356  0.1748  0.2239
  106loPI   GL2 1686  11.210   0.855   9.674  0.1028  0.1492 -0.1152
  106loPI   C1A 1687  10.810   0.789   9.289 -0.4687 -0.1829 -0.0070
  106loPI   C2A 1688  10.651   0.786   8.893  0.1720 -0.0154 -0.0366
  106loPI   C3A 1689  10.657   0.812   8.457  0.0373  0.0349 -0.0830
  106loPI   C4A 1690  10.810   0.933   8.091 -0.1407  0.0084 -0.0976
  106loPI   C5A 1691  10.907   1.309   7.848  0.3874  0.2457 -0.0093
  106loPI   C6A 1692  11.142   1.597   7.533  0.0642  0.0882 -0.1208
  106loPI   C1B 1693  11.348   0.709   9.351 -0.1432 -0.1297 -0.0301
  106loPI   C2B 1694  11.191   0.745   8.967 -0.0166  0.1909 -0.2281
  106loPI   C3B 1695  11.165   0.852   8.570  0.3293 -0.0152 -0.1347
  106loPI   C4B 1696  11.249   1.138   8.254 -0.1533  0.1557 -0.0596
  107loPI    C1 1697   2.064  16.615  10.686 -0.1321 -0.1511  0.1426
  107loPI    C2 1698   2.370  16.722  10.920 -0.1483 -0.1375  0.1577
  107loPI    C3 1699   2.044  16.952  10.901 -0.0525 -0.0168 -0.0581
  107loPI   PO4 1700   2.119  16.648  10.380 -0.1865  0.2188  0.2123
  107loPI   GL1 1701   2.131  16.604  10.010  0.1141 -0.3806  0.2636
  107loPI   GL2 1702   2.039  16.331   9.877 -0.3108 -0.3272  0.1459
  107loPI   C1A 1703   2.145  16.749   9.535 -0.1560  0.0448 -0.0831
  107loPI   C2A 1704   2.035  16.826   9.141 -0.0979  0.0021 -0.0819
  107loPI   C3A 1705   2.149  16.699   8.780  0.2007 -0.0367  0.3331
  107loPI   C4A 1706   1.940  16.711   8.365  0.0369  0.0754  0.0123
  107loPI   C5A 1707   1.686  16.525   8.070  0.0386 -0.0171 -0.1806
  107loPI   C6A 1708   1.435  16.320   7.994  0.1338 -0.4395 -0.1220
  107loPI   C1B 1709   2.177  16.296   9.535  0.0248  0.0082  0.2737
  107loPI   C2B 1710   2.180  16.302   9.179 -0.1380 -0.1149 -0.0967
  107loPI   C3B 1711   2.431  16.289   8.805 -0.1933  0.2072  0.3730
  107loPI   C4B 1712   2.415  16.410   8.371  0.2581  0.2369 -0.1324
  108loPI    C1 1713   3.195  11.946  10.236  0.0581  0.1396 -0.0686
  108loPI    C2 1714   3.497  12.181  10.119  0.2862 -0.0394  0.1496
  108loPI    C3 1715   3.537  11.951  10.444 -0.0197 -0.2042  0.0741
  108loPI   PO4 1716   3.130  11.813  10.031 -0.3151  0.1718  0.1255
  108loPI   GL1 1717   2.827  11.680   9.726  0.0291  0.0694 -0.0650
  108loPI   GL2 1718   2.777  12.041   9.694  0.0216 -0.0788 -0.1643
  108loPI   C1A 1719   2.980  11.479   9.407  0.4392  0.3102  0.1016
  108loPI   C2A 1720   3.277  11.239   9.108 -0.1182 -0.0907  0.0726
  108loPI   C3A 1721   3.206  11.197   8.631  0.3322  0.2672  0.1679
  108loPI   C4A 1722   3.142  11.088   8.182  0.1682  0.2076 -0.0537
  108loPI   C5A 1723   2.814  11.035   7.837 -0.3093  0.2445  0.0411
  108loPI   C6A 1724   2.588  10.840   7.427 -0.1497 -0.1563  0.1204
  108loPI   C1B 1725   2.913  11.938   9.296 -0.2048 -0.4181 -0.0431
  108loPI   C2B 1726   2.781  11.716   8.865  0.1785 -0.1854  0.0608
  108loPI   C3B 1727   2.403  11.771   8.592 -0.2059 -0.2148 -0.1118
  108loPI   C4B 1728   2.259  11.730   8.201  0.0426 -0.3940 -0.1333
  109loPI    C1 1729  12.157   5.138  10.250  0.0138 -0.1674  0.2409
  109loPI    C2 1730  12.172   5.535  10.293 -0.3129 -0.1007 -0.1971
  109loPI    C3 1731  12.490   5.312  10.388  0.0635  0.3154 -0.4393
  109loPI   PO4 1732  11.941   5.146  10.087  0.0769  0.2535  0.0216
  109loPI   GL1 1733  11.912   5.080   9.712 -0.0883  0.1902 -0.3447
  109loPI   GL2 1734  12.197   5.211   9.495  0.0816  0.3092  0.0344
  109loPI   C1A 1735  11.675   5.083   9.225  0.2889 -0.1887  0.1162
  109loPI   C2A 1736  11.656   5.009   8.768  0.1650 -0.0327 -0.0514
  109loPI   C3A 1737  11.567   4.865   8.372 -0.3122 -0.0821 -0.2016
  109loPI   C4A 1738  11.350   4.918   7.985 -0.0820 -0.0388  0.1980
  109loPI   C5A 1739  11.533   4.699   7.609 -0.1166 -0.1357  0.0373
  109loPI   C6A 1740  11.830   4.673   7.325  0.0161  0.0290 -0.1461
  109loPI   C1B 1741  12.102   5.189   9.056  0.2232 -0.0036 -0.0465
  109loPI   C2B 1742  12.208   4.958   8.728  0.1118  0.0649 -0.2916
  109loPI   C3B 1743  12.383   4.803   8.272 -0.1660 -0.0823  0.1519
  109loPI   C4B 1744  12.637   4.915   7.931 -0.2325 -0.3085  0.2916
  110loPI    C1 1745   2.624  17.178  10.623 -0.2953 -0.0011  0.0677
  110loPI    C2 1746   2.805  17.444  10.860  0.1986 -0.1467 -0.1349
  110loPI    C3 1747   2.551  17.178  11.016  0.0668  0.1333  0.1385
  110loPI   PO4 1748   2.844  17.183  10.450  0.1494 -0.2586  0.2527
  110loPI   GL1 1749   2.930  16.940  10.091 -0.0477 -0.3542  0.0150
  110loPI   GL2 1750   3.190  17.250  10.114  0.0592  0.3466 -0.0186
  110loPI   C1A 1751   2.716  16.780   9.661  0.1379  0.1202 -0.0851
  110loPI   C2A 1752   2.564  16.673   9.214 -0.2940  0.2530  0.0009
  110loPI   C3A 1753   2.680  16.707   8.848  0.3297  0.0358  0.3111
  110loPI   C4A 1754   2.876  16.960   8.473  0.1520  0.0216 -0.1346
  110loPI   C5A 1755   2.806  17.108   8.062 -0.1264  0.1998  0.3147
  110loPI   C6A 1756   2.507  17.419   8.069  0.2046  0.1305 -0.1655
  110loPI   C1B 1757   3.112  17.067   9.633  0.0239  0.1082  0.1329
  110loPI   C2B 1758   3.051  16.938   9.205  0.1627 -0.2640  0.0529
  110loPI   C3B 1759   3.296  16.694   8.879 -0.1341  0.1168 -0.0488
  110loPI   C4B 1760   3.316  16.638   8.471 -0.1571 -0.1367 -0.0812
  111loPI    C1 1761   6.975  13.425  10.262  0.2363 -0.2861 -0.0436
  111loPI    C2 1762   6.809  13.188  10.538 -0.1271  0.0942  0.0753
  111loPI    C3 1763   6.960  13.543  10.644  0.2785 -0.0123 -0.1241
  111loPI   PO4 1764   6.802  13.475  10.098 -0.0248 -0.0789 -0.2372
  111loPI   GL1 1765   6.870  13.584   9.710  0.0660 -0.1799 -0.0983
  111loPI   GL2 1766   7.148  13.551   9.709  0.5589  0.0536  0.1235
  111loPI   C1A 1767   6.847  13.418   9.248  0.0374  0.2478  0.0812
  111loPI   C2A 1768   6.752  13.465   8.778 -0.3057  0.0795  0.0326
  111loPI   C3A 1769   6.768  13.846   8.470  0.0038 -0.0980 -0.1087
  111loPI   C4A 1770   6.847  14.304   8.324 -0.2050  0.1713  0.1476
  111loPI   C5A 1771   7.111  14.473   7.981  0.0812  0.1950 -0.1315
  111loPI   C6A 1772   6.993  14.662   7.489 -0.2020  0.3023  0.0354
  111loPI   C1B 1773   7.357  13.336   9.369  0.0358  0.0989 -0.3009
  111loPI   C2B 1774   7.856  13.535   9.181  0.1273 -0.1788  0.0391
  111loPI   C3B 1775   7.948  13.805   8.896  0.0755  0.0025  0.6113
  111loPI   C4B 1776   7.752  13.983   8.391  0.3073 -0.4081  0.0977
  112loPI    C1 1777  13.685  15.648  10.374  0.0016  0.1815 -0.0144
  112loPI    C2 1778  13.958  15.759  10.644 -0.2172  0.2309  0.1901
  112loPI    C3 1779  13.709  15.457  10.725 -0.2951  0.2570  0.0494
  112loPI   PO4 1780  13.818  15.641  10.126  0.0211 -0.0257  0.0053
  112loPI   GL1 1781  13.836  15.807   9.720 -0.0889  0.2309  0.0495
  112loPI   GL2 1782  14.065  16.035   9.803  0.1724  0.1407 -0.1936
  112loPI   C1A 1783  13.803  15.510   9.428 -0.0001 -0.0739  0.1066
  112loPI   C2A 1784  13.694  15.393   9.012 -0.2437 -0.1206  0.0684
  112loPI   C3A 1785  13.476  15.232   8.576  0.1065  0.0252  0.0200
  112loPI   C4A 1786  13.381  15.564   8.296  0.2695 -0.1493  0.0313
  112loPI   C5A 1787  13.039  15.863   8.098 -0.3992  0.1054 -0.0147
  112loPI   C6A 1788  12.957  15.935   7.743 -0.2128  0.0112 -0.1808
  112loPI   C1B 1789  13.926  16.175   9.391 -0.0729  0.1730  0.2265
  112loPI   C2B 1790  13.969  16.180   8.978 -0.0464 -0.0785  0.4101
  112loPI   C3B 1791  13.917  16.401   8.560  0.2041 -0.0425  0.2522
  112loPI   C4B 1792  13.964  16.537   8.100  0.1546  0.1194  0.1699
  113loPI    C1 1793   5.851  10.228  10.159  0.1136  0.0336  0.0237
  113loPI    C2 1794   5.774   9.974  10.459  0.2032  0.0296  0.0433
  113loPI    C3 1795   6.096  10.212  10.475  0.2310 -0.0001 -0.0682
  113loPI   PO4 1796   5.652  10.448  10.054  0.2292  0.1795  0.0610
  113loPI   GL1 1797   5.401  10.442   9.854  0.2343  0.1751 -0.0314
  113loPI   GL2 1798   5.079  10.596   9.797 -0.0438  0.2295  0.0131
  113loPI   C1A 1799   5.556  10.350   9.378 -0.1059 -0.0791  0.2499
  113loPI   C2A 1800   5.566  10.033   8.975 -0.0341 -0.0028 -0.0789
  113loPI   C3A 1801   5.844   9.930   8.664 -0.0315 -0.0469  0.0843
  113loPI   C4A 1802   5.894   9.817   8.224 -0.3284 -0.2177 -0.2186
  113loPI   C5A 1803   6.104   9.886   7.897 -0.0196  0.3123  0.2048
  113loPI   C6A 1804   6.186   9.827   7.354  0.3101  0.0673 -0.2344
  113loPI   C1B 1805   5.143  10.695   9.355 -0.2946  0.2854 -0.1637
  113loPI   C2B 1806   5.006  10.767   8.981  0.1607  0.1464  0.1333
  113loPI   C3B 1807   4.966  10.689   8.511 -0.2726 -0.2707 -0.3180
  113loPI   C4B 1808   5.231  10.753   8.134 -0.0614 -0.1066  0.0700
  114loPI    C1 1809   0.745  14.997  10.446  0.2511 -0.0854  0.0830
  114loPI    C2 1810   0.849  14.709  10.703 -0.2979 -0.0620  0.3457
  114loPI    C3 1811   0.687  15.049  10.838  0.0181  0.2307  0.0112
  114loPI   PO4 1812   0.992  14.952  10.259  0.1570  0.0767  0.0160
  114loPI   GL1 1813   1.174  15.183   9.920  0.0706  0.2384 -0.2593
  114loPI   GL2 1814   1.554  15.257   9.845 -0.0775  0.1762 -0.0281
  114loPI   C1A 1815   1.205  15.182   9.471  0.1191 -0.0043  0.2493
  114loPI   C2A 1816   1.309  15.068   9.061  0.1084 -0.2886  0.3558
  114loPI   C3A 1817   1.258  15.282   8.626  0.3570  0.0638  0.2992
  114loPI   C4A 1818   1.102  15.467   8.277  0.4009 -0.3002 -0.1289
  114loPI   C5A 1819   1.151  15.388   7.861  0.3029 -0.1597 -0.0132
  114loPI   C6A 1820   1.073  15.296   7.443  0.0508 -0.1580 -0.1405
  114loPI   C1B 1821   1.646  14.856   9.561 -0.0483 -0.1841 -0.0746
  114loPI   C2B 1822   1.540  14.618   9.315  0.3205 -0.0681 -0.2538
  114loPI   C3B 1823   1.287  14.537   8.995  0.2863 -0.0985 -0.1078
  114loPI   C4B 1824   1.512  14.798   8.671 -0.1277  0.0872 -0.1114
  115loPI    C1 1825   0.422   5.481  10.081  0.1454 -0.1175  0.1142
  115loPI    C2 1826   0.782   5.529  10.248  0.1928  0.0264 -0.0265
  115loPI    C3 1827   0.451   5.598  10.462  0.2522  0.1593  0.0237
  115loPI   PO4 1828   0.456   5.633   9.860  0.3538  0.0227 -0.1799
  115loPI   GL1 1829   0.527   5.508   9.430  0.1306  0.2910  0.1614
  115loPI   GL2 1830   0.773   5.455   9.515  0.2282 -0.0300 -0.0604
  115loPI   C1A 1831   0.428   5.504   8.979 -0.0026  0.1054  0.1264
  115loPI   C2A 1832   0.086   5.649   8.730 -0.0990 -0.0542  0.1915
  115loPI   C3A 1833   0.010   5.626   8.348  0.1048 -0.2758 -0.0957
  115loPI   C4A 1834  -0.019   5.539   7.846  0.0060  0.0653 -0.4887
  115loPI   C5A 1835  -0.396   5.552   7.555 -0.1219 -0.0666  0.0115
  115loPI   C6A 1836  -0.875   5.683   7.457 -0.1085  0.1926  0.1220
  115loPI   C1B 1837   0.915   5.504   9.056  0.3227  0.0785 -0.1308
  115loPI   C2B 1838   0.886   5.534   8.704  0.1015  0.0403  0.2992
  115loPI   C3B 1839   0.536   5.627   8.349 -0.1693  0.1000  0.0530
  115loPI   C4B 1840   0.291   5.261   8.128 -0.1381  0.0879 -0.1233
  116loPI    C1 1841   4.594   3.909   9.899  0.1028 -0.2960  0.1914
  116loPI    C2 1842   4.863   3.860  10.191  0.2998  0.0362  0.0713
  116loPI    C3 1843   4.507   4.022  10.273  0.3122  0.0253  0.1477
  116loPI   PO4 1844   4.765   4.017   9.714 -0.1214 -0.1692  0.0787
  116loPI   GL1 1845   4.767   3.969   9.284 -0.0242 -0.1549  0.1560
  116loPI   GL2 1846   4.395   3.851   9.428  0.0072 -0.3641  0.0809
  116loPI   C1A 1847   4.836   3.949   8.895 -0.0069 -0.1821 -0.0035
  116loPI   C2A 1848   4.641   3.774   8.533  0.1726  0.0058 -0.4695
  116loPI   C3A 1849   4.782   3.491   8.294  0.2061 -0.1809 -0.0717
  116loPI   C4A 1850   4.883   3.436   7.764 -0.0334 -0.1395 -0.1210
  116loPI   C5A 1851   5.066   3.492   7.414  0.2699  0.2419 -0.1225
  116loPI   C6A 1852   5.362   3.807   7.249 -0.3461  0.0994  0.0851
  116loPI   C1B 1853   4.374   3.857   9.032  0.1228 -0.0592 -0.1376
  116loPI   C2B 1854   4.292   4.145   8.689 -0.0156  0.0153 -0.0679
  116loPI   C3B 1855   4.536   4.315   8.450 -0.0900  0.0036  0.4128
  116loPI   C4B 1856   4.862   4.589   8.173  0.1774  0.0267 -0.4507
  117loPI    C1 1857  17.969   0.372  10.112 -0.1749  0.0499  0.2835
  117loPI    C2 1858  18.012   0.522  10.480  0.0657  0.0305  0.2652
  117loPI    C3 1859  18.331   0.480  10.243 -0.0568 -0.1510  0.1294
  117loPI   PO4 1860  17.872   0.145  10.085  0.1555 -0.0323  0.0711
  117loPI   GL1 1861  17.998  -0.135   9.813  0.1116 -0.1978 -0.1466
  117loPI   GL2 1862  17.674  -0.132   9.677  0.3606 -0.0047 -0.1967
  117loPI   C1A 1863  18.281  -0.010   9.406 -0.0372  0.0600  0.1850
  117loPI   C2A 1864  18.369  -0.145   9.020  0.0876 -0.0163  0.0131
  117loPI   C3A 1865  18.693  -0.033   8.684 -0.0509  0.2751 -0.4769
  117loPI   C4A 1866  18.927  -0.080   8.389  0.5013 -0.0033 -0.0980
  117loPI   C5A 1867  19.231   0.064   8.167 -0.1103  0.0122  0.1274
  117loPI   C6A 1868  19.477  -0.168   7.837 -0.3137  0.1606 -0.0013
  117loPI   C1B 1869  17.816  -0.334   9.257 -0.0230 -0.0636 -0.3494
  117loPI   C2B 1870  18.042  -0.533   8.897 -0.0645 -0.2964 -0.1603
  117loPI   C3B 1871  18.015  -0.624   8.431 -0.1054 -0.0016  0.1041
  117loPI   C4B 1872  18.079  -0.551   7.995 -0.0471  0.0995  0.0565
  118loPI    C1 1873   6.327  13.129  10.276 -0.0867 -0.1115 -0.0644
  118loPI    C2 1874   6.392  12.837  10.542 -0.2977 -0.0772  0.0277
  118loPI    C3 1875   6.351  13.215  10.666 -0.0282 -0.0060 -0.0909
  118loPI   PO4 1876   6.170  13.044  10.119 -0.1158 -0.2584 -0.0766
  118loPI   GL1 1877   6.172  12.953   9.750 -0.1573  0.0530 -0.2716
  118loPI   GL2 1878   5.963  12.685   9.725  0.1540 -0.1322 -0.2985
  118loPI   C1A 1879   5.951  13.057   9.339  0.4341  0.2984  0.2767
  118loPI   C2A 1880   5.857  13.137   8.927  0.1360  0.0693  0.0691
  118loPI   C3A 1881   5.900  13.193   8.523 -0.2071  0.3298 -0.0316
  118loPI   C4A 1882   5.799  13.094   8.066  0.0589 -0.2536  0.1397
  118loPI   C5A 1883   5.507  12.935   7.751  0.0439  0.2191  0.1680
  118loPI   C6A 1884   5.165  13.108   7.412 -0.0574  0.2704 -0.0934
  118loPI   C1B 1885   5.954  12.495   9.430 -0.0584  0.2635  0.1971
  118loPI   C2B 1886   5.986  12.667   9.045 -0.0636  0.2077 -0.4303
  118loPI   C3B 1887   5.905  12.725   8.596  0.4834  0.4086 -0.3097
  118loPI   C4B 1888   5.613  12.687   8.256  0.2254  0.0873 -0.0037
  119loPI    C1 1889   4.315  14.362  10.446  0.4197 -0.0399 -0.1062
  119loPI    C2 1890   4.262  13.967  10.476  0.0435  0.0088 -0.0723
  119loPI    C3 1891   4.124  14.209  10.762 -0.2214  0.2030 -0.3573
  119loPI   PO4 1892   4.510  14.369  10.355 -0.2074  0.2446  0.1647
  119loPI   GL1 1893   4.782  14.287   9.969 -0.0428  0.1219  0.1572
  119loPI   GL2 1894   4.554  14.607   9.886 -0.0926  0.3920 -0.1383
  119loPI   C1A 1895   4.746  14.107   9.585 -0.3331 -0.2138  0.2389
  119loPI   C2A 1896   4.539  14.073   9.197  0.0174 -0.0617 -0.2070
  119loPI   C3A 1897   4.561  14.026   8.781  0.0164  0.1849 -0.1757
  119loPI   C4A 1898   4.656  13.863   8.384  0.1362  0.4961  0.1778
  119loPI   C5A 1899   4.950  13.794   7.897 -0.0546  0.3127 -0.2090
  119loPI   C6A 1900   5.224  13.876   7.671  0.2047  0.2168 -0.2650
  119loPI   C1B 1901   4.891  14.791   9.701 -0.2803 -0.0673  0.1661
  119loPI   C2B 1902   4.939  14.881   9.331  0.3306  0.2218  0.2028
  119loPI   C3B 1903   4.945  15.042   8.991  0.4081 -0.0152  0.0224
  119loPI   C4B 1904   4.967  15.456   8.902 -0.0225 -0.0405  0.1791
  120loPI    C1 1905  15.620   6.576  10.277  0.2417 -0.1935 -0.0373
  120loPI    C2 1906  15.344   6.288  10.258 -0.0352  0.0641 -0.0022
  120loPI    C3 1907  15.409   6.480  10.603  0.1129  0.0784 -0.0374
  120loPI   PO4 1908  15.523   6.690  10.029  0.1223  0.2221 -0.1731
  120loPI   GL1 1909  15.458   6.573   9.649 -0.0458  0.2466  0.0392
  120loPI   GL2 1910  15.759   6.808   9.578  0.0288 -0.0700  0.2734
  120loPI   C1A 1911  15.294   6.959   9.390 -0.5776  0.2228  0.0922
  120loPI   C2A 1912  15.469   7.291   9.132 -0.1766  0.0191 -0.1302
  120loPI   C3A 1913  15.557   7.389   8.814 -0.2130 -0.3034  0.0083
  120loPI   C4A 1914  15.995   7.260   8.658  0.1121  0.0646  0.3251
  120loPI   C5A 1915  16.012   6.950   8.362  0.0811  0.1798 -0.1646
  120loPI   C6A 1916  15.734   6.823   8.068 -0.1485  0.1813 -0.0897
  120loPI   C1B 1917  15.693   6.692   9.052  0.0897  0.0979 -0.2487
  120loPI   C2B 1918  15.643   6.906   8.787  0.0091  0.0051  0.1813
  120loPI   C3B 1919  15.556   6.616   8.461 -0.2309  0.2243  0.0249
  120loPI   C4B 1920  15.383   6.367   8.173  0.0738 -0.0019 -0.0095
  121loPI    C1 1921   5.702   4.322   9.936  0.0642  0.0217  0.1126
  121loPI    C2 1922   5.852   4.243  10.299 -0.1236 -0.0049  0.1852
  121loPI    C3 1923   5.523   4.468  10.262 -0.2211 -0.1673  0.0442
  121loPI   PO4 1924   5.804   4.396   9.739  0.1357  0.1335 -0.0575
  121loPI   GL1 1925   5.916   4.263   9.369 -0.0456  0.2484 -0.2218
  121loPI   GL2 1926   6.169   4.113   9.375  0.4576  0.2956  0.3169
  121loPI   C1A 1927   5.633   4.136   9.163  0.0584 -0.0155  0.0045
  121loPI   C2A 1928   5.317   4.208   8.773  0.0176  0.1600 -0.0967
  121loPI   C3A 1929   5.026   4.158   8.399  0.0115 -0.0364  0.1381
  121loPI   C4A 1930   4.763   4.020   8.060 -0.2632  0.2679 -0.0429
  121loPI   C5A 1931   4.598   3.850   7.862  0.0077 -0.0683 -0.0255
  121loPI   C6A 1932   4.344   3.773   7.586 -0.3719 -0.0355  0.2979
  121loPI   C1B 1933   6.064   4.048   8.908  0.2236 -0.1370 -0.3375
  121loPI   C2B 1934   6.176   4.059   8.549  0.0121  0.0273  0.1116
  121loPI   C3B 1935   6.079   4.011   8.198 -0.0881  0.1747 -0.0874
  121loPI   C4B 1936   6.230   4.030   7.793  0.1038 -0.1316 -0.1983
  122loPI    C1 1937   3.878   0.349  10.646  0.1044 -0.0784 -0.1601
  122loPI    C2 1938   3.487   0.384  10.569  0.0238 -0.0260  0.2515
  122loPI    C3 1939   3.659   0.620  10.842  0.2453 -0.3600  0.4077
  122loPI   PO4 1940   3.942   0.380  10.429 -0.0565  0.3594 -0.0980
  122loPI   GL1 1941   3.986   0.376  10.049  0.1036 -0.0882 -0.0972
  122loPI   GL2 1942   4.138   0.655   9.898  0.1334 -0.0074 -0.3663
  122loPI   C1A 1943   4.100   0.117   9.666 -0.1699 -0.1438 -0.4580
  122loPI   C2A 1944   4.091   0.022   9.247 -0.0642 -0.1904  0.1889
  122loPI   C3A 1945   4.110  -0.275   8.975  0.3314 -0.2331  0.1805
  122loPI   C4A 1946   3.891  -0.396   8.643  0.3353 -0.1881 -0.1783
  122loPI   C5A 1947   3.618  -0.681   8.444 -0.0798 -0.1032 -0.2521
  122loPI   C6A 1948   3.461  -0.986   8.133  0.2352  0.0591  0.0530
  122loPI   C1B 1949   4.142   0.652   9.464  0.0043 -0.1012 -0.1111
  122loPI   C2B 1950   4.134   0.462   9.007 -0.1067 -0.0755  0.1916
  122loPI   C3B 1951   4.124   0.286   8.566  0.1105 -0.0609 -0.1413
  122loPI   C4B 1952   4.235  -0.034   8.234 -0.0466  0.1992  0.2937
  123loPI    C1 1953  10.417   6.241  10.367 -0.0708 -0.0376  0.0252
  123loPI    C2 1954  10.057   6.107  10.477 -0.0324 -0.0308  0.1602
  123loPI    C3 1955  10.385   5.973  10.662  0.0314 -0.0040  0.0670
  123loPI   PO4 1956  10.379   6.232  10.047  0.0392 -0.0179  0.0005
  123loPI   GL1 1957  10.508   6.308   9.753 -0.1744  0.1258  0.0551
  123loPI   GL2 1958  10.731   6.509   9.682 -0.0526  0.1873 -0.0631
  123loPI   C1A 1959  10.695   6.095   9.376  0.1696  0.2002 -0.0257
  123loPI   C2A 1960  10.830   6.041   8.935 -0.0466  0.1216  0.1181
  123loPI   C3A 1961  10.755   6.094   8.556 -0.0981  0.1416  0.0894
  123loPI   C4A 1962  10.708   6.110   8.064 -0.1292  0.2795 -0.1625
  123loPI   C5A 1963  10.593   6.272   7.675  0.0089 -0.0060 -0.0421
  123loPI   C6A 1964  10.408   6.203   7.316 -0.1305  0.0040  0.2925
  123loPI   C1B 1965  10.669   6.568   9.211  0.2968  0.0698 -0.3379
  123loPI   C2B 1966  10.791   6.546   8.734  0.0769  0.1813 -0.0956
  123loPI   C3B 1967  10.801   6.563   8.322  0.1815 -0.0788 -0.2317
  123loPI   C4B 1968  10.860   6.560   7.917 -0.1902 -0.1891 -0.3424
  124loPI    C1 1969   8.351  16.970  10.847  0.1439 -0.0362 -0.0115
  124loPI    C2 1970   8.386  17.207  11.168 -0.1564  0.0384 -0.0307
  124loPI    C3 1971   8.258  16.830  11.210 -0.0496  0.0000 -0.0462
  124loPI   PO4 1972   8.529  17.016  10.686 -0.6811  0.2121  0.0047
  124loPI   GL1 1973   8.657  17.257  10.366 -0.0690  0.0899 -0.2381
  124loPI   GL2 1974   8.470  17.049  10.161 -0.2330  0.3013 -0.0433
  124loPI   C1A 1975   8.704  17.623  10.047  0.1604  0.0586 -0.1793
  124loPI   C2A 1976   8.455  17.818   9.686  0.0507  0.1869  0.1560
  124loPI   C3A 1977   8.188  17.828   9.270 -0.3517 -0.0663 -0.0328
  124loPI   C4A 1978   8.098  18.027   8.902 -0.0650 -0.2919  0.1401
  124loPI   C5A 1979   8.018  18.242   8.454 -0.0811  0.0832 -0.3084
  124loPI   C6A 1980   7.893  18.334   8.047 -0.2084 -0.3132 -0.0373
  124loPI   C1B 1981   8.490  16.843   9.777  0.3097  0.0164  0.1719
  124loPI   C2B 1982   8.499  16.752   9.345  0.1066  0.2207 -0.3179
  124loPI   C3B 1983   8.387  16.735   8.832 -0.0783 -0.0793  0.1165
  124loPI   C4B 1984   8.053  16.423   8.603  0.3612 -0.0221 -0.0748
  125loPI    C1 1985  11.610  17.966  10.007 -0.0809 -0.1746 -0.0450
  125loPI    C2 1986  11.608  18.346  10.132  0.1988 -0.1742 -0.0346
  125loPI    C3 1987  11.371  18.233   9.830 -0.0280 -0.0368  0.0892
  125loPI   PO4 1988  11.831  17.929   9.890  0.1434 -0.1229  0.0321
  125loPI   GL1 1989  12.085  17.946   9.523 -0.0213  0.1019 -0.0509
  125loPI   GL2 1990  11.813  17.635   9.455 -0.2258  0.0955  0.1372
  125loPI   C1A 1991  12.013  17.883   9.025 -0.2169  0.1004 -0.0100
  125loPI   C2A 1992  11.983  17.911   8.546 -0.2619  0.1033  0.1675
  125loPI   C3A 1993  11.857  17.794   8.086 -0.1589 -0.2790 -0.0911
  125loPI   C4A 1994  11.549  17.750   7.749  0.3479  0.0838  0.0448
  125loPI   C5A 1995  11.202  17.430   7.727 -0.2320  0.1025  0.0345
  125loPI   C6A 1996  10.789  17.419   7.735  0.1177  0.0442 -0.1832
  125loPI   C1B 1997  11.558  17.561   9.112 -0.1394  0.1412 -0.2702
  125loPI   C2B 1998  11.547  17.536   8.621  0.2785  0.1640 -0.2510
  125loPI   C3B 1999  11.527  17.381   8.144  0.0492  0.1093 -0.0093
  125loPI   C4B 2000  11.920  17.251   7.869 -0.3302 -0.0363  0.1905
  126loPI    C1 2001   2.118  13.516  10.131 -0.3965 -0.1965 -0.0776
  126loPI    C2 2002   2.203  13.283  10.445 -0.2084 -0.1393 -0.0848
  126loPI    C3 2003   1.929  13.572  10.478  0.0763  0.1115  0.1409
  126loPI   PO4 2004   2.202  13.312   9.946 -0.1898 -0.2814  0.0001
  126loPI   GL1 2005   2.499  13.150   9.598  0.1913  0.1207  0.0062
  126loPI   GL2 2006   2.754  13.067   9.610 -0.1289 -0.0069 -0.1031
  126loPI   C1A 2007   2.511  13.335   9.186  0.3956 -0.4123  0.0622
  126loPI   C2A 2008   2.234  13.563   8.878  0.0407 -0.1898 -0.1840
  126loPI   C3A 2009   2.407  13.764   8.547 -0.2006  0.0561  0.0525
  126loPI   C4A 2010   2.518  13.940   8.186  0.2956  0.0637  0.0070
  126loPI   C5A 2011   2.664  14.327   8.031  0.2765 -0.0639  0.0321
  126loPI   C6A 2012   3.054  14.434   7.841 -0.0141  0.0820  0.2345
  126loPI   C1B 2013   2.718  12.876   9.230  0.1545 -0.0301 -0.0911
  126loPI   C2B 2014   2.723  12.799   8.765  0.2309 -0.0972  0.2611
  126loPI   C3B 2015   2.560  12.763   8.465  0.2844 -0.1210 -0.3069
  126loPI   C4B 2016   2.510  12.885   8.052  0.2092  0.0922 -0.1643
  127loPI    C1 2017   7.011   8.976   9.804 -0.0225 -0.1224  0.0157
  127loPI    C2 2018   7.354   9.160   9.712 -0.1033 -0.0558 -0.1569
  127loPI    C3 2019   7.313   8.979  10.067  0.0497  0.0812 -0.0678
  127loPI   PO4 2020   6.860   9.060   9.683 -0.3552 -0.1585 -0.2075
  127loPI   GL1 2021   6.990   9.447   9.465  0.1557  0.1146 -0.1191
  127loPI   GL2 2022   7.108   9.730   9.518  0.0428 -0.2191  0.0552
  127loPI   C1A 2023   6.866   9.534   8.950  0.1480  0.1957 -0.3426
  127loPI   C2A 2024   6.972   9.632   8.564 -0.0322 -0.0373  0.1019
  127loPI   C3A 2025   7.137   9.857   8.196 -0.0841  0.0675  0.1616
  127loPI   C4A 2026   7.057  10.208   7.903  0.1724 -0.0516  0.1543
  127loPI   C5A 2027   6.864  10.432   7.530 -0.1218 -0.2856 -0.1935
  127loPI   C6A 2028   6.893  10.499   7.061  0.5190  0.2718 -0.1047
  127loPI   C1B 2029   7.154   9.841   9.183 -0.0940  0.2066 -0.1411
  127loPI   C2B 2030   7.365  10.003   8.753 -0.0290  0.1541 -0.2512
  127loPI   C3B 2031   7.395  10.245   8.371  0.1409  0.0566 -0.1720
  127loPI   C4B 2032   7.407  10.567   7.939  0.1882 -0.1821 -0.1541
  128loPI    C1 2033   4.554   8.853  10.263  0.0846 -0.1831 -0.2710
  128loPI    C2 2034   4.917   8.692  10.315  0.1718  0.0411 -0.1718
  128loPI    C3 2035   4.769   8.943  10.588  0.0282  0.1125 -0.3131
  128loPI   PO4 2036   4.541   8.951   9.968  0.1777 -0.0137 -0.0785
  128loPI   GL1 2037   4.536   8.816   9.596  0.0114  0.3325 -0.1192
  128loPI   GL2 2038   4.192   8.669   9.410  0.0887 -0.0292 -0.1810
  128loPI   C1A 2039   4.627   8.831   9.215 -0.4598 -0.0977  0.2486
  128loPI   C2A 2040   4.596   8.764   8.790 -0.1635 -0.1024  0.2021
  128loPI   C3A 2041   4.513   8.815   8.356 -0.5980  0.2849 -0.0288
  128loPI   C4A 2042   4.372   8.979   8.025 -0.0724  0.1767 -0.3197
  128loPI   C5A 2043   4.441   9.441   7.893 -0.1746  0.2615 -0.2440
  128loPI   C6A 2044   4.433   9.794   7.742 -0.0187  0.2702 -0.1757
  128loPI   C1B 2045   4.352   8.375   9.131  0.0364 -0.1478  0.1353
  128loPI   C2B 2046   4.429   8.340   8.580 -0.1212  0.0648 -0.1381
  128loPI   C3B 2047   4.323   8.203   8.215  0.0238 -0.1858 -0.0308
  128loPI   C4B 2048   4.638   8.255   7.856 -0.0683  0.2863  0.0040
  129loPI    C1 2049   3.538   2.131  10.334  0.1861  0.0240  0.0103
  129loPI    C2 2050   3.201   2.315  10.448  0.1514  0.0355 -0.1086
  129loPI    C3 2051   3.334   1.996  10.650  0.0786  0.0415 -0.0509
  129loPI   PO4 2052   3.734   2.329  10.220 -0.3789  0.1425 -0.1141
  129loPI   GL1 2053   3.692   2.311   9.794  0.2419 -0.2934  0.0293
  129loPI   GL2 2054   3.966   2.196   9.739  0.4158 -0.0985 -0.5195
  129loPI   C1A 2055   3.656   2.382   9.276  0.0634 -0.0552 -0.0069
  129loPI   C2A 2056   3.582   2.567   8.957 -0.1997 -0.1818 -0.1586
  129loPI   C3A 2057   3.675   2.457   8.644 -0.1744  0.0227 -0.0230
  129loPI   C4A 2058   3.839   2.300   8.394 -0.0579  0.0430  0.3099
  129loPI   C5A 2059   3.791   2.066   8.072 -0.2946  0.1018  0.1540
  129loPI   C6A 2060   3.640   2.026   7.756  0.0235 -0.1572  0.0323
  129loPI   C1B 2061   3.865   1.954   9.459 -0.0344  0.3414 -0.1047
  129loPI   C2B 2062   3.704   1.915   9.021 -0.3216  0.0478 -0.0281
  129loPI   C3B 2063   3.963   1.956   8.655  0.1651  0.0651  0.3144
  129loPI   C4B 2064   4.175   1.847   8.320  0.3586  0.0995 -0.3427
  130loPI    C1 2065  14.325  10.362  10.130 -0.0027  0.0290  0.0055
  130loPI    C2 2066  14.126  10.160  10.411 -0.0405  0.1289  0.0508
  130loPI    C3 2067  14.350  10.475  10.512  0.1364  0.0212 -0.0006
  130loPI   PO4 2068  14.270  10.233   9.881 -0.2079 -0.0649  0.0848
  130loPI   GL1 2069  14.422  10.153   9.585  0.1406  0.0032 -0.0169
  130loPI   GL2 2070  14.681  10.010   9.513  0.2468  0.2381  0.1207
  130loPI   C1A 2071  14.440  10.484   9.264  0.0318 -0.0569 -0.1082
  130loPI   C2A 2072  14.250  10.479   8.880 -0.1037  0.1266  0.0334
  130loPI   C3A 2073  14.075  10.643   8.511  0.2755 -0.1054 -0.1481
  130loPI   C4A 2074  13.997  10.532   8.065 -0.1883  0.1985 -0.0305
  130loPI   C5A 2075  13.988  10.312   7.757  0.3261  0.1602  0.1049
  130loPI   C6A 2076  14.128   9.982   7.508 -0.1725 -0.1183  0.2039
  130loPI   C1B 2077  14.645  10.022   9.111  0.0476 -0.0411 -0.1999
  130loPI   C2B 2078  14.406  10.030   8.709  0.0544 -0.0258 -0.1277
  130loPI   C3B 2079  14.470  10.155   8.348  0.0274  0.0122  0.2011
  130loPI   C4B 2080  14.413  10.222   7.932 -0.0703  0.1445 -0.0289
  131loPI    C1 2081  17.513   4.431  10.468  0.1852 -0.0663  0.0087
  131loPI    C2 2082  17.131   4.355  10.559  0.1989 -0.2166 -0.0562
  131loPI    C3 2083  17.305   4.691  10.690  0.0548 -0.1637  0.0017
  131loPI   PO4 2084  17.465   4.482  10.165  0.0907  0.2507  0.0005
  131loPI   GL1 2085  17.622   4.459   9.733  0.1558  0.1228 -0.0496
  131loPI   GL2 2086  17.883   4.771   9.716 -0.2088 -0.0573 -0.0635
  131loPI   C1A 2087  17.281   4.524   9.476  0.2400 -0.1562 -0.0033
  131loPI   C2A 2088  17.152   4.436   9.076  0.1726 -0.0464  0.1155
  131loPI   C3A 2089  17.096   4.584   8.747 -0.0860 -0.0713 -0.0431
  131loPI   C4A 2090  17.357   4.746   8.486  0.0656  0.1265  0.0248
  131loPI   C5A 2091  17.534   4.681   8.124  0.1943  0.1771 -0.1787
  131loPI   C6A 2092  17.512   4.728   7.738 -0.0000 -0.1573 -0.1803
  131loPI   C1B 2093  17.568   4.976   9.510  0.2421  0.2459 -0.1504
  131loPI   C2B 2094  17.283   5.261   9.333  0.3767 -0.3403  0.2884
  131loPI   C3B 2095  16.823   5.409   9.192  0.4343 -0.5094 -0.3264
  131loPI   C4B 2096  16.431   5.149   9.248  0.0922 -0.1035  0.0039
  132loPI    C1 2097   9.206   3.690  10.231  0.0182 -0.0510 -0.4579
  132loPI    C2 2098   9.197   3.487  10.576  0.1296 -0.0815 -0.4724
  132loPI    C3 2099   8.904   3.439  10.308  0.0163 -0.0196 -0.3611
  132loPI   PO4 2100   9.486   3.736  10.267  0.0171 -0.0718 -0.1613
  132loPI   GL1 2101   9.734   3.865   9.923 -0.1524  0.3339  0.3849
  132loPI   GL2 2102   9.994   4.105   9.965 -0.2238 -0.1459  0.2935
  132loPI   C1A 2103   9.785   3.808   9.490  0.1922  0.4122 -0.1784
  132loPI   C2A 2104   9.799   3.651   9.115  0.1370 -0.1202  0.4573
  132loPI   C3A 2105   9.756   3.670   8.704  0.0122  0.2272  0.1383
  132loPI   C4A 2106   9.843   3.627   8.189  0.0174 -0.3319 -0.2102
  132loPI   C5A 2107   9.770   3.335   7.755 -0.3031 -0.0368 -0.0155
  132loPI   C6A 2108   9.592   3.384   7.252  0.1159  0.1857 -0.0154
  132loPI   C1B 2109  10.222   3.773   9.746 -0.1356  0.1769 -0.2201
  132loPI   C2B 2110  10.305   3.679   9.284  0.2561  0.2511 -0.0278
  132loPI   C3B 2111  10.253   3.631   8.909  0.0544 -0.3213  0.2227
  132loPI   C4B 2112  10.286   3.517   8.503 -0.1413  0.3012 -0.0645
  133loPI    C1 2113  14.872  11.230  11.104 -0.0709  0.1562  0.0271
  133loPI    C2 2114  15.206  11.127  11.298  0.0637 -0.0470 -0.3038
  133loPI    C3 2115  14.879  10.899  11.330  0.0335  0.0127 -0.1825
  133loPI   PO4 2116  15.081  11.345  10.867 -0.2970 -0.1146  0.0179
  133loPI   GL1 2117  15.224  11.354  10.478  0.1911 -0.1894  0.0487
  133loPI   GL2 2118  15.377  11.142  10.359 -0.2460  0.0392 -0.2683
  133loPI   C1A 2119  14.979  11.434  10.077 -0.1092 -0.1065  0.1283
  133loPI   C2A 2120  15.109  11.423   9.602  0.0759  0.2297  0.1027
  133loPI   C3A 2121  15.465  11.392   9.290  0.2601  0.5328 -0.0837
  133loPI   C4A 2122  15.765  11.445   8.915  0.0975 -0.0739  0.2236
  133loPI   C5A 2123  15.586  11.275   8.505 -0.3214 -0.0721 -0.1447
  133loPI   C6A 2124  15.663  11.236   8.036  0.3286 -0.1331 -0.2427
  133loPI   C1B 2125  15.443  11.168   9.928  0.0547 -0.2770 -0.0175
  133loPI   C2B 2126  15.689  11.444   9.710 -0.1557  0.0472 -0.3821
  133loPI   C3B 2127  15.944  11.628   9.418  0.1654  0.2424 -0.1474
  133loPI   C4B 2128  16.150  11.999   9.328 -0.0188  0.2437  0.1396
  134loPI    C1 2129  15.725   1.812  10.336  0.0536 -0.0654  0.0535
  134loPI    C2 2130  15.586   1.839  10.710 -0.0478 -0.0752  0.0169
  134loPI    C3 2131  15.936   1.659  10.639 -0.0822 -0.1741  0.0945
  134loPI   PO4 2132  15.522   1.794  10.145 -0.1626  0.0400  0.0919
  134loPI   GL1 2133  15.697   1.607   9.802  0.0651 -0.0414  0.0908
  134loPI   GL2 2134  15.424   1.607   9.640  0.4007  0.1270 -0.2538
  134loPI   C1A 2135  15.827   1.642   9.342 -0.0286 -0.4054 -0.1218
  134loPI   C2A 2136  15.719   1.691   8.989 -0.0266  0.0672 -0.0160
  134loPI   C3A 2137  15.642   1.661   8.485  0.2144  0.0884  0.1775
  134loPI   C4A 2138  15.527   1.633   8.100  0.1831 -0.1988  0.1638
  134loPI   C5A 2139  15.701   1.493   7.710 -0.0273  0.2347  0.2956
  134loPI   C6A 2140  15.671   1.651   7.288 -0.0366 -0.0858 -0.2645
  134loPI   C1B 2141  15.290   1.791   9.307  0.2348  0.0751 -0.1816
  134loPI   C2B 2142  15.138   2.147   9.096  0.2014 -0.1666  0.0209
  134loPI   C3B 2143  15.066   2.362   8.700 -0.0433 -0.1939 -0.1793
  134loPI   C4B 2144  14.784   2.384   8.372  0.2100  0.0128 -0.0910
  135loPI    C1 2145  12.440   8.194  10.183  0.3443 -0.0762 -0.0794
  135loPI    C2 2146  12.366   8.313  10.558 -0.0247 -0.1524 -0.1247
  135loPI    C3 2147  12.574   7.978  10.492  0.0784 -0.1156  0.0111
  135loPI   PO4 2148  12.487   8.392  10.052  0.0274 -0.3620  0.0457
  135loPI   GL1 2149  12.392   8.350   9.647 -0.0908  0.1875 -0.4432
  135loPI   GL2 2150  12.667   8.114   9.662  0.1830  0.0846 -0.0820
  135loPI   C1A 2151  12.473   8.309   9.236 -0.1398 -0.1997  0.0350
  135loPI   C2A 2152  12.561   8.408   8.799 -0.2213  0.3083 -0.3701
  135loPI   C3A 2153  12.807   8.569   8.465 -0.0420  0.3148  0.1625
  135loPI   C4A 2154  12.909   8.634   8.108 -0.0407  0.2221 -0.0451
  135loPI   C5A 2155  13.393   8.653   7.992  0.2631 -0.1962  0.1674
  135loPI   C6A 2156  13.668   8.418   7.915  0.3707  0.0325 -0.0759
  135loPI   C1B 2157  12.735   7.859   9.206 -0.0970 -0.2143  0.0159
  135loPI   C2B 2158  12.942   7.748   8.840 -0.0420 -0.1022  0.2762
  135loPI   C3B 2159  13.003   7.992   8.473  0.1029  0.0954 -0.2721
  135loPI   C4B 2160  13.195   8.229   8.120  0.1657  0.3581  0.1000
  136loPI    C1 2161  15.269  15.472  10.494 -0.2351  0.0162 -0.2372
  136loPI    C2 2162  15.126  15.123  10.626 -0.0077  0.0242  0.0396
  136loPI    C3 2163  15.272  15.390  10.885  0.0628  0.2157 -0.1940
  136loPI   PO4 2164  15.074  15.512  10.285  0.0475 -0.1304  0.1081
  136loPI   GL1 2165  14.861  15.578   9.897  0.0411 -0.1072 -0.3286
  136loPI   GL2 2166  15.155  15.796   9.939  0.0734 -0.0238 -0.0339
  136loPI   C1A 2167  14.711  15.621   9.424 -0.2233  0.0700 -0.1030
  136loPI   C2A 2168  14.692  15.510   8.993 -0.0372  0.0779 -0.3409
  136loPI   C3A 2169  14.501  15.450   8.651 -0.1891 -0.1047  0.0061
  136loPI   C4A 2170  14.417  15.555   8.218 -0.2164  0.2395 -0.1511
  136loPI   C5A 2171  14.219  15.827   7.895 -0.0025  0.0875  0.2337
  136loPI   C6A 2172  13.929  16.143   7.753  0.0184 -0.1241 -0.1984
  136loPI   C1B 2173  15.190  15.746   9.546 -0.0440 -0.1031  0.0018
  136loPI   C2B 2174  15.146  15.764   9.153 -0.1001 -0.1399  0.0183
  136loPI   C3B 2175  15.133  15.637   8.660 -0.0999  0.1641 -0.1365
  136loPI   C4B 2176  14.935  15.752   8.306 -0.0085 -0.0612  0.1286
  137loPI    C1 2177  10.066   5.214  10.121 -0.1595  0.1520 -0.0322
  137loPI    C2 2178  10.182   5.350  10.479  0.0092  0.0731 -0.0560
  137loPI    C3 2179   9.817   5.437  10.341 -0.0514  0.1162  0.1285
  137loPI   PO4 2180  10.153   5.318   9.985 -0.0607 -0.1671 -0.1987
  137loPI   GL1 2181  10.484   5.208   9.715 -0.1921  0.0169  0.2079
  137loPI   GL2 2182  10.495   4.887   9.728  0.1843  0.1752 -0.1007
  137loPI   C1A 2183  10.355   5.044   9.288  0.1630  0.1349  0.0499
  137loPI   C2A 2184  10.352   5.095   8.892 -0.1732  0.1674  0.0307
  137loPI   C3A 2185  10.311   4.860   8.461  0.1681  0.1900  0.0814
  137loPI   C4A 2186  10.342   5.082   8.069 -0.0396  0.0240 -0.1010
  137loPI   C5A 2187  10.064   5.103   7.741 -0.2191 -0.0305  0.2844
  137loPI   C6A 2188   9.768   5.130   7.405  0.0582 -0.1538 -0.0377
  137loPI   C1B 2189  10.498   4.544   9.307 -0.4792 -0.1025 -0.1157
  137loPI   C2B 2190  10.475   4.482   8.884 -0.3131  0.0347 -0.1412
  137loPI   C3B 2191  10.637   4.461   8.390  0.0765 -0.0009 -0.1181
  137loPI   C4B 2192  10.553   4.210   7.963  0.0888 -0.1855 -0.5184
  138loPI    C1 2193   5.541   0.093  10.944  0.0505 -0.2722  0.0211
  138loPI    C2 2194   5.195   0.191  11.121  0.0710  0.2092 -0.1897
  138loPI    C3 2195   5.515   0.098  11.343 -0.1952 -0.2727  0.0066
  138loPI   PO4 2196   5.451  -0.135  10.792 -0.0747  0.1858 -0.1499
  138loPI   GL1 2197   5.487  -0.190  10.355 -0.1588 -0.0077  0.3573
  138loPI   GL2 2198   5.222  -0.065  10.226 -0.0468  0.0576  0.0360
  138loPI   C1A 2199   5.610  -0.204   9.794  0.0324 -0.1206  0.2436
  138loPI   C2A 2200   5.645  -0.318   9.351 -0.0668  0.1123  0.1658
  138loPI   C3A 2201   5.469  -0.212   8.848 -0.2471  0.3601  0.5007
  138loPI   C4A 2202   5.657  -0.121   8.426  0.3251  0.0500  0.0565
  138loPI   C5A 2203   5.934  -0.139   8.033 -0.5680 -0.2028 -0.0819
  138loPI   C6A 2204   6.055   0.047   7.685  0.1743 -0.4010 -0.0121
  138loPI   C1B 2205   5.127  -0.169   9.812  0.2546 -0.2080  0.0604
  138loPI   C2B 2206   4.905  -0.287   9.528 -0.1025  0.1553  0.2214
  138loPI   C3B 2207   4.702  -0.211   9.082 -0.1888 -0.0612 -0.0976
  138loPI   C4B 2208   4.607  -0.045   8.636 -0.0104  0.0537  0.3201
  139loPI    C1 2209  10.884   0.703  10.158 -0.0695 -0.0625  0.2349
  139loPI    C2 2210  10.680   0.752  10.498 -0.0057 -0.0046  0.2652
  139loPI    C3 2211  11.071   0.665  10.510  0.0328  0.1571  0.2063
  139loPI   PO4 2212  10.723   0.713  10.007  0.1228  0.2197 -0.1253
  139loPI   GL1 2213  10.564   0.655   9.656 -0.2361 -0.2602 -0.0798
  139loPI   GL2 2214  10.266   0.913   9.627  0.0688 -0.2084 -0.0073
  139loPI   C1A 2215  10.529   0.322   9.413  0.2460 -0.3373 -0.0740
  139loPI   C2A 2216  10.451   0.197   9.023 -0.0738  0.0116  0.1252
  139loPI   C3A 2217  10.415   0.289   8.521  0.1132 -0.0251 -0.0391
  139loPI   C4A 2218  10.366   0.386   8.128 -0.3752 -0.2676  0.1066
  139loPI   C5A 2219  10.403   0.795   7.887 -0.0733 -0.3257 -0.1598
  139loPI   C6A 2220  10.668   0.983   7.551 -0.0468  0.1424  0.1283
  139loPI   C1B 2221  10.180   0.669   9.196 -0.1144  0.0071  0.0261
  139loPI   C2B 2222  10.189   0.652   8.799  0.1841 -0.2080  0.1861
  139loPI   C3B 2223  10.157   0.786   8.347  0.2499 -0.2181  0.0455
  139loPI   C4B 2224   9.979   0.949   7.893  0.1949 -0.0289 -0.2585
  140loPI    C1 2225   0.362  12.260  10.695  0.2559  0.1722 -0.0718
  140loPI    C2 2226   0.141  12.587  10.630  0.0159  0.0171 -0.0489
  140loPI    C3 2227   0.203  12.459  11.004  0.2599  0.1360 -0.0464
  140loPI   PO4 2228   0.627  12.306  10.453 -0.3060  0.0037  0.0942
  140loPI   GL1 2229   0.764  12.368  10.103  0.1943 -0.3047 -0.1458
  140loPI   GL2 2230   0.474  12.377   9.941 -0.2123  0.3413 -0.1101
  140loPI   C1A 2231   1.052  12.387   9.738 -0.0004  0.2158 -0.1679
  140loPI   C2A 2232   1.088  12.127   9.428 -0.0377  0.0514  0.0040
  140loPI   C3A 2233   1.015  12.173   8.970  0.0945  0.0103  0.2734
  140loPI   C4A 2234   0.762  12.299   8.532 -0.0611 -0.0384 -0.0495
  140loPI   C5A 2235   0.390  12.279   8.300  0.4422  0.0181 -0.1594
  140loPI   C6A 2236   0.157  12.392   7.987 -0.0628  0.2067 -0.1994
  140loPI   C1B 2237   0.172  12.388   9.607 -0.3146  0.2193  0.0965
  140loPI   C2B 2238   0.048  12.502   9.256 -0.3704 -0.0099  0.2369
  140loPI   C3B 2239  -0.188  12.672   8.909 -0.2169 -0.2402  0.1551
  140loPI   C4B 2240  -0.345  12.981   8.652  0.0089  0.0936 -0.0297
  141loPI    C1 2241  18.613  11.662  10.803  0.1663 -0.0367  0.0861
  141loPI    C2 2242  18.928  11.598  11.040  0.2473  0.1641  0.0347
  141loPI    C3 2243  18.645  11.858  11.150  0.2083  0.1442 -0.0183
  141loPI   PO4 2244  18.764  11.833  10.541  0.2806 -0.1718  0.0801
  141loPI   GL1 2245  18.596  11.795  10.076  0.1353 -0.0065 -0.1020
  141loPI   GL2 2246  18.854  11.534  10.094  0.3055  0.3159 -0.0167
  141loPI   C1A 2247  18.821  11.900   9.722  0.1452  0.1946  0.0976
  141loPI   C2A 2248  18.596  11.969   9.287 -0.0707 -0.2159  0.1009
  141loPI   C3A 2249  18.435  11.965   8.851  0.2328 -0.0862  0.0705
  141loPI   C4A 2250  18.510  12.308   8.619  0.0241  0.1550  0.0466
  141loPI   C5A 2251  18.474  12.587   8.335  0.1198  0.1619 -0.0331
  141loPI   C6A 2252  18.339  12.705   7.893  0.1789 -0.0665  0.0986
  141loPI   C1B 2253  19.009  11.456   9.660 -0.0349 -0.2018 -0.0602
  141loPI   C2B 2254  18.944  11.620   9.328 -0.1067  0.2783  0.1162
  141loPI   C3B 2255  18.908  11.505   8.855 -0.1349  0.0256 -0.0788
  141loPI   C4B 2256  18.958  11.553   8.372  0.5203  0.3661  0.4356
  142loPI    C1 2257   8.711  10.964  10.152 -0.2032 -0.0905  0.0365
  142loPI    C2 2258   8.635  10.740  10.475 -0.1600 -0.0730  0.0589
  142loPI    C3 2259   8.927  10.635  10.223 -0.0357  0.0429  0.1531
  142loPI   PO4 2260   8.445  11.026   9.937  0.0423  0.1368 -0.2250
  142loPI   GL1 2261   8.327  10.808   9.631 -0.0574 -0.0250 -0.0827
  142loPI   GL2 2262   8.250  10.949   9.466  0.5238  0.0302  0.0713
  142loPI   C1A 2263   8.666  10.653   9.346  0.0341  0.1295 -0.0406
  142loPI   C2A 2264   8.662  10.598   8.920 -0.0839 -0.1221 -0.1472
  142loPI   C3A 2265   8.762  10.469   8.536  0.0927 -0.0440  0.5227
  142loPI   C4A 2266   8.856  10.325   8.132 -0.2095  0.0565  0.0790
  142loPI   C5A 2267   8.820  10.420   7.732 -0.2197 -0.2438  0.1882
  142loPI   C6A 2268   8.492  10.331   7.413 -0.0993 -0.0988 -0.3626
  142loPI   C1B 2269   8.179  10.848   9.115 -0.1379 -0.0187  0.2197
  142loPI   C2B 2270   8.202  10.880   8.821 -0.0371 -0.0144  0.0592
  142loPI   C3B 2271   8.179  10.942   8.464  0.1439  0.0660 -0.1100
  142loPI   C4B 2272   8.343  11.046   8.003  0.4108  0.2643  0.1249
  143loPI    C1 2273  13.224   2.710  10.600  0.0846 -0.1806  0.0241
  143loPI    C2 2274  12.855   2.615  10.724  0.0001 -0.0833 -0.1482
  143loPI    C3 2275  13.142   2.697  10.991 -0.0822 -0.2356 -0.0117
  143loPI   PO4 2276  13.187   2.810  10.334 -0.0991  0.0174 -0.1367
  143loPI   GL1 2277  12.934   2.607   9.973 -0.0076 -0.2132  0.1851
  143loPI   GL2 2278  13.047   2.272   9.936  0.1080  0.0301 -0.0252
  143loPI   C1A 2279  13.260   2.669   9.667  0.2039  0.0535  0.2659
  143loPI   C2A 2280  13.299   2.836   9.319 -0.3232 -0.1096  0.6118
  143loPI   C3A 2281  13.272   2.974   8.836  0.2668 -0.0631 -0.1934
  143loPI   C4A 2282  13.318   2.689   8.513 -0.3314 -0.2519 -0.2035
  143loPI   C5A 2283  13.468   2.620   8.120  0.2047 -0.1752 -0.2387
  143loPI   C6A 2284  13.684   2.459   7.753 -0.3606  0.1573  0.0576
  143loPI   C1B 2285  12.905   2.271   9.518 -0.2132  0.2458 -0.2790
  143loPI   C2B 2286  12.937   2.215   9.097 -0.1250 -0.1947  0.0823
  143loPI   C3B 2287  12.841   2.121   8.706 -0.0516  0.0182 -0.4224
  143loPI   C4B 2288  12.875   1.945   8.362  0.0294 -0.1718 -0.0822
  144loPI    C1 2289  14.355   3.782  10.218  0.2136 -0.2736  0.1126
  144loPI    C2 2290  14.047   3.945  10.021  0.1347 -0.2290  0.2710
  144loPI    C3 2291  14.013   3.579  10.179  0.2523 -0.3303  0.0664
  144loPI   PO4 2292  14.512   3.757  10.084  0.0289 -0.0722 -0.3164
  144loPI   GL1 2293  14.465   3.766   9.719  0.0557 -0.1615  0.0002
  144loPI   GL2 2294  14.465   3.460   9.614  0.0458  0.1366  0.1604
  144loPI   C1A 2295  14.371   4.046   9.336  0.0608  0.1065  0.0534
  144loPI   C2A 2296  14.437   4.209   8.977  0.3421  0.1831 -0.0164
  144loPI   C3A 2297  14.435   4.094   8.514 -0.0761  0.0390 -0.0471
  144loPI   C4A 2298  14.683   4.134   8.184 -0.0230  0.2590  0.0261
  144loPI   C5A 2299  14.821   4.432   7.825 -0.0533 -0.0095 -0.0404
  144loPI   C6A 2300  14.800   4.808   7.727 -0.0719  0.0772 -0.0908
  144loPI   C1B 2301  14.201   3.608   9.277 -0.0537 -0.3098  0.4001
  144loPI   C2B 2302  14.395   3.697   8.859  0.0007  0.1828  0.0748
  144loPI   C3B 2303  14.816   3.858   8.622 -0.0341  0.0876  0.0963
  144loPI   C4B 2304  15.173   3.899   8.373  0.0127 -0.0390  0.1581
  145loPI    C1 2305  18.511  17.824  10.500  0.1923  0.0613  0.0532
  145loPI    C2 2306  18.404  18.206  10.553 -0.0414  0.0200 -0.1083
  145loPI    C3 2307  18.474  17.973  10.870 -0.1874  0.1173 -0.0032
  145loPI   PO4 2308  18.588  17.784  10.314  0.1720  0.0174 -0.2046
  145loPI   GL1 2309  18.451  17.663   9.833 -0.0095  0.1731  0.2596
  145loPI   GL2 2310  18.300  17.399   9.737  0.1971  0.0415  0.3330
  145loPI   C1A 2311  18.376  17.866   9.418 -0.0583 -0.0408 -0.1061
  145loPI   C2A 2312  18.479  17.914   8.982 -0.2640 -0.0328 -0.1889
  145loPI   C3A 2313  18.490  18.140   8.594 -0.0132  0.0402  0.0413
  145loPI   C4A 2314  18.678  18.135   8.336 -0.1694  0.1747 -0.1455
  145loPI   C5A 2315  18.859  17.900   7.955  0.2929 -0.1310  0.0140
  145loPI   C6A 2316  18.957  17.448   7.786  0.0328  0.1328 -0.0948
  145loPI   C1B 2317  18.530  17.310   9.386 -0.2338 -0.2337 -0.0499
  145loPI   C2B 2318  18.724  17.245   8.911 -0.0376  0.1119 -0.1209
  145loPI   C3B 2319  18.860  17.219   8.510 -0.0012  0.0704  0.0310
  145loPI   C4B 2320  18.703  17.191   8.144 -0.4668  0.0188 -0.0564
  146loPI    C1 2321   3.018  15.513  10.412 -0.1685  0.0510  0.1382
  146loPI    C2 2322   2.674  15.428  10.598 -0.2895  0.1777 -0.0249
  146loPI    C3 2323   3.023  15.344  10.775 -0.4033  0.1049  0.1680
  146loPI   PO4 2324   2.976  15.408  10.174 -0.0144 -0.0744  0.1108
  146loPI   GL1 2325   3.070  15.366   9.725 -0.0862 -0.0433  0.3528
  146loPI   GL2 2326   2.757  15.299   9.740  0.3195  0.1992  0.1063
  146loPI   C1A 2327   3.342  15.347   9.329 -0.0018  0.0510  0.0812
  146loPI   C2A 2328   3.406  15.407   8.838 -0.2717  0.0101 -0.0760
  146loPI   C3A 2329   3.519  15.640   8.521  0.0699 -0.1278 -0.1305
  146loPI   C4A 2330   3.655  15.368   8.110 -0.0367  0.0149  0.0242
  146loPI   C5A 2331   3.578  15.129   7.706  0.3409 -0.1204 -0.3640
  146loPI   C6A 2332   3.686  14.790   7.288 -0.1095  0.0478  0.3828
  146loPI   C1B 2333   2.966  14.983   9.472  0.1655 -0.0763 -0.0161
  146loPI   C2B 2334   2.955  14.947   9.041 -0.0742  0.0582 -0.2661
  146loPI   C3B 2335   3.133  15.006   8.613 -0.2974  0.0310  0.0837
  146loPI   C4B 2336   3.158  15.326   8.299  0.1599  0.0881  0.0313
  147loPI    C1 2337   0.929  16.714  10.917  0.1133  0.0806  0.0520
  147loPI    C2 2338   1.168  16.450  11.100  0.0292 -0.0988 -0.0930
  147loPI    C3 2339   0.915  16.673  11.315  0.3306  0.1009  0.0629
  147loPI   PO4 2340   1.139  16.833  10.769 -0.0102 -0.1051  0.2149
  147loPI   GL1 2341   1.375  16.803  10.353  0.4877  0.1103  0.0488
  147loPI   GL2 2342   1.280  17.101  10.255  0.1909  0.0693  0.0236
  147loPI   C1A 2343   1.525  16.686   9.912  0.0141 -0.2079 -0.1369
  147loPI   C2A 2344   1.640  16.926   9.507 -0.3439 -0.0889 -0.2191
  147loPI   C3A 2345   1.357  16.807   9.245  0.0612  0.0299 -0.2723
  147loPI   C4A 2346   1.247  16.450   8.927  0.0588 -0.0194 -0.1110
  147loPI   C5A 2347   1.008  16.172   8.645  0.2279 -0.0515 -0.0607
  147loPI   C6A 2348   0.948  15.942   8.207  0.1328 -0.0683 -0.3130
  147loPI   C1B 2349   1.243  17.081   9.819 -0.0741  0.1867 -0.4319
  147loPI   C2B 2350   1.166  17.256   9.415  0.0066 -0.2011  0.2296
  147loPI   C3B 2351   1.191  17.215   8.963 -0.3688  0.1212  0.1655
  147loPI   C4B 2352   1.540  16.904   8.668 -0.1690 -0.1561 -0.0601
  148loPI    C1 2353   9.225   6.437   9.838 -0.0927 -0.2002 -0.1510
  148loPI    C2 2354   9.205   6.349  10.228  0.2073 -0.0571 -0.1006
  148loPI    C3 2355   8.993   6.655  10.081  0.2289 -0.0009 -0.0161
  148loPI   PO4 2356   9.522   6.326   9.801  0.1698 -0.1548  0.1022
  148loPI   GL1 2357   9.745   6.333   9.522 -0.0412  0.1285 -0.1272
  148loPI   GL2 2358  10.002   6.236   9.728  0.0243  0.3798 -0.0139
  148loPI   C1A 2359   9.747   6.211   9.189 -0.0180 -0.0139 -0.2160
  148loPI   C2A 2360   9.853   6.059   8.893  0.0673  0.1224 -0.3338
  148loPI   C3A 2361   9.906   6.294   8.544  0.0180 -0.0374  0.0008
  148loPI   C4A 2362   9.851   6.384   8.160  0.0880 -0.1370  0.1507
  148loPI   C5A 2363   9.606   6.359   7.942  0.0541 -0.0030 -0.1577
  148loPI   C6A 2364   9.408   6.230   7.541 -0.3226 -0.0680 -0.0747
  148loPI   C1B 2365  10.195   6.201   9.406  0.0309 -0.0651  0.2793
  148loPI   C2B 2366  10.333   6.318   8.925 -0.0193  0.0543  0.1774
  148loPI   C3B 2367  10.349   6.486   8.540  0.0141  0.2339 -0.0245
  148loPI   C4B 2368  10.336   6.504   8.077  0.0732 -0.2949  0.2048
  149loPI    C1 2369  13.466  13.769  10.164 -0.1901 -0.0471  0.1878
  149loPI    C2 2370  13.495  13.497  10.456 -0.1127 -0.3061 -0.0575
  149loPI    C3 2371  13.199  13.472  10.187 -0.2034 -0.0495  0.0163
  149loPI   PO4 2372  13.608  13.968  10.246 -0.2551 -0.1254  0.3386
  149loPI   GL1 2373  13.876  14.018   9.969 -0.3220 -0.0729  0.1636
  149loPI   GL2 2374  14.145  13.923   9.935  0.1967 -0.2755  0.0302
  149loPI   C1A 2375  13.949  13.877   9.494  0.1826 -0.0411 -0.1819
  149loPI   C2A 2376  13.892  13.781   9.012  0.3288  0.1291 -0.1717
  149loPI   C3A 2377  13.864  13.685   8.575  0.1659  0.4376  0.1070
  149loPI   C4A 2378  13.904  13.428   8.196 -0.1818 -0.3230 -0.1788
  149loPI   C5A 2379  13.621  13.210   7.922  0.0176 -0.0267  0.4538
  149loPI   C6A 2380  13.188  13.057   7.876 -0.0095 -0.0784 -0.0793
  149loPI   C1B 2381  14.455  13.917   9.557 -0.1335  0.1891 -0.0996
  149loPI   C2B 2382  14.632  13.785   9.131 -0.0069 -0.0947 -0.2179
  149loPI   C3B 2383  14.910  13.714   8.773  0.1445  0.0911 -0.4187
  149loPI   C4B 2384  15.214  13.775   8.587 -0.0293 -0.0384 -0.1612
  150loPI    C1 2385  11.219   9.100   9.902  0.0864  0.1721 -0.3116
  150loPI    C2 2386  11.443   8.800  10.042 -0.0337  0.1621 -0.1392
  150loPI    C3 2387  11.589   9.172  10.037  0.0311  0.1368 -0.1390
  150loPI   PO4 2388  10.999   8.928   9.854  0.2432  0.0152  0.1020
  150loPI   GL1 2389  10.999   8.759   9.542 -0.1048 -0.1360  0.3443
  150loPI   GL2 2390  11.249   8.517   9.661  0.1629 -0.1123  0.3144
  150loPI   C1A 2391  11.021   8.714   9.067 -0.0511  0.1192  0.0304
  150loPI   C2A 2392  10.945   8.783   8.635  0.0064 -0.0198  0.0273
  150loPI   C3A 2393  10.807   9.082   8.317  0.0864  0.1101  0.0325
  150loPI   C4A 2394  10.680   9.179   7.879  0.0187  0.1938 -0.2038
  150loPI   C5A 2395  10.725   9.384   7.465 -0.2286  0.0208  0.1078
  150loPI   C6A 2396  10.625   9.808   7.186  0.2594 -0.1789  0.0738
  150loPI   C1B 2397  11.206   8.255   9.198 -0.2105 -0.0169 -0.0404
  150loPI   C2B 2398  11.090   8.262   8.769 -0.1202 -0.1566  0.1900
  150loPI   C3B 2399  10.952   8.409   8.305  0.0874 -0.1075 -0.0575
  150loPI   C4B 2400  10.876   8.612   7.935  0.3937  0.0390 -0.2424
  151loPI    C1 2401   8.438   2.138  10.662  0.0420 -0.0583  0.1577
  151loPI    C2 2402   8.644   1.795  10.646  0.1946  0.0275  0.2610
  151loPI    C3 2403   8.456   1.901  10.983  0.0399 -0.0155  0.1895
  151loPI   PO4 2404   8.412   2.171  10.389  0.0468 -0.0694 -0.1927
  151loPI   GL1 2405   8.668   2.327   9.949  0.0517  0.1050 -0.2204
  151loPI   GL2 2406   8.388   2.347   9.947  0.2240  0.1061 -0.1326
  151loPI   C1A 2407   8.745   2.160   9.643 -0.1102  0.1248  0.1820
  151loPI   C2A 2408   8.821   2.048   9.215  0.1334 -0.0896 -0.1647
  151loPI   C3A 2409   8.584   2.098   8.853  0.1978  0.1914  0.2823
  151loPI   C4A 2410   8.580   1.957   8.456 -0.0331  0.3044 -0.0090
  151loPI   C5A 2411   8.550   2.149   8.013  0.1086  0.1185  0.0583
  151loPI   C6A 2412   8.344   1.993   7.684 -0.1398 -0.4000  0.1904
  151loPI   C1B 2413   8.274   2.246   9.451 -0.1514  0.1795 -0.0230
  151loPI   C2B 2414   8.105   2.129   9.007  0.2062 -0.0797 -0.0368
  151loPI   C3B 2415   8.078   2.023   8.634 -0.0897 -0.3012  0.0978
  151loPI   C4B 2416   8.168   1.722   8.210  0.1427 -0.1703  0.0265
  152loPI    C1 2417  16.726   5.228  10.568 -0.0006 -0.3089  0.0352
  152loPI    C2 2418  16.865   4.854  10.547  0.3557 -0.1704 -0.1687
  152loPI    C3 2419  17.075   5.135  10.739  0.0686 -0.0815  0.0213
  152loPI   PO4 2420  16.777   5.305  10.275  0.0588 -0.0038  0.0421
  152loPI   GL1 2421  16.687   5.236   9.891  0.2600 -0.2190  0.2322
  152loPI   GL2 2422  16.749   5.078   9.602 -0.0100 -0.0156  0.2248
  152loPI   C1A 2423  16.470   5.593   9.547 -0.0881 -0.0038 -0.2899
  152loPI   C2A 2424  16.149   5.820   9.244  0.0906 -0.0061  0.2069
  152loPI   C3A 2425  16.044   5.895   8.807  0.0020 -0.1800 -0.0671
  152loPI   C4A 2426  16.273   6.008   8.368 -0.0982  0.0141  0.0744
  152loPI   C5A 2427  16.349   6.196   7.961  0.0421  0.2264 -0.3863
  152loPI   C6A 2428  16.376   6.258   7.576  0.0491  0.0848  0.1046
  152loPI   C1B 2429  16.931   4.943   9.267  0.2254  0.2669 -0.2880
  152loPI   C2B 2430  16.782   5.075   8.879 -0.0619  0.2262  0.0069
  152loPI   C3B 2431  16.452   5.060   8.606  0.0456  0.5038  0.0588
  152loPI   C4B 2432  16.512   5.154   8.179  0.3134  0.2455 -0.0203
  153loPI    C1 2433   4.874   7.057  10.128  0.1666  0.2663  0.2703
  153loPI    C2 2434   4.974   6.670  10.106 -0.2436  0.1710 -0.0292
  153loPI    C3 2435   5.092   6.890  10.419  0.0886 -0.1647  0.0880
  153loPI   PO4 2436   4.938   7.136   9.853  0.0897  0.0673  0.1518
  153loPI   GL1 2437   5.084   6.831   9.560 -0.0499 -0.2219  0.2402
  153loPI   GL2 2438   4.865   7.063   9.377 -0.1910 -0.0674 -0.1508
  153loPI   C1A 2439   5.408   6.977   9.171  0.3693  0.0846 -0.1642
  153loPI   C2A 2440   5.396   7.216   8.835 -0.0261  0.1048  0.1034
  153loPI   C3A 2441   5.370   7.163   8.463  0.2446  0.0932  0.2452
  153loPI   C4A 2442   5.232   7.214   8.036 -0.2410  0.0389 -0.1433
  153loPI   C5A 2443   5.226   7.077   7.708 -0.3293  0.1341 -0.0138
  153loPI   C6A 2444   5.460   6.771   7.372  0.0131 -0.1308 -0.2620
  153loPI   C1B 2445   4.929   6.990   8.929  0.0991 -0.1264  0.2874
  153loPI   C2B 2446   4.855   7.046   8.491  0.0276  0.0089  0.3556
  153loPI   C3B 2447   4.828   6.892   8.063  0.0114 -0.0422 -0.0460
  153loPI   C4B 2448   4.541   6.761   7.763  0.4445 -0.0580 -0.0966
  154loPI    C1 2449   1.039   6.730  10.253 -0.0612  0.0335 -0.2962
  154loPI    C2 2450   1.359   6.949  10.351 -0.1033  0.0295 -0.1462
  154loPI    C3 2451   1.384   6.550  10.344 -0.1815  0.0172  0.1526
  154loPI   PO4 2452   0.934   6.845  10.036 -0.1278  0.1453  0.0401
  154loPI   GL1 2453   0.863   6.918   9.593 -0.3280  0.1296 -0.0277
  154loPI   GL2 2454   0.536   6.837   9.537  0.1556  0.1041  0.1143
  154loPI   C1A 2455   0.582   7.320   9.491 -0.3204 -0.3315 -0.1644
  154loPI   C2A 2456   0.447   7.395   9.093  0.0523  0.0559  0.1886
  154loPI   C3A 2457   0.510   7.424   8.722 -0.2085  0.1234  0.3814
  154loPI   C4A 2458   0.642   7.308   8.282  0.0213  0.4322  0.0017
  154loPI   C5A 2459   0.772   7.126   7.901  0.0147  0.0316  0.1988
  154loPI   C6A 2460   0.925   7.176   7.431 -0.0136 -0.0665 -0.0013
  154loPI   C1B 2461   0.758   6.957   9.106 -0.1181  0.2010  0.2741
  154loPI   C2B 2462   0.716   6.835   8.589  0.5280 -0.1622  0.1268
  154loPI   C3B 2463   0.637   6.698   8.138  0.3083  0.0252 -0.2049
  154loPI   C4B 2464   0.494   6.754   7.742 -0.2351  0.0647 -0.1736
  155loPI    C1 2465  11.369   1.482  10.306 -0.1656  0.0141  0.1046
  155loPI    C2 2466  11.068   1.651  10.507 -0.0714  0.0380  0.2271
  155loPI    C3 2467  11.375   1.489  10.706  0.1150  0.2300  0.0996
  155loPI   PO4 2468  11.259   1.633  10.059 -0.2013  0.2015  0.0528
  155loPI   GL1 2469  10.926   1.689   9.749  0.1060  0.0600  0.1788
  155loPI   GL2 2470  11.053   1.997   9.818 -0.0801 -0.2663  0.5598
  155loPI   C1A 2471  10.991   1.805   9.263  0.0625 -0.0147  0.0518
  155loPI   C2A 2472  11.019   1.826   8.862  0.1168  0.0280  0.2372
  155loPI   C3A 2473  11.075   1.982   8.422 -0.0509 -0.1326 -0.0368
  155loPI   C4A 2474  10.854   2.021   8.068  0.2550  0.2004 -0.0715
  155loPI   C5A 2475  10.621   1.755   7.866 -0.0380  0.1929 -0.3154
  155loPI   C6A 2476  10.299   1.563   7.583  0.0308 -0.0836 -0.1954
  155loPI   C1B 2477  10.817   2.182   9.494  0.1077  0.1382  0.0849
  155loPI   C2B 2478  10.963   2.315   9.072  0.1262  0.0259 -0.0778
  155loPI   C3B 2479  11.029   2.382   8.741  0.2318  0.1268  0.0023
  155loPI   C4B 2480  11.000   2.433   8.275  0.0914 -0.0546  0.0109
  156loPI    C1 2481  15.906  16.423  10.413  0.1079  0.0683 -0.0266
  156loPI    C2 2482  15.729  16.233  10.718  0.0115 -0.0894 -0.1790
  156loPI    C3 2483  15.962  16.550  10.788 -0.0884 -0.0649  0.0498
  156loPI   PO4 2484  15.838  16.479  10.272 -0.0064 -0.2289 -0.1581
  156loPI   GL1 2485  15.978  16.601   9.921 -0.1537  0.2047  0.1822
  156loPI   GL2 2486  16.103  16.202   9.886  0.0519  0.0375  0.0496
  156loPI   C1A 2487  15.790  16.431   9.551  0.1035  0.1238 -0.0613
  156loPI   C2A 2488  15.646  16.559   9.217 -0.2934 -0.3328  0.0130
  156loPI   C3A 2489  15.554  16.559   8.791 -0.0931 -0.2618 -0.0375
  156loPI   C4A 2490  15.280  16.593   8.386 -0.1914  0.1581  0.2326
  156loPI   C5A 2491  15.194  16.890   8.028 -0.1090  0.0160 -0.2968
  156loPI   C6A 2492  14.858  16.876   7.658  0.2194  0.1401 -0.1587
  156loPI   C1B 2493  16.247  15.959   9.548  0.3394  0.2659  0.0997
  156loPI   C2B 2494  16.266  15.800   9.176 -0.1002  0.1383  0.1120
  156loPI   C3B 2495  16.164  15.690   8.824 -0.3309 -0.0119  0.0977
  156loPI   C4B 2496  16.092  15.414   8.462 -0.2361 -0.1640  0.1739
  157loPI    C1 2497   7.234  18.069  10.864  0.3128 -0.2408 -0.0996
  157loPI    C2 2498   6.994  18.058  10.545 -0.0005  0.1557  0.1125
  157loPI    C3 2499   7.180  17.726  10.667 -0.0121 -0.0386 -0.3740
  157loPI   PO4 2500   7.463  18.301  10.744 -0.0484  0.1956  0.0496
  157loPI   GL1 2501   7.360  18.311  10.301  0.0652 -0.0751  0.1154
  157loPI   GL2 2502   7.420  17.991  10.300  0.1989  0.2037 -0.2556
  157loPI   C1A 2503   7.540  18.245   9.890  0.1882  0.3628 -0.1028
  157loPI   C2A 2504   7.370  18.191   9.409  0.1548  0.1434 -0.2560
  157loPI   C3A 2505   7.219  18.036   8.998 -0.2235 -0.1684  0.1825
  157loPI   C4A 2506   7.190  18.129   8.546 -0.0077  0.0552 -0.0634
  157loPI   C5A 2507   7.485  18.261   8.336 -0.1970 -0.2756  0.2556
  157loPI   C6A 2508   7.446  18.270   7.870  0.0126 -0.1980 -0.1060
  157loPI   C1B 2509   7.140  17.961  10.015  0.2058 -0.3912 -0.0229
  157loPI   C2B 2510   7.017  17.920   9.651  0.0995  0.2654 -0.0681
  157loPI   C3B 2511   6.960  17.695   9.256 -0.1226 -0.0027 -0.0596
  157loPI   C4B 2512   6.892  17.673   8.803  0.1537 -0.0909 -0.3220
  158loPI    C1 2513   3.095   0.080  10.657  0.1928  0.0796 -0.0985
  158loPI    C2 2514   3.324  -0.101  10.930 -0.0424 -0.1042 -0.0200
  158loPI    C3 2515   3.216   0.280  10.982 -0.0675 -0.1314  0.1326
  158loPI   PO4 2516   3.145   0.001  10.460  0.0282 -0.4033 -0.1159
  158loPI   GL1 2517   3.074  -0.033  10.039 -0.0539  0.1729 -0.2939
  158loPI   GL2 2518   2.856  -0.032  10.036  0.3989 -0.0009 -0.3710
  158loPI   C1A 2519   3.261  -0.048   9.677  0.2907  0.1117 -0.2269
  158loPI   C2A 2520   3.226   0.189   9.318  0.2421 -0.2920 -0.0103
  158loPI   C3A 2521   3.316   0.447   8.906  0.2575  0.0256 -0.0794
  158loPI   C4A 2522   3.219   0.329   8.575 -0.0382 -0.0503 -0.0958
  158loPI   C5A 2523   3.123   0.394   8.152  0.2150  0.1862 -0.0433
  158loPI   C6A 2524   3.181   0.576   7.705  0.0885 -0.0182 -0.0355
  158loPI   C1B 2525   2.773   0.019   9.545 -0.0716 -0.1372  0.2024
  158loPI   C2B 2526   2.631  -0.070   9.149 -0.3364  0.0021 -0.0536
  158loPI   C3B 2527   2.436  -0.119   8.794 -0.0113 -0.2844  0.0204
  158loPI   C4B 2528   2.118   0.075   8.520 -0.1225 -0.2361 -0.1203
  159loPI    C1 2529  17.464   8.160  10.906 -0.2209 -0.0329  0.0713
  159loPI    C2 2530  17.454   8.529  10.751 -0.1256 -0.0759 -0.0389
  159loPI    C3 2531  17.199   8.426  11.042 -0.1018  0.1003  0.0450
  159loPI   PO4 2532  17.404   8.021  10.624 -0.1485 -0.0261 -0.1327
  159loPI   GL1 2533  17.532   8.241  10.227  0.0794 -0.2510  0.2797
  159loPI   GL2 2534  17.272   8.301  10.153  0.1816  0.2071 -0.1543
  159loPI   C1A 2535  17.661   8.223   9.769  0.1291  0.2577  0.0570
  159loPI   C2A 2536  17.856   8.308   9.455 -0.2477  0.3997  0.0477
  159loPI   C3A 2537  17.900   8.780   9.223 -0.1926  0.0291 -0.2626
  159loPI   C4A 2538  17.659   9.050   9.032  0.1992 -0.4769 -0.1239
  159loPI   C5A 2539  17.379   8.996   8.622  0.0302 -0.1870  0.0209
  159loPI   C6A 2540  17.136   9.087   8.190  0.1489  0.0661 -0.1174
  159loPI   C1B 2541  17.146   8.343   9.747 -0.1615  0.0099  0.0363
  159loPI   C2B 2542  16.789   8.410   9.573  0.4971  0.0845  0.2644
  159loPI   C3B 2543  16.828   8.464   9.159 -0.0649  0.1425 -0.0146
  159loPI   C4B 2544  17.263   8.613   8.969 -0.0494 -0.0850 -0.2839
  160loPI    C1 2545  10.051  17.777  10.609 -0.2278  0.0689  0.0566
  160loPI    C2 2546   9.950  18.070  10.862 -0.2484 -0.0919  0.2370
  160loPI    C3 2547  10.213  17.790  10.974 -0.2036 -0.1251  0.0539
  160loPI   PO4 2548   9.931  17.874  10.333 -0.2550  0.2785 -0.2571
  160loPI   GL1 2549   9.564  17.778  10.110  0.0241  0.1687 -0.1364
  160loPI   GL2 2550   9.289  17.637  10.244  0.1220  0.0572  0.0468
  160loPI   C1A 2551   9.600  18.016   9.760 -0.1239 -0.1387 -0.2548
  160loPI   C2A 2552   9.473  18.104   9.353  0.2845 -0.0588  0.0399
  160loPI   C3A 2553   9.422  17.938   8.898  0.1354 -0.0383  0.2260
  160loPI   C4A 2554   9.292  17.979   8.450  0.2309 -0.2030  0.0642
  160loPI   C5A 2555   9.295  17.970   8.019 -0.2644 -0.0710  0.1160
  160loPI   C6A 2556   8.963  18.211   7.727  0.0675 -0.2373  0.1719
  160loPI   C1B 2557   9.052  17.932   9.825 -0.1180  0.2259 -0.0564
  160loPI   C2B 2558   9.038  17.807   9.460 -0.0372 -0.1321 -0.0508
  160loPI   C3B 2559   9.002  18.118   9.085 -0.0346  0.1828 -0.0448
  160loPI   C4B 2560   9.201  18.471   8.715 -0.0413  0.0033  0.0617
  161loPI    C1 2561   2.246   2.384  10.333  0.2195 -0.1747  0.1388
  161loPI    C2 2562   2.066   2.634  10.588  0.0160 -0.2294  0.0510
  161loPI    C3 2563   2.215   2.286  10.719  0.0932 -0.1667  0.1310
  161loPI   PO4 2564   2.341   2.487  10.189  0.1209 -0.1314 -0.0469
  161loPI   GL1 2565   2.461   2.243   9.858 -0.0616 -0.1668 -0.1091
  161loPI   GL2 2566   2.311   2.505   9.711 -0.2180  0.0100 -0.4198
  161loPI   C1A 2567   2.486   2.061   9.490  0.1474 -0.0464 -0.0435
  161loPI   C2A 2568   2.495   1.886   9.039 -0.4420  0.1203  0.2591
  161loPI   C3A 2569   2.457   1.960   8.654  0.2575  0.0464  0.1991
  161loPI   C4A 2570   2.485   1.716   8.299  0.2175  0.2312 -0.0367
  161loPI   C5A 2571   2.807   1.458   8.137 -0.0306  0.1573  0.0623
  161loPI   C6A 2572   3.067   1.409   8.364 -0.0688 -0.1864 -0.0885
  161loPI   C1B 2573   2.122   2.428   9.335 -0.0080  0.4293 -0.0806
  161loPI   C2B 2574   2.180   2.240   8.942  0.0373  0.2346  0.0637
  161loPI   C3B 2575   1.909   2.525   8.629 -0.0416  0.2236  0.0222
  161loPI   C4B 2576   1.992   2.937   8.570 -0.0984  0.2115  0.0471
  162loPI    C1 2577  18.482   7.451  10.624  0.1860  0.0219  0.1324
  162loPI    C2 2578  18.406   7.829  10.728  0.0497  0.0062  0.0915
  162loPI    C3 2579  18.589   7.584  10.985  0.1010  0.0884  0.1334
  162loPI   PO4 2580  18.547   7.388  10.317  0.0156  0.2726  0.4168
  162loPI   GL1 2581  18.587   7.596   9.904 -0.0683  0.0313 -0.0338
  162loPI   GL2 2582  18.926   7.675   9.901  0.1412 -0.1410 -0.2574
  162loPI   C1A 2583  18.413   7.802   9.571 -0.0684 -0.0690  0.3180
  162loPI   C2A 2584  18.259   7.992   9.213 -0.1497 -0.0676  0.0713
  162loPI   C3A 2585  18.188   8.417   8.943  0.0511 -0.2324 -0.3691
  162loPI   C4A 2586  18.249   8.445   8.486  0.0082 -0.0414 -0.1801
  162loPI   C5A 2587  18.179   8.646   8.245 -0.0588 -0.1718 -0.0490
  162loPI   C6A 2588  18.028   9.002   7.967 -0.0890 -0.0739  0.3591
  162loPI   C1B 2589  18.836   7.624   9.421 -0.0683  0.1908 -0.2910
  162loPI   C2B 2590  18.752   7.746   9.015  0.0498  0.1198 -0.3170
  162loPI   C3B 2591  18.649   7.496   8.637  0.1322 -0.0517 -0.0095
  162loPI   C4B 2592  18.453   7.393   8.181  0.1231  0.3940  0.0548
  163loPI    C1 2593   4.009  17.040  10.678 -0.0463  0.0457 -0.0109
  163loPI    C2 2594   3.798  17.297  10.900  0.0540  0.2916 -0.1943
  163loPI    C3 2595   4.195  17.334  10.875  0.0963 -0.0212 -0.0445
  163loPI   PO4 2596   3.834  16.974  10.473 -0.2392 -0.0813 -0.0825
  163loPI   GL1 2597   3.664  17.177  10.090 -0.1171 -0.1484 -0.0175
  163loPI   GL2 2598   3.477  16.776  10.031  0.2123  0.1756 -0.0791
  163loPI   C1A 2599   3.670  17.162   9.718  0.1140  0.1311  0.0325
  163loPI   C2A 2600   3.471  17.191   9.227  0.1707  0.5147 -0.1514
  163loPI   C3A 2601   3.724  16.999   8.848  0.2268  0.0106  0.3426
  163loPI   C4A 2602   3.716  16.940   8.446  0.2614  0.0175  0.1253
  163loPI   C5A 2603   3.776  16.744   8.101  0.0882 -0.0978  0.3067
  163loPI   C6A 2604   3.847  16.308   7.821  0.2638 -0.1462  0.2469
  163loPI   C1B 2605   3.520  16.737   9.549 -0.0520 -0.0906  0.3066
  163loPI   C2B 2606   3.755  16.613   9.196  0.0007  0.1592  0.1104
  163loPI   C3B 2607   3.719  16.467   8.769 -0.1827  0.0683 -0.0336
  163loPI   C4B 2608   3.744  16.336   8.361  0.2199  0.0195 -0.0789
  164loPI    C1 2609   1.896  10.504  10.548  0.1257  0.0453  0.1372
  164loPI    C2 2610   2.057  10.326  10.868 -0.0517 -0.0111  0.1968
  164loPI    C3 2611   2.128  10.713  10.797  0.0069 -0.0043  0.2914
  164loPI   PO4 2612   1.980  10.338  10.369 -0.3625  0.2799 -0.0444
  164loPI   GL1 2613   1.685  10.005  10.109  0.2906  0.0931 -0.1830
  164loPI   GL2 2614   1.468  10.146   9.874 -0.2161  0.0052 -0.1867
  164loPI   C1A 2615   1.917   9.966   9.758 -0.0835 -0.3388  0.1555
  164loPI   C2A 2616   1.936   9.881   9.245  0.2439 -0.3321  0.0995
  164loPI   C3A 2617   1.857  10.014   8.764  0.2687  0.1732 -0.0710
  164loPI   C4A 2618   1.557  10.095   8.493  0.3521  0.3055  0.0455
  164loPI   C5A 2619   1.219  10.249   8.113 -0.2801 -0.0008  0.1359
  164loPI   C6A 2620   0.813  10.307   7.843  0.1383 -0.2803 -0.0409
  164loPI   C1B 2621   1.338  10.354   9.563  0.0366 -0.0024 -0.3064
  164loPI   C2B 2622   1.338  10.667   9.191 -0.1014  0.0410  0.0353
  164loPI   C3B 2623   1.177  10.990   8.921 -0.2127  0.1061  0.0714
  164loPI   C4B 2624   1.242  11.302   8.649 -0.0942  0.0475 -0.0903
  165loPI    C1 2625  10.976  14.039  10.199 -0.1032  0.3455  0.3622
  165loPI    C2 2626  11.353  13.910  10.175 -0.0746  0.5028 -0.1263
  165loPI    C3 2627  11.256  14.191  10.442  0.1749  0.5347 -0.0659
  165loPI   PO4 2628  10.860  13.783   9.967  0.0374  0.1722 -0.0869
  165loPI   GL1 2629  10.918  13.781   9.683 -0.3510 -0.2856  0.0016
  165loPI   GL2 2630  10.681  14.134   9.648 -0.0263 -0.1427 -0.1573
  165loPI   C1A 2631  11.174  13.850   9.286 -0.1222 -0.0566 -0.2079
  165loPI   C2A 2632  11.205  13.912   8.862  0.5448  0.2709  0.2312
  165loPI   C3A 2633  10.987  14.091   8.414 -0.0680  0.0033 -0.2092
  165loPI   C4A 2634  11.040  14.153   7.937  0.1863 -0.3811 -0.2105
  165loPI   C5A 2635  11.164  14.292   7.601  0.1270  0.0424 -0.2333
  165loPI   C6A 2636  11.247  14.571   7.208  0.0184 -0.2092 -0.1423
  165loPI   C1B 2637  10.723  14.111   9.227 -0.0753 -0.1140  0.3207
  165loPI   C2B 2638  10.812  14.302   8.863  0.0363  0.1033 -0.2464
  165loPI   C3B 2639  10.549  14.454   8.458 -0.0446  0.1514  0.0700
  165loPI   C4B 2640  10.564  14.301   8.134  0.3689  0.2482  0.1401
  166loPI    C1 2641   4.936   0.126  10.537  0.1195 -0.0869  0.0145
  166loPI    C2 2642   4.730   0.367  10.781  0.3719 -0.1111  0.2578
  166loPI    C3 2643   4.819  -0.006  10.896  0.1421 -0.2633 -0.0417
  166loPI   PO4 2644   4.790   0.205  10.282  0.1028 -0.1768 -0.0520
  166loPI   GL1 2645   5.013   0.342   9.905  0.0175  0.2203  0.4195
  166loPI   GL2 2646   5.355   0.282   9.941 -0.4309 -0.2723  0.1980
  166loPI   C1A 2647   5.158   0.559   9.549 -0.2962 -0.2042  0.0840
  166loPI   C2A 2648   5.155   0.567   9.015 -0.0364 -0.2516  0.2817
  166loPI   C3A 2649   4.923   0.480   8.583  0.2575 -0.0263  0.0371
  166loPI   C4A 2650   4.480   0.598   8.319  0.3760  0.0891  0.1978
  166loPI   C5A 2651   4.164   0.457   8.047 -0.1756  0.2724  0.0875
  166loPI   C6A 2652   3.636   0.708   7.859 -0.1788  0.3037  0.1888
  166loPI   C1B 2653   5.370   0.095   9.522  0.0721 -0.0654  0.0222
  166loPI   C2B 2654   5.082   0.100   9.251  0.0442 -0.0792 -0.0109
  166loPI   C3B 2655   5.030   0.066   8.865  0.1914  0.1394 -0.0142
  166loPI   C4B 2656   5.171   0.019   8.434 -0.1006  0.0864 -0.1231
  167loPI    C1 2657   8.587  14.574  10.534  0.0327 -0.1834 -0.1053
  167loPI    C2 2658   8.322  14.340  10.722  0.2933 -0.2200  0.2255
  167loPI    C3 2659   8.691  14.205  10.646  0.3048 -0.0743  0.0117
  167loPI   PO4 2660   8.494  14.632  10.345  0.1218 -0.3158 -0.0998
  167loPI   GL1 2661   8.488  14.869  10.006 -0.1120  0.1762  0.2227
  167loPI   GL2 2662   8.608  14.584   9.883 -0.1814  0.1848  0.0454
  167loPI   C1A 2663   8.482  14.931   9.559 -0.0516 -0.0424  0.2562
  167loPI   C2A 2664   8.554  15.008   9.163 -0.2353 -0.0901 -0.1108
  167loPI   C3A 2665   8.623  14.979   8.793  0.2060  0.0118 -0.2587
  167loPI   C4A 2666   8.549  15.043   8.344  0.0739 -0.0721 -0.0292
  167loPI   C5A 2667   8.318  14.867   8.021  0.2085 -0.2065  0.1817
  167loPI   C6A 2668   8.010  14.747   7.722  0.0485  0.1893 -0.0654
  167loPI   C1B 2669   8.708  14.511   9.430  0.4163  0.2730 -0.0597
  167loPI   C2B 2670   8.957  14.421   8.957  0.1384 -0.2776 -0.1547
  167loPI   C3B 2671   9.255  14.437   8.570  0.2764 -0.0331 -0.0185
  167loPI   C4B 2672   9.503  14.615   8.233 -0.1309  0.0205  0.1951
  168loPI    C1 2673   8.313   6.941   9.947  0.1243  0.1881  0.1741
  168loPI    C2 2674   8.025   6.844  10.208 -0.0097  0.1050 -0.0025
  168loPI    C3 2675   8.270   7.151  10.285 -0.1355  0.1668  0.1563
  168loPI   PO4 2676   8.190   6.957   9.692 -0.2158 -0.1625 -0.3494
  168loPI   GL1 2677   7.996   6.820   9.360 -0.2012  0.0246  0.0448
  168loPI   GL2 2678   7.922   7.229   9.103 -0.1199 -0.2055  0.3180
  168loPI   C1A 2679   8.242   6.739   8.921  0.3004 -0.2841  0.1343
  168loPI   C2A 2680   8.284   6.700   8.524 -0.2251  0.0397  0.3955
  168loPI   C3A 2681   8.201   6.617   8.118 -0.1410 -0.1032 -0.3445
  168loPI   C4A 2682   8.030   6.374   7.874  0.0594  0.2919 -0.0822
  168loPI   C5A 2683   8.397   6.230   7.766 -0.1788  0.1956  0.3909
  168loPI   C6A 2684   8.569   6.124   7.443 -0.2512  0.0327  0.0507
  168loPI   C1B 2685   8.156   7.212   8.675 -0.0113  0.1746 -0.2307
  168loPI   C2B 2686   8.309   7.298   8.255 -0.1111 -0.0441  0.1830
  168loPI   C3B 2687   8.055   7.202   7.752  0.0529  0.0660 -0.0117
  168loPI   C4B 2688   8.260   7.180   7.424 -0.1880 -0.0333 -0.1317
  169loPI    C1 2689   3.263  11.115  10.230 -0.1598  0.1847 -0.1068
  169loPI    C2 2690   2.993  11.148  10.523  0.1338  0.0553  0.1860
  169loPI    C3 2691   3.351  10.986  10.599  0.2751  0.1701 -0.2092
  169loPI   PO4 2692   3.223  11.322  10.061  0.3720  0.3962  0.1694
  169loPI   GL1 2693   3.370  11.328   9.615 -0.0226 -0.2416  0.0582
  169loPI   GL2 2694   3.098  11.126   9.630 -0.1000 -0.2117 -0.2186
  169loPI   C1A 2695   3.682  11.255   9.355 -0.1955  0.0244 -0.0689
  169loPI   C2A 2696   4.066  11.169   9.029 -0.2541 -0.1330  0.0819
  169loPI   C3A 2697   4.089  11.271   8.592 -0.2412  0.1910 -0.1203
  169loPI   C4A 2698   4.092  11.448   8.195 -0.0820 -0.2658  0.0413
  169loPI   C5A 2699   4.067  11.691   7.904  0.0281  0.0126  0.2467
  169loPI   C6A 2700   4.071  11.773   7.465  0.3312  0.0773 -0.1453
  169loPI   C1B 2701   3.165  10.785   9.336  0.1939  0.0616  0.0195
  169loPI   C2B 2702   3.326  10.466   9.067 -0.1659  0.2791  0.2421
  169loPI   C3B 2703   3.343  10.113   8.646  0.0317 -0.1270  0.2786
  169loPI   C4B 2704   3.127   9.808   8.373 -0.0252 -0.1258  0.1338
  170loPI    C1 2705   5.999  14.684  10.396 -0.0196  0.1754 -0.0450
  170loPI    C2 2706   5.990  14.443  10.077 -0.1135  0.0012  0.0870
  170loPI    C3 2707   5.656  14.510  10.286 -0.0258  0.0123  0.2246
  170loPI   PO4 2708   6.187  14.961  10.213 -0.0185  0.1495  0.1251
  170loPI   GL1 2709   6.363  15.269   9.838  0.0851 -0.1226 -0.0097
  170loPI   GL2 2710   6.611  15.155  10.025 -0.2592  0.2992 -0.0560
  170loPI   C1A 2711   6.408  15.545   9.611  0.0706  0.1640  0.0567
  170loPI   C2A 2712   6.494  15.412   9.287 -0.2505 -0.0029  0.4952
  170loPI   C3A 2713   6.720  15.386   8.870  0.0080  0.2818 -0.0487
  170loPI   C4A 2714   6.862  15.361   8.442 -0.1479 -0.0114  0.2664
  170loPI   C5A 2715   7.155  15.575   8.085 -0.0384 -0.0047  0.0815
  170loPI   C6A 2716   7.336  15.837   8.013 -0.1967  0.1743 -0.3746
  170loPI   C1B 2717   6.635  14.992   9.580  0.0874  0.0095 -0.2957
  170loPI   C2B 2718   6.494  14.730   9.360  0.0255  0.2179 -0.0153
  170loPI   C3B 2719   6.197  14.531   9.531  0.0843  0.0258 -0.1079
  170loPI   C4B 2720   5.848  14.499   9.609  0.5716  0.0117 -0.1682
  171loPI    C1 2721  11.832   1.491  10.159 -0.0366  0.0353 -0.2092
  171loPI    C2 2722  11.811   1.181  10.410  0.0678  0.0130 -0.2275
  171loPI    C3 2723  11.993   1.518  10.524 -0.1040  0.0919 -0.1834
  171loPI   PO4 2724  11.879   1.335   9.947 -0.3554  0.0012 -0.0286
  171loPI   GL1 2725  11.763   1.168   9.551  0.0336 -0.4231  0.0326
  171loPI   GL2 2726  12.071   1.292   9.372 -0.0274  0.1693 -0.0065
  171loPI   C1A 2727  11.653   1.163   9.130 -0.3025  0.1770  0.0664
  171loPI   C2A 2728  11.580   1.146   8.653  0.1494  0.0886 -0.3171
  171loPI   C3A 2729  11.758   1.131   8.206  0.1657  0.0446  0.1103
  171loPI   C4A 2730  11.874   0.838   7.843  0.0588  0.1491 -0.2148
  171loPI   C5A 2731  11.880   0.496   7.823  0.2055  0.2320  0.0794
  171loPI   C6A 2732  11.889   0.134   7.671 -0.0570  0.1943 -0.1467
  171loPI   C1B 2733  12.113   1.327   8.956  0.2546  0.0890  0.2238
  171loPI   C2B 2734  11.968   1.408   8.498  0.3447 -0.1633  0.2191
  171loPI   C3B 2735  12.114   1.462   8.089 -0.0310  0.0033  0.2354
  171loPI   C4B 2736  12.389   1.647   7.770 -0.1487 -0.0258 -0.1712
  172loPI    C1 2737   9.931  16.999  10.290 -0.1577  0.3687  0.0459
  172loPI    C2 2738  10.080  16.869  10.638 -0.0757 -0.0013 -0.1229
  172loPI    C3 2739   9.706  17.008  10.620 -0.0961 -0.0240  0.1031
  172loPI   PO4 2740   9.893  16.784  10.063 -0.2852 -0.5890  0.0778
  172loPI   GL1 2741   9.616  16.789   9.739  0.2319  0.0606 -0.0846
  172loPI   GL2 2742   9.820  16.995   9.560 -0.0281  0.0514 -0.2931
  172loPI   C1A 2743   9.346  17.059   9.520  0.0760 -0.1777 -0.1066
  172loPI   C2A 2744   9.214  17.418   9.183 -0.0431  0.2159 -0.2454
  172loPI   C3A 2745   9.034  17.631   8.842  0.0100  0.0531  0.0005
  172loPI   C4A 2746   8.762  18.059   8.628 -0.1159 -0.2723  0.0545
  172loPI   C5A 2747   8.449  18.146   8.228 -0.3682  0.0512 -0.2062
  172loPI   C6A 2748   8.484  18.216   7.767 -0.2767  0.1067  0.0943
  172loPI   C1B 2749   9.684  16.775   9.268 -0.1901  0.1436 -0.0983
  172loPI   C2B 2750   9.654  16.495   9.082 -0.0232 -0.0608  0.1978
  172loPI   C3B 2751   9.705  16.451   8.680 -0.2097 -0.0341 -0.1025
  172loPI   C4B 2752   9.831  16.549   8.288  0.4237 -0.0411  0.2206
  173loPI    C1 2753  18.013  11.450  10.509 -0.0657  0.0500 -0.1767
  173loPI    C2 2754  18.299  11.716  10.420  0.0698  0.0108  0.1275
  173loPI    C3 2755  18.365  11.325  10.367 -0.0009  0.0140  0.0120
  173loPI   PO4 2756  17.819  11.504  10.428 -0.1388 -0.3829  0.1646
  173loPI   GL1 2757  17.571  11.582  10.050  0.2549 -0.2376  0.3665
  173loPI   GL2 2758  17.907  11.328   9.963 -0.3940 -0.0498  0.0432
  173loPI   C1A 2759  17.538  11.650   9.591 -0.0073  0.2109  0.1931
  173loPI   C2A 2760  17.414  11.549   9.240  0.2060 -0.0767  0.2499
  173loPI   C3A 2761  17.092  11.273   9.137  0.0127 -0.2135  0.1582
  173loPI   C4A 2762  16.870  11.195   8.709 -0.1926  0.1248 -0.1968
  173loPI   C5A 2763  16.622  11.353   8.303 -0.1891  0.0560 -0.0764
  173loPI   C6A 2764  16.664  11.139   7.877 -0.0980 -0.0460  0.2739
  173loPI   C1B 2765  18.288  11.395   9.921  0.1235  0.1765 -0.1055
  173loPI   C2B 2766  18.433  11.627   9.593  0.2906 -0.1650 -0.1328
  173loPI   C3B 2767  18.472  11.508   9.194 -0.0411 -0.1049  0.2813
  173loPI   C4B 2768  18.545  11.176   8.838  0.1859  0.0834 -0.3233
  174loPI    C1 2769   7.957   3.205  10.553 -0.2412  0.0968  0.0169
  174loPI    C2 2770   8.155   3.552  10.570 -0.0850  0.0148 -0.1021
  174loPI    C3 2771   7.967   3.413  10.895  0.2447 -0.0173  0.0797
  174loPI   PO4 2772   8.034   3.020  10.258 -0.0346  0.0189  0.1808
  174loPI   GL1 2773   8.119   2.757  10.016  0.2416 -0.1501  0.2627
  174loPI   GL2 2774   7.765   2.711   9.946  0.0187 -0.2419 -0.3985
  174loPI   C1A 2775   8.169   2.780   9.546  0.2734  0.3758 -0.2427
  174loPI   C2A 2776   8.212   2.659   9.080  0.5143  0.0213  0.0310
  174loPI   C3A 2777   8.243   2.491   8.778 -0.1367  0.1627  0.1527
  174loPI   C4A 2778   8.294   2.418   8.379  0.1805  0.2090  0.1822
  174loPI   C5A 2779   8.319   2.736   8.062  0.0239 -0.2312  0.2922
  174loPI   C6A 2780   8.109   2.592   7.697 -0.0139 -0.0570 -0.0843
  174loPI   C1B 2781   7.625   2.720   9.523  0.0396 -0.1583 -0.1979
  174loPI   C2B 2782   7.707   2.601   9.031 -0.0132 -0.1422 -0.1557
  174loPI   C3B 2783   7.738   2.446   8.591  0.0044  0.2071  0.3688
  174loPI   C4B 2784   7.728   2.507   8.214  0.0788  0.0716 -0.2373
  175loPI    C1 2785  16.263  10.083  10.690 -0.0211 -0.1631 -0.2766
  175loPI    C2 2786  16.130   9.731  10.827  0.0571 -0.0060  0.2215
  175loPI    C3 2787  16.284  10.000  11.081  0.1129  0.3415 -0.1695
  175loPI   PO4 2788  16.069  10.101  10.499  0.0709  0.0277  0.0715
  175loPI   GL1 2789  16.135  10.285  10.109  0.0753  0.4179 -0.0620
  175loPI   GL2 2790  15.856  10.214   9.996 -0.5958 -0.0974 -0.1276
  175loPI   C1A 2791  16.149  10.462   9.675  0.0157  0.0008  0.0117
  175loPI   C2A 2792  16.084  10.664   9.320 -0.4872 -0.1330  0.1005
  175loPI   C3A 2793  16.150  10.589   8.968  0.1452  0.0747 -0.1848
  175loPI   C4A 2794  16.322  10.627   8.493 -0.2336  0.0676 -0.0429
  175loPI   C5A 2795  16.399  10.694   8.007  0.0981 -0.4709  0.0190
  175loPI   C6A 2796  16.445  10.381   7.673 -0.2340 -0.1947 -0.0217
  175loPI   C1B 2797  15.693  10.188   9.648 -0.0777  0.0410  0.0279
  175loPI   C2B 2798  15.690  10.409   9.248  0.2902 -0.1134  0.0642
  175loPI   C3B 2799  15.417  10.575   8.976  0.0406 -0.1106 -0.3487
  175loPI   C4B 2800  15.342  10.537   8.553  0.0650 -0.1213 -0.1816
  176loPI    C1 2801  11.524   6.663  10.449 -0.0672  0.0881  0.1306
  176loPI    C2 2802  11.438   6.899  10.138  0.1798 -0.1064 -0.0892
  176loPI    C3 2803  11.469   7.055  10.504 -0.0906  0.1286 -0.1634
  176loPI   PO4 2804  11.410   6.414  10.356 -0.0323  0.4273 -0.0045
  176loPI   GL1 2805  11.246   6.495   9.942  0.2643  0.0820 -0.0855
  176loPI   GL2 2806  11.224   6.287   9.809 -0.2338  0.6623  0.0720
  176loPI   C1A 2807  11.484   6.680   9.654  0.0351  0.2762 -0.1132
  176loPI   C2A 2808  11.452   6.725   9.173  0.1091 -0.1260  0.1401
  176loPI   C3A 2809  11.345   6.727   8.713  0.4362 -0.1506  0.2738
  176loPI   C4A 2810  11.308   6.682   8.271 -0.1591  0.0565 -0.0331
  176loPI   C5A 2811  11.376   6.587   7.819 -0.0476  0.1957 -0.0337
  176loPI   C6A 2812  11.742   6.473   7.701 -0.0428  0.2625  0.1957
  176loPI   C1B 2813  11.148   6.272   9.443  0.1531 -0.2430  0.1814
  176loPI   C2B 2814  11.182   6.311   9.088  0.0005  0.2444  0.0251
  176loPI   C3B 2815  11.218   6.252   8.649  0.0891 -0.2080  0.1210
  176loPI   C4B 2816  11.185   6.214   8.231  0.3289  0.1594 -0.3459
  177loPI    C1 2817   5.507   1.832  10.664 -0.1240  0.0524  0.0692
  177loPI    C2 2818   5.729   1.657  10.947 -0.0846 -0.2842 -0.1646
  177loPI    C3 2819   5.417   1.463  10.788 -0.2296 -0.0184 -0.2106
  177loPI   PO4 2820   5.669   1.893  10.429 -0.1675  0.0589  0.0109
  177loPI   GL1 2821   5.610   1.963   9.983  0.0256 -0.2057 -0.0112
  177loPI   GL2 2822   5.529   1.639   9.983 -0.2433  0.0443  0.4444
  177loPI   C1A 2823   5.793   1.874   9.523  0.0865  0.2207 -0.0010
  177loPI   C2A 2824   5.999   1.725   9.210 -0.2503 -0.0867 -0.0189
  177loPI   C3A 2825   6.164   1.571   8.772 -0.0429 -0.0778  0.0655
  177loPI   C4A 2826   5.978   1.396   8.373  0.1848  0.2442 -0.0038
  177loPI   C5A 2827   6.047   1.169   7.952  0.0704 -0.0880 -0.0057
  177loPI   C6A 2828   6.266   0.978   7.668 -0.0950  0.2416 -0.5558
  177loPI   C1B 2829   5.421   1.544   9.609  0.0530 -0.2919 -0.0782
  177loPI   C2B 2830   5.006   1.701   9.388  0.1565 -0.0591  0.1264
  177loPI   C3B 2831   4.845   2.063   9.401  0.0414  0.3091 -0.1467
  177loPI   C4B 2832   5.064   2.450   9.407 -0.1200 -0.2207 -0.0431
  178loPI    C1 2833  15.701  15.574  10.210  0.1077  0.0268  0.0650
  178loPI    C2 2834  15.819  15.953  10.264  0.0350  0.0778 -0.1264
  178loPI    C3 2835  15.698  15.735  10.576 -0.2059  0.3084 -0.0555
  178loPI   PO4 2836  15.533  15.547  10.080  0.1083 -0.1037  0.1922
  178loPI   GL1 2837  15.426  15.345   9.777 -0.2071 -0.0059 -0.1091
  178loPI   GL2 2838  15.157  15.204   9.756  0.1077  0.0353  0.0917
  178loPI   C1A 2839  15.721  15.488   9.335  0.1465 -0.1890 -0.1270
  178loPI   C2A 2840  15.709  15.414   8.833  0.2386 -0.1721 -0.3491
  178loPI   C3A 2841  15.588  15.283   8.472  0.2286  0.1356  0.3367
  178loPI   C4A 2842  15.764  15.134   8.084 -0.0034  0.0031 -0.1309
  178loPI   C5A 2843  15.946  14.764   7.884  0.0272  0.2877  0.0762
  178loPI   C6A 2844  16.019  14.326   7.912  0.0840 -0.1354 -0.2466
  178loPI   C1B 2845  15.220  15.191   9.322 -0.0251 -0.0917 -0.1704
  178loPI   C2B 2846  15.145  15.201   8.883 -0.1487 -0.0135 -0.2802
  178loPI   C3B 2847  14.899  15.174   8.444  0.1573 -0.1324  0.0140
  178loPI   C4B 2848  14.821  15.170   7.979  0.0282 -0.2890 -0.0314
  179loPI    C1 2849   3.398   8.655  10.243  0.2497 -0.0058  0.2313
  179loPI    C2 2850   3.211   8.325  10.372 -0.1365 -0.0534 -0.4065
  179loPI    C3 2851   3.611   8.344  10.379 -0.1251 -0.2971  0.1699
  179loPI   PO4 2852   3.390   8.741   9.957  0.1697  0.0446 -0.0475
  179loPI   GL1 2853   3.484   9.024   9.608  0.0282 -0.0960 -0.2898
  179loPI   GL2 2854   3.322   9.329   9.784  0.0940  0.3895  0.1725
  179loPI   C1A 2855   3.659   8.856   9.151  0.2064 -0.0815 -0.2903
  179loPI   C2A 2856   3.604   8.845   8.738  0.0643  0.2514 -0.3756
  179loPI   C3A 2857   3.531   8.753   8.387  0.1932 -0.0635 -0.0982
  179loPI   C4A 2858   3.240   8.857   8.024 -0.1501 -0.0505 -0.0245
  179loPI   C5A 2859   3.224   8.746   7.667 -0.0134  0.1667 -0.3748
  179loPI   C6A 2860   3.049   8.889   7.254 -0.0798 -0.0527  0.0515
  179loPI   C1B 2861   2.972   9.233   9.616  0.2524 -0.0883 -0.1019
  179loPI   C2B 2862   2.718   9.300   9.375 -0.1623 -0.0966 -0.1871
  179loPI   C3B 2863   2.675   9.407   8.995  0.3666  0.0297  0.2939
  179loPI   C4B 2864   2.729   9.717   8.569 -0.2221  0.2659 -0.1162
  180loPI    C1 2865  11.113   5.102  10.526  0.0533 -0.1996  0.0901
  180loPI    C2 2866  11.202   5.491  10.495  0.2226 -0.2306  0.1759
  180loPI    C3 2867  11.004   5.356  10.815 -0.1130 -0.1666 -0.0008
  180loPI   PO4 2868  11.010   5.123  10.232 -0.0774  0.1937  0.0961
  180loPI   GL1 2869  11.021   4.944   9.828  0.4131  0.1427 -0.0892
  180loPI   GL2 2870  11.033   4.614   9.847  0.1130 -0.2412 -0.1202
  180loPI   C1A 2871  10.866   4.984   9.409 -0.3265  0.0279 -0.1229
  180loPI   C2A 2872  10.804   4.951   9.016 -0.0613  0.1400  0.2370
  180loPI   C3A 2873  10.780   4.908   8.652 -0.1223 -0.0916  0.0229
  180loPI   C4A 2874  10.932   5.012   8.310 -0.0521 -0.1532 -0.1237
  180loPI   C5A 2875  10.783   5.121   7.857 -0.0925  0.2704 -0.0219
  180loPI   C6A 2876  10.849   5.371   7.437 -0.0321  0.3663 -0.1833
  180loPI   C1B 2877  10.955   4.307   9.507 -0.1280  0.0361 -0.0555
  180loPI   C2B 2878  11.037   4.337   9.106  0.0009  0.0525  0.0307
  180loPI   C3B 2879  10.963   4.299   8.744 -0.2402 -0.0003 -0.3691
  180loPI   C4B 2880  11.105   4.194   8.341 -0.1082  0.1942  0.1179
  181loPI    C1 2881  13.555  16.984  10.251 -0.0043  0.0482  0.1123
  181loPI    C2 2882  13.465  16.991  10.640 -0.1660  0.2233  0.0737
  181loPI    C3 2883  13.448  17.328  10.425  0.2248  0.1887 -0.0190
  181loPI   PO4 2884  13.795  17.010  10.228  0.0955 -0.1315 -0.1372
  181loPI   GL1 2885  13.901  17.124   9.849 -0.3005  0.0498 -0.3984
  181loPI   GL2 2886  14.225  17.109   9.937  0.1444  0.4125  0.1601
  181loPI   C1A 2887  13.914  17.349   9.532 -0.3135  0.0101  0.1655
  181loPI   C2A 2888  13.866  17.622   9.133  0.3824  0.0847  0.1376
  181loPI   C3A 2889  13.708  17.804   8.655  0.1915 -0.0582  0.0185
  181loPI   C4A 2890  13.506  17.625   8.348  0.0037  0.1806 -0.0169
  181loPI   C5A 2891  13.281  17.319   8.214  0.4352 -0.2842 -0.1012
  181loPI   C6A 2892  13.190  17.428   7.856 -0.0263  0.0485  0.2818
  181loPI   C1B 2893  14.274  17.006   9.477  0.0957 -0.1540 -0.3028
  181loPI   C2B 2894  14.412  16.884   9.111  0.0148 -0.2969  0.1465
  181loPI   C3B 2895  14.516  17.021   8.715  0.0357  0.0403 -0.1540
  181loPI   C4B 2896  14.631  16.991   8.230  0.3772 -0.3391  0.0773
  182loPI    C1 2897   9.733  14.184  10.130  0.0786  0.1475 -0.0632
  182loPI    C2 2898   9.609  14.390   9.811 -0.2085  0.1597  0.0531
  182loPI    C3 2899   9.403  14.408  10.153 -0.1472 -0.1937  0.1126
  182loPI   PO4 2900   9.962  13.978  10.018 -0.2848  0.2898  0.1069
  182loPI   GL1 2901  10.283  13.850   9.693  0.1784  0.1131 -0.0026
  182loPI   GL2 2902  10.033  14.016   9.545  0.4106  0.0778 -0.1174
  182loPI   C1A 2903  10.340  13.822   9.194  0.2544 -0.0869 -0.0819
  182loPI   C2A 2904  10.633  13.807   8.768  0.1484  0.1724  0.1692
  182loPI   C3A 2905  10.595  13.827   8.282 -0.0224 -0.3592  0.1252
  182loPI   C4A 2906  10.591  13.785   7.914  0.4032 -0.2213  0.0438
  182loPI   C5A 2907  10.332  13.626   7.600  0.1192 -0.0936 -0.4576
  182loPI   C6A 2908  10.473  13.170   7.354 -0.1416  0.0329  0.2254
  182loPI   C1B 2909   9.843  14.161   9.198 -0.2534  0.0309 -0.0987
  182loPI   C2B 2910   9.806  14.246   8.751  0.0240 -0.3107  0.3553
  182loPI   C3B 2911   9.952  14.381   8.352 -0.0726  0.0631 -0.3237
  182loPI   C4B 2912  10.290  14.680   8.085  0.1517 -0.3064 -0.2123
  183loPI    C1 2913  11.255   7.670  10.759  0.1993  0.0545 -0.0400
  183loPI    C2 2914  10.960   7.678  11.029  0.0840 -0.3451 -0.1471
  183loPI    C3 2915  11.191   8.000  10.976  0.0338 -0.2200  0.3414
  183loPI   PO4 2916  11.245   7.481  10.555  0.0439  0.1128  0.0384
  183loPI   GL1 2917  11.117   7.309  10.174 -0.1108  0.1966 -0.0525
  183loPI   GL2 2918  11.002   7.015   9.997 -0.2443 -0.0399 -0.2950
  183loPI   C1A 2919  10.752   7.600   9.972 -0.0470 -0.0323  0.0935
  183loPI   C2A 2920  10.817   7.826   9.446  0.3111  0.0797 -0.0811
  183loPI   C3A 2921  10.801   7.933   9.070  0.2436  0.0056  0.0233
  183loPI   C4A 2922  10.595   7.983   8.716  0.0489 -0.1379  0.0064
  183loPI   C5A 2923  10.541   7.998   8.256  0.0196 -0.0749 -0.0041
  183loPI   C6A 2924  10.806   8.145   7.878  0.1928  0.2746  0.1981
  183loPI   C1B 2925  11.012   6.858   9.504 -0.1519  0.0743  0.0828
  183loPI   C2B 2926  10.977   6.875   9.022  0.1326 -0.0302 -0.0670
  183loPI   C3B 2927  10.983   7.014   8.539  0.2117 -0.1617  0.0100
  183loPI   C4B 2928  10.998   7.357   8.336  0.0157 -0.5293 -0.0950
  184loPI    C1 2929  13.739   9.360  10.292  0.0148 -0.2681 -0.0837
  184loPI    C2 2930  13.684   9.658  10.031  0.0167  0.0758  0.2986
  184loPI    C3 2931  13.371   9.501  10.225 -0.0423 -0.4745 -0.2131
  184loPI   PO4 2932  13.898   9.197  10.162  0.3549 -0.1347  0.0918
  184loPI   GL1 2933  14.075   9.414   9.843 -0.3333 -0.0601 -0.2271
  184loPI   GL2 2934  14.068   9.789   9.719 -0.1985 -0.2425  0.1475
  184loPI   C1A 2935  14.117   9.191   9.449 -0.0399  0.3065  0.2053
  184loPI   C2A 2936  14.200   9.121   8.953  0.2038 -0.3387 -0.2432
  184loPI   C3A 2937  14.301   9.130   8.624 -0.1285  0.1669 -0.2225
  184loPI   C4A 2938  14.213   9.227   8.152  0.1888  0.2767  0.2817
  184loPI   C5A 2939  14.248   9.028   7.733 -0.1569 -0.0462 -0.0942
  184loPI   C6A 2940  14.611   9.050   7.749 -0.2350  0.0207 -0.2403
  184loPI   C1B 2941  13.605   9.723   9.548  0.0442  0.0612  0.0794
  184loPI   C2B 2942  13.269   9.713   9.363 -0.1200 -0.2551  0.2759
  184loPI   C3B 2943  13.032   9.638   9.148  0.0707 -0.0454  0.0855
  184loPI   C4B 2944  12.703   9.739   8.944 -0.4989  0.2985 -0.0381
  185loPI    C1 2945  16.382  17.675  10.311 -0.4405 -0.1091  0.2207
  185loPI    C2 2946  16.121  17.410  10.162 -0.2021 -0.2638  0.0714
  185loPI    C3 2947  16.386  17.296  10.440 -0.0758 -0.1917 -0.0182
  185loPI   PO4 2948  16.242  17.913  10.068  0.0447 -0.0767  0.2225
  185loPI   GL1 2949  16.347  17.993   9.742  0.0153 -0.3666  0.1634
  185loPI   GL2 2950  16.558  17.963   9.610  0.0195 -0.5476 -0.1183
  185loPI   C1A 2951  16.219  18.305   9.275 -0.0413 -0.5657 -0.0920
  185loPI   C2A 2952  16.311  18.340   8.895  0.1957  0.0309  0.0852
  185loPI   C3A 2953  16.220  18.226   8.487 -0.1819  0.0482  0.2551
  185loPI   C4A 2954  15.842  18.230   8.229  0.0783 -0.0196  0.2246
  185loPI   C5A 2955  15.369  18.067   8.114 -0.3230  0.4027 -0.0806
  185loPI   C6A 2956  15.047  18.067   7.800 -0.2867  0.0845 -0.0558
  185loPI   C1B 2957  16.567  17.970   9.149  0.1336 -0.1854 -0.0711
  185loPI   C2B 2958  16.630  17.934   8.821  0.2328 -0.1484  0.0702
  185loPI   C3B 2959  16.695  18.168   8.523 -0.1542  0.0630  0.0798
  185loPI   C4B 2960  16.608  18.243   8.174 -0.0315  0.2222 -0.2232
  186loPI    C1 2961   8.538  12.832  10.444 -0.1265  0.3412 -0.0195
  186loPI    C2 2962   8.211  13.024  10.574 -0.2023  0.1891  0.0171
  186loPI    C3 2963   8.256  12.633  10.646 -0.0684  0.1831 -0.0924
  186loPI   PO4 2964   8.594  12.929  10.097  0.0219 -0.2129 -0.3595
  186loPI   GL1 2965   8.469  13.289   9.831 -0.1019 -0.0420 -0.2489
  186loPI   GL2 2966   8.649  13.550   9.814  0.1902 -0.0629 -0.1351
  186loPI   C1A 2967   8.183  13.542   9.680  0.1541 -0.3671 -0.2634
  186loPI   C2A 2968   8.229  13.871   9.489  0.2299  0.1098 -0.1680
  186loPI   C3A 2969   8.397  14.088   9.227  0.3717  0.1465  0.0655
  186loPI   C4A 2970   8.454  14.249   8.845  0.1330  0.0511 -0.1796
  186loPI   C5A 2971   8.228  14.151   8.461 -0.0080  0.0458 -0.0715
  186loPI   C6A 2972   8.526  14.070   8.102  0.0309  0.1402 -0.0312
  186loPI   C1B 2973   8.731  13.576   9.422 -0.0186 -0.1738 -0.0342
  186loPI   C2B 2974   8.460  13.632   9.017  0.2881 -0.0697 -0.3150
  186loPI   C3B 2975   8.277  13.570   8.617  0.0844  0.0618  0.1812
  186loPI   C4B 2976   8.142  13.645   8.212 -0.0600 -0.2118  0.2060
  187loPI    C1 2977   1.920  17.606  10.579 -0.0503 -0.2924 -0.1711
  187loPI    C2 2978   2.151  17.442  10.862 -0.0932  0.2222  0.1754
  187loPI    C3 2979   1.764  17.514  10.935 -0.1512  0.1883 -0.0847
  187loPI   PO4 2980   1.862  17.539  10.343  0.0539 -0.1282  0.0465
  187loPI   GL1 2981   1.614  17.416   9.992 -0.2085 -0.2058  0.4608
  187loPI   GL2 2982   1.738  17.506   9.633 -0.1027 -0.1270  0.1944
  187loPI   C1A 2983   1.226  17.654   9.768 -0.1685 -0.1793  0.0203
  187loPI   C2A 2984   1.235  17.785   9.375 -0.0665  0.0990  0.0782
  187loPI   C3A 2985   1.342  17.725   8.966  0.0512 -0.0570  0.1027
  187loPI   C4A 2986   1.259  17.530   8.537 -0.1575 -0.2134  0.4854
  187loPI   C5A 2987   1.263  17.625   8.131 -0.3278  0.1470  0.1995
  187loPI   C6A 2988   1.462  17.840   7.818 -0.0780 -0.1985  0.1021
  187loPI   C1B 2989   1.610  17.408   9.284  0.1592  0.1953 -0.0266
  187loPI   C2B 2990   1.723  17.289   8.862  0.1724  0.2525 -0.2264
  187loPI   C3B 2991   1.705  17.298   8.376  0.0988 -0.3535  0.1228
  187loPI   C4B 2992   2.022  17.353   8.174  0.0377 -0.3514  0.1767
  188loPI    C1 2993  10.829   8.461  10.009  0.1111 -0.3735  0.0525
  188loPI    C2 2994  11.073   8.549  10.313  0.0873 -0.2228  0.0288
  188loPI    C3 2995  10.747   8.771  10.248 -0.0674 -0.4344  0.0717
  188loPI   PO4 2996  10.946   8.163  10.051 -0.0746 -0.0145  0.0528
  188loPI   GL1 2997  11.259   8.025   9.760 -0.0199  0.0765 -0.0775
  188loPI   GL2 2998  11.593   8.064   9.561 -0.2606  0.1475 -0.1114
  188loPI   C1A 2999  11.316   7.715   9.339  0.3629  0.0067 -0.0646
  188loPI   C2A 3000  11.248   7.750   8.948  0.1806  0.2120  0.0780
  188loPI   C3A 3001  10.992   7.772   8.592  0.2994 -0.0369 -0.1408
  188loPI   C4A 3002  11.040   7.846   8.229  0.1322  0.1464  0.3022
  188loPI   C5A 3003  11.145   7.613   7.858  0.1652 -0.0067  0.1242
  188loPI   C6A 3004  11.541   7.592   7.651  0.2146  0.3318 -0.3061
  188loPI   C1B 3005  11.749   8.024   9.136  0.2140  0.2664  0.4183
  188loPI   C2B 3006  11.561   8.112   8.754  0.1431  0.1413 -0.0579
  188loPI   C3B 3007  11.494   8.133   8.363  0.0880  0.1990 -0.3979
  188loPI   C4B 3008  11.368   8.186   8.029 -0.2533 -0.0591 -0.2918
  189loPI    C1 3009  17.310  12.551  10.624  0.2570  0.0481 -0.3077
  189loPI    C2 3010  17.506  12.239  10.781  0.2167  0.1540 -0.0416
  189loPI    C3 3011  17.232  12.433  10.998 -0.0352  0.1385 -0.3377
  189loPI   PO4 3012  17.150  12.512  10.416 -0.2153 -0.1813  0.1026
  189loPI   GL1 3013  16.866  12.161  10.227  0.0800  0.2068  0.1721
  189loPI   GL2 3014  16.563  11.982  10.269 -0.0788  0.1542  0.0963
  189loPI   C1A 3015  17.130  12.258   9.861 -0.2506  0.0112  0.1801
  189loPI   C2A 3016  17.147  12.314   9.457 -0.3558 -0.1449 -0.2205
  189loPI   C3A 3017  17.093  12.427   8.953  0.0168  0.1557 -0.0296
  189loPI   C4A 3018  17.110  12.195   8.611 -0.0345 -0.0606 -0.2632
  189loPI   C5A 3019  17.115  11.986   8.219  0.1772  0.1039  0.0480
  189loPI   C6A 3020  17.119  12.050   7.803  0.3144 -0.0333 -0.0814
  189loPI   C1B 3021  16.572  11.974   9.817  0.0246 -0.1725  0.3984
  189loPI   C2B 3022  16.613  12.096   9.385 -0.0078  0.2237  0.0355
  189loPI   C3B 3023  16.521  12.124   8.915 -0.0879 -0.0069 -0.2323
  189loPI   C4B 3024  16.626  12.165   8.521  0.2156 -0.1892 -0.1724
  190loPI    C1 3025  14.349  18.418  10.062  0.0034 -0.0076  0.0049
  190loPI    C2 3026  14.339  18.755   9.848  0.2991 -0.0581 -0.0926
  190loPI    C3 3027  14.305  18.770  10.246 -0.1757  0.0429 -0.1314
  190loPI   PO4 3028  14.158  18.284   9.903 -0.1339  0.2595  0.1625
  190loPI   GL1 3029  14.185  18.379   9.540 -0.0565 -0.0064 -0.1685
  190loPI   GL2 3030  14.275  18.042   9.427  0.2359  0.1821 -0.0257
  190loPI   C1A 3031  13.948  18.351   9.170  0.0156  0.1592  0.0109
  190loPI   C2A 3032  13.742  18.310   8.797  0.1760 -0.0788 -0.0828
  190loPI   C3A 3033  13.855  18.178   8.410  0.0036 -0.0723  0.2828
  190loPI   C4A 3034  13.829  17.863   8.124 -0.0238 -0.0685  0.2014
  190loPI   C5A 3035  13.609  17.726   7.855 -0.0303  0.0544 -0.0457
  190loPI   C6A 3036  13.163  17.970   7.773 -0.0962  0.1742  0.3019
  190loPI   C1B 3037  14.323  17.875   9.087  0.1632  0.0778  0.1394
  190loPI   C2B 3038  14.259  17.817   8.663 -0.0914 -0.4303 -0.1368
  190loPI   C3B 3039  14.288  17.875   8.265  0.1483 -0.2586  0.2261
  190loPI   C4B 3040  14.208  17.805   7.835 -0.0389  0.2079  0.2896
  191loPI    C1 3041   1.803  15.427  10.256  0.1447 -0.1034  0.0361
  191loPI    C2 3042   1.733  15.677  10.560 -0.1443  0.0202 -0.1271
  191loPI    C3 3043   1.704  15.281  10.615 -0.1018  0.0375  0.0272
  191loPI   PO4 3044   2.010  15.509  10.142  0.3702 -0.0521 -0.1161
  191loPI   GL1 3045   2.160  15.833   9.840  0.1447 -0.0120  0.0524
  191loPI   GL2 3046   1.842  15.801   9.698 -0.1865 -0.0831 -0.0714
  191loPI   C1A 3047   2.480  15.628   9.552 -0.1012 -0.2473 -0.2221
  191loPI   C2A 3048   2.848  15.475   9.281  0.2115 -0.0820 -0.2427
  191loPI   C3A 3049   2.840  15.382   8.807  0.0333  0.0579 -0.0654
  191loPI   C4A 3050   2.679  15.379   8.484  0.1784 -0.0081 -0.0209
  191loPI   C5A 3051   2.676  15.050   8.205 -0.0532  0.1694  0.0009
  191loPI   C6A 3052   2.662  14.868   7.881 -0.2708 -0.1851  0.3065
  191loPI   C1B 3053   2.082  15.740   9.353  0.0984 -0.0203  0.0191
  191loPI   C2B 3054   2.006  15.903   8.887  0.4033  0.0460 -0.0134
  191loPI   C3B 3055   1.886  16.178   8.494 -0.1313 -0.0198 -0.1158
  191loPI   C4B 3056   1.878  16.057   8.044 -0.2845  0.1522  0.0512
  192loPI    C1 3057   2.428  12.915  10.081 -0.1176 -0.0531  0.2594
  192loPI    C2 3058   2.630  12.990  10.418 -0.0071 -0.3910  0.2717
  192loPI    C3 3059   2.815  12.815  10.110  0.0123  0.3041 -0.1324
  192loPI   PO4 3060   2.166  12.845  10.240 -0.1602  0.1670  0.0026
  192loPI   GL1 3061   1.837  12.685   9.955 -0.1248 -0.0272  0.1481
  192loPI   GL2 3062   1.725  12.830   9.765 -0.1744 -0.0303  0.5323
  192loPI   C1A 3063   1.555  12.382   9.704 -0.2194  0.1190 -0.0944
  192loPI   C2A 3064   1.453  12.418   9.308  0.1943 -0.1647  0.1392
  192loPI   C3A 3065   1.375  12.498   8.915 -0.3130 -0.0445  0.3664
  192loPI   C4A 3066   1.179  12.565   8.510 -0.0105  0.2945 -0.2061
  192loPI   C5A 3067   1.133  12.569   8.166  0.1295 -0.1916  0.3093
  192loPI   C6A 3068   1.246  12.627   7.668 -0.2735  0.0755 -0.0581
  192loPI   C1B 3069   1.779  12.846   9.386 -0.1886 -0.0297 -0.2985
  192loPI   C2B 3070   1.727  12.837   8.945  0.1044  0.2763  0.3219
  192loPI   C3B 3071   1.572  12.906   8.531  0.2238 -0.1766 -0.0898
  192loPI   C4B 3072   1.488  13.054   8.129  0.0651 -0.1011 -0.0115
  193loPI    C1 3073  14.299   2.231  10.451 -0.1481  0.2126 -0.0293
  193loPI    C2 3074  14.659   2.259  10.623 -0.1143 -0.0888 -0.0466
  193loPI    C3 3075  14.346   2.127  10.834 -0.1939  0.0755 -0.0604
  193loPI   PO4 3076  14.408   2.132  10.204  0.0801  0.3602 -0.4721
  193loPI   GL1 3077  14.418   1.808   9.927 -0.0594 -0.2183 -0.1876
  193loPI   GL2 3078  14.683   1.867   9.766  0.1863  0.1624  0.1736
  193loPI   C1A 3079  14.250   1.845   9.524 -0.2453  0.1149 -0.2558
  193loPI   C2A 3080  14.240   1.707   9.038  0.0108  0.0208 -0.0193
  193loPI   C3A 3081  14.388   1.763   8.579  0.1181  0.0904 -0.1271
  193loPI   C4A 3082  14.736   1.918   8.341  0.1100 -0.0704 -0.1787
  193loPI   C5A 3083  15.010   1.940   8.029  0.3342 -0.2286 -0.3138
  193loPI   C6A 3084  15.409   1.961   7.748 -0.1910 -0.1792 -0.0897
  193loPI   C1B 3085  14.718   1.679   9.356  0.1230 -0.0545  0.2161
  193loPI   C2B 3086  14.781   1.647   8.902  0.1562  0.1566  0.3528
  193loPI   C3B 3087  14.842   1.449   8.520 -0.0123  0.0369  0.0704
  193loPI   C4B 3088  15.246   1.223   8.347 -0.1601  0.3232 -0.1554
  194loPI    C1 3089  11.848  12.026  10.374 -0.0158  0.0617  0.1174
  194loPI    C2 3090  11.870  12.091  10.768  0.3228 -0.1673  0.1407
  194loPI    C3 3091  11.945  11.727  10.621 -0.0343 -0.1420 -0.1181
  194loPI   PO4 3092  11.621  12.134  10.189 -0.2581  0.0701  0.0035
  194loPI   GL1 3093  11.400  12.166   9.744  0.1545 -0.0485 -0.0435
  194loPI   GL2 3094  11.590  12.399   9.729 -0.1566 -0.0809 -0.2260
  194loPI   C1A 3095  11.365  12.052   9.422 -0.1403  0.1910 -0.2031
  194loPI   C2A 3096  11.279  12.056   9.116  0.2389  0.3444 -0.1011
  194loPI   C3A 3097  11.099  11.917   8.662 -0.0318  0.1936  0.0173
  194loPI   C4A 3098  11.031  11.668   8.242 -0.2699  0.1495 -0.1046
  194loPI   C5A 3099  11.092  11.495   7.800 -0.5239 -0.1661  0.1810
  194loPI   C6A 3100  11.222  11.362   7.458 -0.0276 -0.0999 -0.2731
  194loPI   C1B 3101  11.382  12.532   9.295  0.3109  0.0226  0.1875
  194loPI   C2B 3102  11.266  12.503   8.880 -0.0690  0.2370 -0.4228
  194loPI   C3B 3103  11.131  12.497   8.534 -0.0924  0.1959  0.2160
  194loPI   C4B 3104  11.331  12.484   8.102  0.2919 -0.1163 -0.3238
  195loPI    C1 3105   9.997   8.625  10.224 -0.1292  0.0330 -0.0505
  195loPI    C2 3106   9.853   8.474  10.565  0.2324 -0.0367  0.0757
  195loPI    C3 3107   9.979   8.854  10.552  0.1699 -0.0181  0.0046
  195loPI   PO4 3108  10.307   8.516  10.130  0.4444  0.0535 -0.2067
  195loPI   GL1 3109  10.384   8.639   9.741  0.2218 -0.1412 -0.0041
  195loPI   GL2 3110  10.127   8.496   9.649 -0.3383  0.0818 -0.0327
  195loPI   C1A 3111  10.391   8.796   9.361  0.2119 -0.1780  0.0110
  195loPI   C2A 3112  10.541   8.913   9.033 -0.1725  0.0025 -0.0537
  195loPI   C3A 3113  10.427   9.051   8.666 -0.0096 -0.0651  0.0633
  195loPI   C4A 3114  10.355   8.936   8.189  0.2958 -0.3146 -0.0335
  195loPI   C5A 3115  10.034   8.767   7.859 -0.0315  0.4335  0.0517
  195loPI   C6A 3116   9.786   8.310   7.810  0.1831  0.0657 -0.0251
  195loPI   C1B 3117   9.939   8.595   9.331 -0.1569 -0.3408  0.0477
  195loPI   C2B 3118  10.130   8.707   8.887  0.2919  0.0132  0.1717
  195loPI   C3B 3119   9.843   8.785   8.504  0.0457  0.2526 -0.0445
  195loPI   C4B 3120   9.642   8.497   8.216  0.0227  0.1976 -0.0690
  196loPI    C1 3121   4.997  16.489  10.351 -0.0223 -0.0437  0.0615
  196loPI    C2 3122   5.181  16.224  10.588 -0.0150 -0.0561  0.0419
  196loPI    C3 3123   4.988  16.537  10.748 -0.1116 -0.1297  0.0702
  196loPI   PO4 3124   4.913  16.320  10.174 -0.0765  0.1234  0.3434
  196loPI   GL1 3125   4.890  16.542   9.856 -0.3000 -0.2540 -0.2314
  196loPI   GL2 3126   4.800  16.866   9.913 -0.1538  0.2085 -0.1780
  196loPI   C1A 3127   4.713  16.254   9.549 -0.2430 -0.1914 -0.2042
  196loPI   C2A 3128   4.492  16.195   9.164 -0.0047 -0.0912  0.0557
  196loPI   C3A 3129   4.202  16.291   8.831 -0.0789  0.0084  0.0928
  196loPI   C4A 3130   4.322  16.091   8.438 -0.1461  0.0441  0.2961
  196loPI   C5A 3131   4.469  16.292   8.085 -0.0045  0.1423  0.1977
  196loPI   C6A 3132   4.637  16.481   7.780  0.2971  0.0022 -0.1436
  196loPI   C1B 3133   4.483  16.701   9.540 -0.1673  0.2011  0.2408
  196loPI   C2B 3134   4.254  16.630   9.158  0.2651 -0.1917 -0.0845
  196loPI   C3B 3135   4.134  16.805   8.796 -0.1415  0.0223  0.0169
  196loPI   C4B 3136   4.425  17.072   8.608 -0.2271  0.0656  0.0437
  197loPI    C1 3137  14.418  11.836  10.240 -0.1406  0.0747  0.0361
  197loPI    C2 3138  14.038  11.734  10.308 -0.1050 -0.0822  0.0060
  197loPI    C3 3139  14.274  11.841  10.612 -0.2171  0.1744  0.0053
  197loPI   PO4 3140  14.415  11.969  10.010 -0.0984  0.1449  0.1182
  197loPI   GL1 3141  14.788  12.142   9.723  0.1573  0.0283 -0.5799
  197loPI   GL2 3142  14.761  12.426   9.845  0.1064  0.0690  0.1462
  197loPI   C1A 3143  14.929  11.865   9.463  0.0494 -0.1182  0.3139
  197loPI   C2A 3144  15.118  11.757   9.183 -0.0012  0.1763  0.1363
  197loPI   C3A 3145  15.227  11.555   8.895  0.1104 -0.2107 -0.0497
  197loPI   C4A 3146  15.498  11.824   8.571  0.3019 -0.2590 -0.1742
  197loPI   C5A 3147  15.790  11.982   8.252 -0.2704  0.0842  0.0058
  197loPI   C6A 3148  16.214  12.161   8.248  0.0706 -0.1050  0.1758
  197loPI   C1B 3149  14.609  12.349   9.321 -0.0260  0.1029  0.3297
  197loPI   C2B 3150  14.750  12.444   8.989 -0.1732 -0.2394  0.2425
  197loPI   C3B 3151  14.770  12.769   8.778  0.0426 -0.2946  0.1053
  197loPI   C4B 3152  14.979  12.885   8.425  0.4023  0.1613 -0.2608
  198loPI    C1 3153  18.123  17.118  10.124 -0.1118 -0.2636 -0.2050
  198loPI    C2 3154  18.099  17.122  10.524 -0.0416 -0.1167 -0.2015
  198loPI    C3 3155  17.766  17.093  10.303 -0.1010  0.0417 -0.1346
  198loPI   PO4 3156  18.342  16.982  10.122  0.0558 -0.1567  0.1480
  198loPI   GL1 3157  18.633  16.896   9.907 -0.2395 -0.1877  0.6139
  198loPI   GL2 3158  18.305  16.766   9.646 -0.0432  0.1028 -0.0615
  198loPI   C1A 3159  18.748  16.820   9.449  0.0422 -0.0698  0.1666
  198loPI   C2A 3160  19.041  16.756   9.149  0.4574 -0.0877  0.0075
  198loPI   C3A 3161  18.852  16.711   8.739  0.1726 -0.2474  0.0505
  198loPI   C4A 3162  18.810  16.667   8.364  0.0013 -0.0351  0.1378
  198loPI   C5A 3163  19.127  16.699   8.038  0.2037 -0.0332 -0.0867
  198loPI   C6A 3164  19.529  16.500   7.848 -0.1607 -0.0264 -0.6222
  198loPI   C1B 3165  18.111  16.533   9.353 -0.1420 -0.1852  0.0648
  198loPI   C2B 3166  18.200  16.489   8.903 -0.1442  0.3508  0.1431
  198loPI   C3B 3167  18.309  16.530   8.439  0.0540  0.0278 -0.1731
  198loPI   C4B 3168  18.266  16.372   8.024 -0.0727 -0.0277 -0.0862
  199loPI    C1 3169   5.402   3.969  10.414  0.4006  0.2179 -0.0945
  199loPI    C2 3170   5.183   4.269  10.562  0.1165 -0.0131 -0.0378
  199loPI    C3 3171   5.544   4.190  10.716  0.0117  0.0293  0.2359
  199loPI   PO4 3172   5.315   4.001  10.150  0.1396  0.2595 -0.3998
  199loPI   GL1 3173   5.259   4.132   9.767 -0.0623 -0.1972 -0.1393
  199loPI   GL2 3174   5.338   4.302   9.578 -0.2775 -0.1459 -0.0406
  199loPI   C1A 3175   5.311   3.847   9.438 -0.0133  0.2521 -0.1063
  199loPI   C2A 3176   5.273   3.761   9.046 -0.3162  0.0289  0.1119
  199loPI   C3A 3177   5.206   3.689   8.591  0.2142  0.0106  0.2910
  199loPI   C4A 3178   5.250   3.719   8.157 -0.1447 -0.0030  0.3698
  199loPI   C5A 3179   5.143   3.944   7.772  0.0571  0.2703  0.1351
  199loPI   C6A 3180   4.878   4.220   7.585 -0.1595 -0.0725  0.0016
  199loPI   C1B 3181   5.113   4.381   9.247  0.1334  0.0849 -0.2993
  199loPI   C2B 3182   4.630   4.420   9.090 -0.0102 -0.1596  0.1418
  199loPI   C3B 3183   4.710   4.666   8.772  0.3639 -0.2177  0.3151
  199loPI   C4B 3184   4.804   5.059   8.747  0.1128  0.3268  0.0329
  200loPI    C1 3185  12.799  13.216  10.521 -0.1805  0.0333 -0.0461
  200loPI    C2 3186  12.983  13.546  10.654  0.0046 -0.0439 -0.1074
  200loPI    C3 3187  12.797  13.303  10.911  0.1258 -0.0484 -0.0230
  200loPI   PO4 3188  12.673  13.268  10.263  0.0484 -0.1481  0.0127
  200loPI   GL1 3189  12.378  13.083   9.934  0.0513  0.0134 -0.2952
  200loPI   GL2 3190  12.060  13.191   9.810  0.3016  0.0409 -0.1725
  200loPI   C1A 3191  12.408  13.338   9.486  0.1831 -0.4261  0.0243
  200loPI   C2A 3192  12.352  13.659   9.214  0.0796  0.0887 -0.2270
  200loPI   C3A 3193  12.378  13.788   8.806 -0.1133 -0.1376  0.0742
  200loPI   C4A 3194  12.435  13.721   8.313 -0.0940 -0.1068  0.2443
  200loPI   C5A 3195  12.446  13.659   7.855  0.1590  0.3147  0.1232
  200loPI   C6A 3196  11.975  13.601   7.598  0.1312  0.0434  0.2504
  200loPI   C1B 3197  11.848  13.401   9.445  0.3730  0.3488 -0.0571
  200loPI   C2B 3198  11.958  13.432   8.997  0.0740 -0.0056 -0.3628
  200loPI   C3B 3199  11.990  13.555   8.515 -0.0345 -0.2153  0.0885
  200loPI   C4B 3200  11.922  13.579   8.125  0.1420 -0.2472 -0.1567
  201loPI    C1 3201   1.405   6.107   9.971  0.1104  0.0635  0.0169
  201loPI    C2 3202   1.486   6.051  10.359 -0.1012 -0.2779  0.0168
  201loPI    C3 3203   1.276   5.777  10.157 -0.1348 -0.0251 -0.3004
  201loPI   PO4 3204   1.651   6.202   9.865 -0.1931 -0.4351  0.0365
  201loPI   GL1 3205   1.720   6.547   9.513  0.2756  0.1443  0.1505
  201loPI   GL2 3206   1.812   6.303   9.265  0.0676  0.2897  0.0555
  201loPI   C1A 3207   1.559   6.691   9.030  0.1469  0.0819 -0.0296
  201loPI   C2A 3208   1.811   6.674   8.633 -0.1804  0.2385  0.1037
  201loPI   C3A 3209   1.888   6.419   8.269 -0.0621  0.0951 -0.0145
  201loPI   C4A 3210   1.923   6.215   7.843 -0.0193 -0.1817 -0.1318
  201loPI   C5A 3211   2.260   6.244   7.564  0.2811  0.0469 -0.1109
  201loPI   C6A 3212   2.561   6.507   7.383  0.2112 -0.0018  0.1666
  201loPI   C1B 3213   1.990   6.202   8.800 -0.0379 -0.2472 -0.2400
  201loPI   C2B 3214   2.255   6.051   8.446  0.0911 -0.2258  0.2944
  201loPI   C3B 3215   2.389   5.965   8.080 -0.0230  0.0547 -0.2288
  201loPI   C4B 3216   2.398   5.767   7.698 -0.3401 -0.2426  0.0206
  202loPI    C1 3217  15.545  16.711  10.618  0.0002 -0.0361  0.0268
  202loPI    C2 3218  15.204  16.850  10.773 -0.1320  0.0681 -0.3453
  202loPI    C3 3219  15.477  17.105  10.631  0.0666 -0.0187 -0.1255
  202loPI   PO4 3220  15.381  16.492  10.486 -0.1213 -0.1175  0.0742
  202loPI   GL1 3221  15.400  16.544  10.025  0.0968  0.0376  0.0568
  202loPI   GL2 3222  15.480  16.223   9.948 -0.1032  0.1311  0.2176
  202loPI   C1A 3223  15.131  16.732   9.724 -0.2742  0.1006  0.2308
  202loPI   C2A 3224  15.204  16.693   9.268 -0.1096  0.1410 -0.1106
  202loPI   C3A 3225  15.170  16.883   8.832  0.2361  0.0746 -0.2160
  202loPI   C4A 3226  15.050  17.089   8.559  0.3258  0.2967  0.0365
  202loPI   C5A 3227  15.054  17.315   8.285  0.0922  0.2489  0.0237
  202loPI   C6A 3228  15.196  17.585   7.934 -0.0415 -0.0444  0.0454
  202loPI   C1B 3229  15.260  16.265   9.565 -0.2751  0.0120  0.0815
  202loPI   C2B 3230  15.303  16.232   9.072  0.0775  0.4948  0.1300
  202loPI   C3B 3231  15.217  16.183   8.645 -0.0928  0.1682 -0.1694
  202loPI   C4B 3232  15.227  16.153   8.163  0.4452 -0.1271 -0.5034
  203loPI    C1 3233  12.664  18.023  10.405  0.1463  0.0589 -0.1622
  203loPI    C2 3234  12.570  18.404  10.485 -0.1881 -0.0713  0.0877
  203loPI    C3 3235  12.895  18.239  10.651 -0.1464  0.0500  0.1279
  203loPI   PO4 3236  12.508  17.916  10.198 -0.0818 -0.2496 -0.2442
  203loPI   GL1 3237  12.566  17.833   9.751  0.2535  0.0800 -0.1686
  203loPI   GL2 3238  12.291  17.664   9.839  0.3003  0.0426 -0.1350
  203loPI   C1A 3239  12.584  18.048   9.397  0.1846  0.3784 -0.2602
  203loPI   C2A 3240  12.464  18.247   8.974 -0.0248 -0.0897 -0.2157
  203loPI   C3A 3241  12.371  18.229   8.541 -0.3304 -0.3468  0.0659
  203loPI   C4A 3242  12.097  18.256   8.112  0.1703  0.0500  0.0186
  203loPI   C5A 3243  11.995  18.255   7.702  0.1472  0.1564 -0.2217
  203loPI   C6A 3244  11.541  18.209   7.490  0.0006 -0.1237  0.0622
  203loPI   C1B 3245  12.088  17.269   9.537  0.1182 -0.0718  0.1957
  203loPI   C2B 3246  12.095  17.336   9.010  0.0784  0.0590  0.0775
  203loPI   C3B 3247  12.315  17.365   8.695 -0.1839 -0.4312  0.0193
  203loPI   C4B 3248  12.330  17.004   8.521 -0.0716  0.0006 -0.1964
  204loPI    C1 3249  18.138   6.846  10.307 -0.0578 -0.0445 -0.2952
  204loPI    C2 3250  18.399   6.558  10.210  0.0463 -0.0964  0.1214
  204loPI    C3 3251  18.015   6.467  10.275  0.0390 -0.1099  0.0598
  204loPI   PO4 3252  18.138   7.100  10.192  0.2050  0.0749 -0.3068
  204loPI   GL1 3253  18.114   7.398   9.849  0.0454 -0.2006 -0.3637
  204loPI   GL2 3254  17.804   7.382   9.912 -0.1328 -0.0395 -0.0489
  204loPI   C1A 3255  17.977   7.282   9.460 -0.2648  0.0780 -0.0133
  204loPI   C2A 3256  17.744   7.312   9.202  0.0592 -0.0335 -0.0653
  204loPI   C3A 3257  17.662   7.328   8.839  0.4600 -0.1520  0.1528
  204loPI   C4A 3258  17.520   7.367   8.480  0.1953  0.0273 -0.5122
  204loPI   C5A 3259  17.527   7.468   8.031 -0.0157 -0.1131  0.0795
  204loPI   C6A 3260  17.490   7.125   7.707  0.1460 -0.2426 -0.1924
  204loPI   C1B 3261  17.756   7.758   9.584  0.0028 -0.2060  0.1552
  204loPI   C2B 3262  17.789   7.831   9.269 -0.0710  0.3110 -0.2205
  204loPI   C3B 3263  17.930   7.902   8.885  0.2167 -0.2363 -0.2226
  204loPI   C4B 3264  18.335   7.974   8.712  0.0542  0.4369 -0.1160
  205loPI    C1 3265  13.613  14.586  10.124 -0.1626  0.0926 -0.1116
  205loPI    C2 3266  13.413  14.434  10.436 -0.0761  0.0744 -0.0647
  205loPI    C3 3267  13.767  14.612  10.493  0.1104 -0.2450 -0.1964
  205loPI   PO4 3268  13.504  14.767  10.022  0.0240  0.0088  0.1957
  205loPI   GL1 3269  13.223  14.773   9.682  0.1351 -0.0240  0.1330
  205loPI   GL2 3270  13.086  15.122   9.934 -0.0172  0.1674  0.0467
  205loPI   C1A 3271  13.299  14.666   9.181 -0.2973 -0.0089  0.0315
  205loPI   C2A 3272  13.390  14.692   8.718 -0.2138 -0.1674  0.2590
  205loPI   C3A 3273  13.391  14.807   8.385 -0.3747 -0.1923 -0.1228
  205loPI   C4A 3274  13.317  14.726   7.832 -0.2477 -0.1902  0.1730
  205loPI   C5A 3275  13.182  14.373   7.577  0.0686 -0.0280  0.2633
  205loPI   C6A 3276  13.272  13.964   7.637 -0.2581 -0.0442  0.3019
  205loPI   C1B 3277  12.849  15.410   9.726 -0.0982 -0.0535 -0.2484
  205loPI   C2B 3278  12.689  15.484   9.308  0.0298 -0.0758 -0.0958
  205loPI   C3B 3279  12.664  15.569   8.912 -0.1218 -0.1575  0.1096
  205loPI   C4B 3280  12.827  15.641   8.529 -0.0527  0.2528 -0.1855
  206loPI    C1 3281   7.763   3.962  10.460 -0.3654  0.2205 -0.0209
  206loPI    C2 3282   7.653   3.603  10.598  0.2778  0.0751  0.1460
  206loPI    C3 3283   7.516   3.935  10.773 -0.2898 -0.0802  0.0162
  206loPI   PO4 3284   7.664   4.023  10.209 -0.1124 -0.0643 -0.1982
  206loPI   GL1 3285   7.955   3.921   9.829 -0.2086 -0.1661  0.3617
  206loPI   GL2 3286   7.976   3.671   9.582 -0.3094  0.4214 -0.1066
  206loPI   C1A 3287   7.658   4.053   9.454 -0.0805 -0.3959 -0.0979
  206loPI   C2A 3288   7.623   4.003   9.071 -0.2847  0.3409  0.1056
  206loPI   C3A 3289   7.650   4.078   8.702  0.0491 -0.0800 -0.3026
  206loPI   C4A 3290   7.748   4.240   8.270 -0.3714  0.0112  0.2300
  206loPI   C5A 3291   7.874   4.075   7.862  0.1814  0.1703  0.2599
  206loPI   C6A 3292   7.618   4.271   7.456 -0.2304 -0.0844 -0.1366
  206loPI   C1B 3293   7.925   3.689   9.265 -0.1079 -0.1127 -0.1274
  206loPI   C2B 3294   7.925   3.634   8.803  0.1587 -0.1433  0.3583
  206loPI   C3B 3295   7.925   3.700   8.295 -0.1723 -0.1235  0.3063
  206loPI   C4B 3296   7.786   3.529   7.890 -0.1356 -0.1863 -0.2104
  207loPI    C1 3297  17.616   2.636   9.783  0.1509  0.0237 -0.1970
  207loPI    C2 3298  17.626   2.730  10.172  0.1017 -0.2238 -0.1345
  207loPI    C3 3299  17.927   2.839   9.932  0.1046 -0.0194 -0.0400
  207loPI   PO4 3300  17.399   2.494   9.728  0.2473  0.3000 -0.1868
  207loPI   GL1 3301  17.180   2.515   9.340 -0.0885  0.0763  0.1652
  207loPI   GL2 3302  17.010   2.205   9.212 -0.0749 -0.0625  0.1515
  207loPI   C1A 3303  17.310   2.884   9.002  0.2552 -0.0187  0.0348
  207loPI   C2A 3304  17.206   2.934   8.572 -0.1024  0.2178 -0.1408
  207loPI   C3A 3305  16.845   2.903   8.154  0.0428  0.1347 -0.1292
  207loPI   C4A 3306  16.329   2.913   7.968 -0.2698  0.2020 -0.0714
  207loPI   C5A 3307  15.900   2.755   7.941 -0.0522  0.1577 -0.0562
  207loPI   C6A 3308  15.534   2.765   8.168 -0.1876 -0.1240 -0.0770
  207loPI   C1B 3309  17.083   2.128   8.813 -0.0905  0.1813 -0.1690
  207loPI   C2B 3310  17.016   2.030   8.336  0.1888 -0.0620 -0.0074
  207loPI   C3B 3311  17.154   2.035   7.946  0.0446  0.1074  0.1656
  207loPI   C4B 3312  17.262   2.144   7.456 -0.0962  0.1623 -0.0008
  208loPI    C1 3313  13.232  16.020  10.426 -0.2141 -0.0323  0.1392
  208loPI    C2 3314  13.325  15.765  10.720 -0.1819  0.0237  0.1777
  208loPI    C3 3315  13.489  16.130  10.712  0.0021 -0.0607 -0.0404
  208loPI   PO4 3316  12.943  15.911  10.367  0.1270  0.2180 -0.1666
  208loPI   GL1 3317  12.893  15.872  10.018  0.4142  0.0255  0.2457
  208loPI   GL2 3318  13.113  15.957   9.865 -0.0734 -0.0853 -0.0289
  208loPI   C1A 3319  12.548  15.822   9.672 -0.2211  0.0142  0.2931
  208loPI   C2A 3320  12.438  15.920   9.202  0.1459  0.1202  0.0452
  208loPI   C3A 3321  12.467  16.001   8.793 -0.0349 -0.0798 -0.0033
  208loPI   C4A 3322  12.698  16.111   8.450 -0.1413  0.2797 -0.2250
  208loPI   C5A 3323  12.872  16.322   8.176 -0.0326  0.1329  0.1837
  208loPI   C6A 3324  12.904  16.749   7.922  0.1694 -0.1005 -0.0952
  208loPI   C1B 3325  13.412  16.116   9.579  0.1180  0.0664  0.1265
  208loPI   C2B 3326  13.525  16.352   9.205 -0.1398  0.0986 -0.0527
  208loPI   C3B 3327  13.500  16.340   8.853 -0.0939  0.1467 -0.1017
  208loPI   C4B 3328  12.969  16.426   8.747  0.2164 -0.0969  0.0908
  209loPI    C1 3329  15.237   9.468  10.309  0.0338  0.1425  0.0003
  209loPI    C2 3330  15.167   9.849  10.211 -0.3144  0.1143  0.1277
  209loPI    C3 3331  15.285   9.757  10.582 -0.0570  0.1140  0.0470
  209loPI   PO4 3332  15.377   9.356  10.088  0.0129 -0.0014 -0.0732
  209loPI   GL1 3333  15.366   9.091   9.799 -0.3824  0.1112  0.1273
  209loPI   GL2 3334  15.457   8.772   9.653  0.1004 -0.0313 -0.3232
  209loPI   C1A 3335  15.421   9.329   9.451 -0.0555 -0.2683 -0.0922
  209loPI   C2A 3336  15.397   9.440   9.051 -0.0399 -0.1666 -0.0168
  209loPI   C3A 3337  15.355   9.488   8.627 -0.3416 -0.2035 -0.1086
  209loPI   C4A 3338  15.081   9.391   8.246 -0.0314  0.1381  0.1072
  209loPI   C5A 3339  14.876   9.505   7.790 -0.1960  0.2337  0.0795
  209loPI   C6A 3340  14.491   9.548   7.534 -0.1397  0.0504  0.0677
  209loPI   C1B 3341  15.461   8.891   9.227  0.0711  0.1767 -0.2344
  209loPI   C2B 3342  15.443   8.998   8.862  0.1919 -0.1626 -0.2650
  209loPI   C3B 3343  15.260   8.909   8.429  0.0740  0.2189 -0.2452
  209loPI   C4B 3344  15.480   9.075   7.987 -0.2287  0.0277  0.1849
  210loPI    C1 3345  14.670   9.595  10.583  0.1761  0.0664  0.3434
  210loPI    C2 3346  14.595   9.988  10.568 -0.0591  0.0195  0.2468
  210loPI    C3 3347  14.820   9.838  10.863  0.0036  0.2216  0.3032
  210loPI   PO4 3348  14.705   9.568  10.268 -0.1868  0.2250 -0.0722
  210loPI   GL1 3349  14.885   9.505   9.917  0.1496  0.1291 -0.3496
  210loPI   GL2 3350  14.520   9.574   9.798 -0.0479 -0.1032  0.0857
  210loPI   C1A 3351  14.970   9.633   9.411 -0.0235 -0.0212 -0.1838
  210loPI   C2A 3352  15.044   9.804   8.968  0.0567 -0.0743 -0.0430
  210loPI   C3A 3353  14.929   9.752   8.602 -0.4009  0.0134  0.0604
  210loPI   C4A 3354  14.863   9.838   8.159  0.1282  0.1594  0.2149
  210loPI   C5A 3355  14.729   9.933   7.675 -0.1414  0.0013  0.1516
  210loPI   C6A 3356  15.013   9.789   7.383  0.0828  0.1314 -0.0203
  210loPI   C1B 3357  14.426   9.613   9.337 -0.2369  0.0769 -0.1184
  210loPI   C2B 3358  14.543   9.561   8.871 -0.1953  0.0726  0.1470
  210loPI   C3B 3359  14.463   9.572   8.413 -0.3077 -0.1410 -0.0602
  210loPI   C4B 3360  14.383   9.681   7.972 -0.1177 -0.0254 -0.0289
  211loPI    C1 3361   9.132   0.960  10.445  0.0402 -0.0440 -0.0551
  211loPI    C2 3362   8.826   0.859  10.208 -0.1442  0.0379  0.1455
  211loPI    C3 3363   8.788   0.835  10.606  0.1676 -0.1118  0.1692
  211loPI   PO4 3364   9.293   1.056  10.279 -0.0532 -0.1591  0.2706
  211loPI   GL1 3365   9.550   0.831  10.004  0.1586 -0.1943 -0.2816
  211loPI   GL2 3366   9.576   0.791   9.719 -0.0402 -0.0456 -0.2297
  211loPI   C1A 3367   9.115   0.872   9.761  0.0972 -0.2493 -0.0171
  211loPI   C2A 3368   8.966   1.072   9.441  0.1337  0.0041 -0.1804
  211loPI   C3A 3369   8.951   0.983   9.007  0.1435  0.0077  0.0711
  211loPI   C4A 3370   8.866   0.830   8.488 -0.2575 -0.0721 -0.0265
  211loPI   C5A 3371   8.706   0.772   8.059  0.0073 -0.1199  0.1264
  211loPI   C6A 3372   8.443   0.675   7.790  0.2455 -0.2250  0.0489
  211loPI   C1B 3373   9.754   0.911   9.232 -0.1168  0.0415  0.4881
  211loPI   C2B 3374   9.848   1.084   8.795  0.0469 -0.3042  0.0450
  211loPI   C3B 3375   9.732   1.241   8.283  0.0013 -0.2979  0.1892
  211loPI   C4B 3376   9.405   1.470   8.107 -0.0687 -0.4059 -0.0514
  212loPI    C1 3377   0.318   8.487  10.448  0.0390  0.0670 -0.1117
  212loPI    C2 3378   0.550   8.209  10.279  0.2264  0.0587  0.1528
  212loPI    C3 3379   0.655   8.594  10.262  0.0740  0.0933 -0.0338
  212loPI   PO4 3380   0.155   8.526  10.291 -0.0250 -0.0501  0.0161
  212loPI   GL1 3381   0.352   8.695   9.880 -0.0154 -0.2801 -0.0222
  212loPI   GL2 3382   0.043   8.754   9.882  0.1534  0.2518  0.0175
  212loPI   C1A 3383   0.353   8.697   9.410  0.0509 -0.0313 -0.0474
  212loPI   C2A 3384   0.437   8.542   8.988  0.0669  0.1663 -0.3338
  212loPI   C3A 3385   0.577   8.626   8.605  0.1156 -0.0782  0.0865
  212loPI   C4A 3386   0.534   8.688   8.116 -0.0740 -0.1786 -0.3250
  212loPI   C5A 3387   0.187   8.621   7.872  0.1759  0.0769 -0.1166
  212loPI   C6A 3388   0.038   8.351   7.515  0.0814  0.0801  0.1111
  212loPI   C1B 3389   0.064   9.180   9.741  0.0540  0.1247  0.0137
  212loPI   C2B 3390   0.157   9.589   9.739  0.1757 -0.1972 -0.0461
  212loPI   C3B 3391  -0.011  10.055   9.591  0.0256  0.1253 -0.2197
  212loPI   C4B 3392  -0.238  10.372   9.322 -0.1293 -0.3469 -0.1805
  213loPI    C1 3393  15.167   2.316  10.552  0.0765  0.3114 -0.0864
  213loPI    C2 3394  15.372   2.605  10.737  0.1296  0.1818  0.0593
  213loPI    C3 3395  15.300   2.260  10.925  0.0295  0.1160 -0.0981
  213loPI   PO4 3396  15.277   2.168  10.364  0.2575  0.0627  0.0843
  213loPI   GL1 3397  15.211   2.186   9.985  0.0801  0.0726  0.2222
  213loPI   GL2 3398  15.043   2.150   9.699 -0.0637  0.0131  0.0674
  213loPI   C1A 3399  15.559   2.177   9.632  0.0763  0.0963 -0.0669
  213loPI   C2A 3400  15.683   2.139   9.230  0.1419  0.2139 -0.0105
  213loPI   C3A 3401  15.601   2.116   8.758 -0.0292 -0.3065 -0.0072
  213loPI   C4A 3402  15.376   2.225   8.353  0.2022 -0.0142 -0.1469
  213loPI   C5A 3403  15.202   2.361   7.976  0.3695 -0.4342 -0.0271
  213loPI   C6A 3404  15.107   2.455   7.537 -0.0014  0.0022  0.0516
  213loPI   C1B 3405  15.180   2.471   9.449  0.0636 -0.1683  0.0095
  213loPI   C2B 3406  15.433   2.565   9.061 -0.2832  0.1200 -0.2173
  213loPI   C3B 3407  15.598   2.579   8.629 -0.1522  0.2298 -0.1789
  213loPI   C4B 3408  15.913   2.461   8.355 -0.1635  0.2669  0.0091
  214loPI    C1 3409   3.189  16.577  10.596  0.1504 -0.0035 -0.2884
  214loPI    C2 3410   3.354  16.921  10.474  0.1155  0.0447 -0.2006
  214loPI    C3 3411   3.524  16.710  10.768 -0.0000  0.1150 -0.0825
  214loPI   PO4 3412   3.107  16.469  10.287  0.2344 -0.1748  0.0281
  214loPI   GL1 3413   3.330  16.264   9.963 -0.2003  0.4803 -0.1355
  214loPI   GL2 3414   3.079  16.429   9.767 -0.0510  0.2155  0.3768
  214loPI   C1A 3415   3.539  16.226   9.576  0.1167  0.1267  0.1723
  214loPI   C2A 3416   3.426  16.137   9.097  0.0436 -0.1273  0.0898
  214loPI   C3A 3417   3.367  16.099   8.645  0.3462  0.1676  0.0791
  214loPI   C4A 3418   3.345  16.077   8.260 -0.1304 -0.0634  0.5095
  214loPI   C5A 3419   3.482  15.826   8.001 -0.0822  0.3658  0.0462
  214loPI   C6A 3420   3.728  15.821   7.699 -0.2171 -0.0793  0.2402
  214loPI   C1B 3421   3.084  16.469   9.287 -0.2740 -0.2781 -0.0397
  214loPI   C2B 3422   2.969  16.287   8.979  0.0901 -0.1940  0.2106
  214loPI   C3B 3423   2.913  16.320   8.525  0.1629  0.0444 -0.0569
  214loPI   C4B 3424   2.872  16.451   8.123 -0.1122  0.0041  0.1289
  215loPI    C1 3425   1.860   3.865  10.336  0.0162  0.0473  0.0178
  215loPI    C2 3426   1.698   3.526  10.473 -0.1679  0.0420 -0.2062
  215loPI    C3 3427   1.665   3.863  10.686 -0.1502 -0.0388 -0.0742
  215loPI   PO4 3428   2.020   3.845  10.166 -0.1521 -0.0028  0.1464
  215loPI   GL1 3429   1.981   3.883   9.689 -0.2694 -0.2480 -0.2423
  215loPI   GL2 3430   2.150   4.173   9.814  0.0488 -0.0888  0.0491
  215loPI   C1A 3431   2.148   3.481   9.403  0.4555 -0.0751 -0.1663
  215loPI   C2A 3432   2.181   3.609   8.943 -0.0139  0.0275 -0.1249
  215loPI   C3A 3433   2.138   3.864   8.576 -0.0554  0.0490 -0.2580
  215loPI   C4A 3434   2.169   3.753   8.128 -0.2429 -0.3405  0.1279
  215loPI   C5A 3435   1.850   3.924   7.748  0.0191 -0.1204 -0.0039
  215loPI   C6A 3436   1.613   3.786   7.272 -0.2696 -0.0048 -0.2288
  215loPI   C1B 3437   1.880   4.307   9.379 -0.1995  0.2527 -0.2905
  215loPI   C2B 3438   2.011   4.232   8.961 -0.2081 -0.1731 -0.4228
  215loPI   C3B 3439   1.837   4.271   8.504  0.3054  0.1543  0.0417
  215loPI   C4B 3440   1.727   4.283   8.143  0.3209 -0.3018  0.0522
  216loPI    C1 3441   3.759  11.205  10.138  0.3348  0.1039 -0.1061
  216loPI    C2 3442   3.587  11.462  10.391  0.0762  0.0782 -0.2518
  216loPI    C3 3443   3.814  11.164  10.532 -0.1616 -0.0073 -0.0419
  216loPI   PO4 3444   3.936  11.367  10.009  0.2304 -0.2867  0.1744
  216loPI   GL1 3445   4.003  11.632   9.589  0.0645  0.1098  0.1308
  216loPI   GL2 3446   4.179  12.008   9.518 -0.1391 -0.0310  0.0860
  216loPI   C1A 3447   3.968  11.627   9.185 -0.0283  0.1070 -0.1014
  216loPI   C2A 3448   3.707  11.479   8.865 -0.4458 -0.0783  0.3237
  216loPI   C3A 3449   3.594  11.431   8.425 -0.1406 -0.1938 -0.0242
  216loPI   C4A 3450   3.472  11.484   8.052 -0.1640 -0.0305  0.2748
  216loPI   C5A 3451   3.114  11.461   7.759  0.1884 -0.2115 -0.0391
  216loPI   C6A 3452   2.770  11.661   7.845 -0.0424  0.2765 -0.1091
  216loPI   C1B 3453   4.303  11.975   9.085 -0.0996  0.1302 -0.3140
  216loPI   C2B 3454   4.109  11.824   8.696  0.3480  0.2002 -0.0464
  216loPI   C3B 3455   3.767  11.925   8.361 -0.0879  0.4191  0.1837
  216loPI   C4B 3456   3.334  11.994   8.410  0.0985 -0.0326  0.1722
  217loPI    C1 3457  18.575   5.369  10.030 -0.0141  0.3120  0.1149
  217loPI    C2 3458  18.584   5.045  10.265  0.0426  0.2168 -0.0179
  217loPI    C3 3459  18.576   5.410  10.428 -0.1518  0.1461  0.1335
  217loPI   PO4 3460  18.671   5.190   9.822 -0.0904  0.4398  0.0915
  217loPI   GL1 3461  18.849   5.124   9.500 -0.2353  0.0551  0.1348
  217loPI   GL2 3462  18.597   5.416   9.249  0.0928 -0.1209  0.1179
  217loPI   C1A 3463  18.854   5.000   9.065 -0.0477 -0.0551 -0.1043
  217loPI   C2A 3464  18.598   4.739   8.788 -0.0843  0.0641  0.0569
  217loPI   C3A 3465  18.397   4.608   8.313  0.0795 -0.0848 -0.2702
  217loPI   C4A 3466  18.043   4.624   7.975 -0.1981  0.0606  0.1793
  217loPI   C5A 3467  17.814   4.385   7.594  0.1204  0.0067 -0.0557
  217loPI   C6A 3468  17.523   4.003   7.474  0.1142  0.1354 -0.1876
  217loPI   C1B 3469  18.417   5.231   8.899 -0.0333 -0.0050  0.0009
  217loPI   C2B 3470  18.491   5.155   8.394 -0.2157 -0.1109 -0.0915
  217loPI   C3B 3471  18.254   5.266   8.023  0.3600  0.3495  0.1716
  217loPI   C4B 3472  17.914   5.136   7.598  0.1879  0.3498 -0.2749
  218loPI    C1 3473  14.977   2.933  10.118  0.1482  0.1178 -0.0186
  218loPI    C2 3474  15.096   2.662   9.849  0.0377  0.1047 -0.0548
  218loPI    C3 3475  15.250   2.658  10.218  0.0177 -0.0235 -0.0475
  218loPI   PO4 3476  14.743   2.958  10.014 -0.1212  0.0250 -0.1144
  218loPI   GL1 3477  14.576   2.924   9.646 -0.0134 -0.3723 -0.1512
  218loPI   GL2 3478  14.722   2.803   9.566 -0.2037  0.1602  0.2135
  218loPI   C1A 3479  14.340   2.616   9.359 -0.0164 -0.1037 -0.0794
  218loPI   C2A 3480  14.232   2.565   8.914  0.1395 -0.2934 -0.1290
  218loPI   C3A 3481  14.309   2.750   8.509  0.0545 -0.2782 -0.0340
  218loPI   C4A 3482  14.376   2.592   8.082 -0.1325  0.1731 -0.0789
  218loPI   C5A 3483  14.087   2.176   8.045 -0.0093 -0.1103  0.1121
  218loPI   C6A 3484  14.199   1.753   8.097 -0.1127 -0.0919 -0.1349
  218loPI   C1B 3485  14.765   2.753   9.157  0.0051 -0.0649  0.3686
  218loPI   C2B 3486  14.778   2.741   8.791  0.3086  0.0818  0.0771
  218loPI   C3B 3487  15.129   2.868   8.591 -0.0756 -0.1591 -0.0682
  218loPI   C4B 3488  15.508   3.065   8.627  0.1637  0.3244  0.1004
  219loPI    C1 3489  13.427  11.860  10.232  0.0352 -0.0690 -0.1514
  219loPI    C2 3490  13.059  11.821  10.383  0.0855 -0.1345 -0.0451
  219loPI    C3 3491  13.288  12.131  10.492  0.0766 -0.1156 -0.0804
  219loPI   PO4 3492  13.441  11.725   9.943 -0.2035  0.3421  0.4587
  219loPI   GL1 3493  13.723  11.614   9.768 -0.1378 -0.1605 -0.2403
  219loPI   GL2 3494  14.053  11.620   9.820 -0.2989 -0.1231  0.3878
  219loPI   C1A 3495  13.802  11.911   9.455  0.0086  0.0691 -0.4960
  219loPI   C2A 3496  14.025  12.207   9.161 -0.1982 -0.4388 -0.0583
  219loPI   C3A 3497  14.200  12.318   8.708 -0.1531 -0.1008  0.2190
  219loPI   C4A 3498  14.448  12.208   8.393  0.0787  0.2646  0.0652
  219loPI   C5A 3499  14.583  12.017   7.961 -0.2002  0.1492 -0.1583
  219loPI   C6A 3500  14.766  11.624   7.708 -0.0294 -0.0958 -0.1167
  219loPI   C1B 3501  14.166  11.485   9.383 -0.2460  0.1129 -0.0691
  219loPI   C2B 3502  14.331  11.444   8.996  0.1648 -0.0803  0.0302
  219loPI   C3B 3503  14.463  11.446   8.551  0.2051  0.1607  0.1019
  219loPI   C4B 3504  14.709  11.629   8.272 -0.1554  0.1246  0.1713
  220loPI    C1 3505  11.483  15.885  10.878  0.0326  0.0513  0.0408
  220loPI    C2 3506  11.156  15.705  11.023  0.0224  0.3253  0.3706
  220loPI    C3 3507  11.509  15.518  11.035 -0.0529  0.1823  0.3707
  220loPI   PO4 3508  11.443  15.996  10.567 -0.0709 -0.2763  0.1846
  220loPI   GL1 3509  11.465  15.735  10.114 -0.2399 -0.2319 -0.2157
  220loPI   GL2 3510  11.388  15.934   9.751  0.3185  0.1608  0.2229
  220loPI   C1A 3511  11.697  15.511   9.678 -0.1053 -0.1328  0.1204
  220loPI   C2A 3512  11.612  15.490   9.256  0.0852  0.2819 -0.0452
  220loPI   C3A 3513  11.379  15.355   8.892 -0.1250 -0.0181 -0.1684
  220loPI   C4A 3514  11.305  15.183   8.528 -0.0233 -0.1234 -0.1119
  220loPI   C5A 3515  11.290  14.990   8.126  0.2004  0.0173  0.0138
  220loPI   C6A 3516  11.213  14.777   7.759  0.0174  0.0606 -0.3581
  220loPI   C1B 3517  11.112  15.931   9.614  0.1226  0.2281 -0.0551
  220loPI   C2B 3518  10.790  15.778   9.427 -0.1373 -0.0358 -0.1987
  220loPI   C3B 3519  10.611  15.729   9.023 -0.0055 -0.1144  0.0500
  220loPI   C4B 3520  10.229  15.721   8.875 -0.1343  0.1615  0.2148
  221loPI    C1 3521  16.875  17.682  10.460 -0.0112 -0.1920  0.0700
  221loPI    C2 3522  17.141  17.513  10.706  0.0173 -0.2188  0.0208
  221loPI    C3 3523  16.750  17.448  10.760  0.0055  0.0228  0.2478
  221loPI   PO4 3524  16.895  17.548  10.205 -0.1314  0.1334  0.2882
  221loPI   GL1 3525  16.894  17.501   9.758 -0.0924 -0.0410  0.0164
  221loPI   GL2 3526  16.552  17.448   9.830  0.2252 -0.0037  0.2814
  221loPI   C1A 3527  17.081  17.442   9.434 -0.3533 -0.0692  0.0240
  221loPI   C2A 3528  17.115  17.604   9.009  0.2268 -0.2986 -0.2719
  221loPI   C3A 3529  17.036  17.809   8.547 -0.4257  0.2651 -0.2577
  221loPI   C4A 3530  17.103  17.958   8.096 -0.1257  0.0296  0.1927
  221loPI   C5A 3531  17.031  18.364   7.774  0.1248 -0.2829  0.0105
  221loPI   C6A 3532  17.363  18.660   7.676  0.1101  0.0834 -0.0783
  221loPI   C1B 3533  16.536  17.542   9.375  0.0293 -0.0656 -0.2601
  221loPI   C2B 3534  16.628  17.417   9.021 -0.0460 -0.0464  0.0197
  221loPI   C3B 3535  17.058  17.090   8.934 -0.4802  0.0983  0.4627
  221loPI   C4B 3536  17.420  16.993   8.722 -0.0086  0.0154  0.3011
  222loPI    C1 3537   7.559  14.881  10.348  0.1593 -0.1126 -0.0723
  222loPI    C2 3538   7.528  14.759  10.728 -0.0762  0.1346 -0.0090
  222loPI    C3 3539   7.445  14.506  10.429 -0.0395 -0.0155  0.1062
  222loPI   PO4 3540   7.733  15.068  10.384  0.1278  0.2009 -0.3705
  222loPI   GL1 3541   7.900  15.347  10.118 -0.1180  0.1553 -0.0819
  222loPI   GL2 3542   7.600  15.305  10.005  0.0291 -0.0361  0.3844
  222loPI   C1A 3543   7.906  15.461   9.618  0.0381 -0.4762  0.2606
  222loPI   C2A 3544   7.945  15.490   9.225 -0.1741 -0.3221 -0.5113
  222loPI   C3A 3545   8.094  15.785   8.927 -0.1112 -0.2709 -0.4117
  222loPI   C4A 3546   8.083  15.896   8.544 -0.3619 -0.0313  0.1672
  222loPI   C5A 3547   8.339  15.825   8.207 -0.0683 -0.1194 -0.1240
  222loPI   C6A 3548   8.442  15.979   7.857 -0.1164 -0.2407  0.1766
  222loPI   C1B 3549   7.495  15.063   9.762 -0.1540 -0.1284 -0.5284
  222loPI   C2B 3550   7.540  15.132   9.264  0.1666  0.0976 -0.1079
  222loPI   C3B 3551   7.722  14.996   8.911 -0.1182 -0.0352  0.1125
  222loPI   C4B 3552   7.748  15.081   8.480 -0.0850  0.1253  0.0404
  223loPI    C1 3553  18.536  13.850  10.348  0.1575 -0.0359  0.1636
  223loPI    C2 3554  18.574  14.174  10.579  0.0916 -0.0406  0.1815
  223loPI    C3 3555  18.474  13.824  10.743  0.1645 -0.0705  0.1625
  223loPI   PO4 3556  18.740  13.843  10.211 -0.0009 -0.0115  0.0335
  223loPI   GL1 3557  18.660  13.726   9.853  0.0923  0.1637 -0.0706
  223loPI   GL2 3558  18.808  13.990   9.727 -0.1446 -0.0885  0.2906
  223loPI   C1A 3559  18.555  13.646   9.400 -0.2053  0.0580 -0.1366
  223loPI   C2A 3560  18.486  13.769   9.013 -0.0625 -0.0827 -0.1452
  223loPI   C3A 3561  18.307  13.658   8.738 -0.3629  0.2877  0.1165
  223loPI   C4A 3562  18.273  13.803   8.274  0.1751  0.3670  0.1636
  223loPI   C5A 3563  18.115  13.847   7.925 -0.1787  0.1159  0.0875
  223loPI   C6A 3564  17.900  14.044   7.473 -0.1192 -0.1905 -0.0067
  223loPI   C1B 3565  18.923  13.965   9.268 -0.1619 -0.0032 -0.1901
  223loPI   C2B 3566  18.894  14.048   8.846  0.1303 -0.1703  0.0703
  223loPI   C3B 3567  18.919  14.039   8.358  0.2293 -0.0976  0.1188
  223loPI   C4B 3568  19.062  14.253   7.957 -0.1025  0.1207  0.1499
  224loPI    C1 3569   8.653   7.673  10.464  0.0951 -0.2180 -0.0549
  224loPI    C2 3570   8.612   8.062  10.546  0.1475 -0.1534 -0.3276
  224loPI    C3 3571   8.822   7.827  10.792  0.0180 -0.0341 -0.1006
  224loPI   PO4 3572   8.642   7.704  10.164 -0.1414 -0.0107 -0.2186
  224loPI   GL1 3573   8.830   7.746   9.797  0.1100 -0.0245  0.0145
  224loPI   GL2 3574   8.879   7.525   9.664 -0.0813 -0.1418 -0.1920
  224loPI   C1A 3575   8.948   8.034   9.571 -0.1206 -0.0565 -0.0731
  224loPI   C2A 3576   9.092   8.231   9.163  0.1346 -0.0105  0.1477
  224loPI   C3A 3577   8.893   8.270   8.731  0.1423  0.4630 -0.0440
  224loPI   C4A 3578   8.864   8.282   8.289  0.3441  0.2620  0.1669
  224loPI   C5A 3579   8.591   8.221   7.947 -0.2410 -0.4414 -0.1164
  224loPI   C6A 3580   8.474   8.068   7.674  0.2096  0.0524  0.0541
  224loPI   C1B 3581   8.884   7.667   9.177  0.0224  0.0048 -0.1970
  224loPI   C2B 3582   9.139   7.754   8.789  0.1689  0.0716 -0.0627
  224loPI   C3B 3583   9.204   7.604   8.426  0.1519  0.3422  0.1780
  224loPI   C4B 3584   9.229   7.500   7.835 -0.4822 -0.0160 -0.0886
  225loPI    C1 3585   4.008   9.782  10.090 -0.2066 -0.1136 -0.0672
  225loPI    C2 3586   4.102   9.924  10.452 -0.0561 -0.0167 -0.1435
  225loPI    C3 3587   4.082   9.529  10.391 -0.2535 -0.0319  0.0132
  225loPI   PO4 3588   4.093   9.885   9.932 -0.0644 -0.1438 -0.1939
  225loPI   GL1 3589   4.257   9.869   9.558 -0.1422 -0.1325  0.0707
  225loPI   GL2 3590   4.579   9.806   9.606  0.1815  0.2471 -0.2604
  225loPI   C1A 3591   4.179  10.153   9.266  0.3041 -0.1189  0.0879
  225loPI   C2A 3592   3.860  10.303   8.902  0.0055 -0.2947 -0.0417
  225loPI   C3A 3593   3.609  10.522   8.660 -0.1836 -0.0271  0.1477
  225loPI   C4A 3594   3.233  10.548   8.340 -0.0135  0.1258  0.1212
  225loPI   C5A 3595   3.105  10.642   8.037 -0.1304 -0.0274  0.3180
  225loPI   C6A 3596   3.010  10.611   7.656  0.0669 -0.2827  0.0405
  225loPI   C1B 3597   4.599   9.879   9.144 -0.2178 -0.1309  0.5058
  225loPI   C2B 3598   4.610   9.674   8.677  0.2374 -0.1980  0.1879
  225loPI   C3B 3599   4.692   9.565   8.310  0.1600  0.0985 -0.0786
  225loPI   C4B 3600   4.813   9.156   8.130 -0.1147 -0.1443 -0.0703
  226loPI    C1 3601   1.218   0.404  10.227  0.0174 -0.0341  0.2251
  226loPI    C2 3602   1.296   0.725  10.452  0.0112  0.0073  0.1683
  226loPI    C3 3603   0.919   0.643  10.345  0.0246  0.0409  0.0942
  226loPI   PO4 3604   1.425   0.427  10.077  0.1171 -0.1061  0.0997
  226loPI   GL1 3605   1.525   0.567   9.681 -0.0673  0.0956 -0.0267
  226loPI   GL2 3606   1.523   0.874   9.476  0.1155 -0.2077  0.0600
  226loPI   C1A 3607   1.546   0.175   9.326 -0.0395 -0.0897 -0.2017
  226loPI   C2A 3608   1.549   0.182   8.973 -0.0753 -0.0033 -0.4030
  226loPI   C3A 3609   1.784   0.430   8.553 -0.1699 -0.0352 -0.0466
  226loPI   C4A 3610   1.782   0.509   8.089  0.2271  0.1144 -0.0037
  226loPI   C5A 3611   1.611   0.286   7.732 -0.1737  0.2103 -0.1358
  226loPI   C6A 3612   1.923   0.013   7.457  0.1942 -0.0339  0.1543
  226loPI   C1B 3613   1.510   0.748   9.137 -0.3116 -0.2094 -0.0137
  226loPI   C2B 3614   1.391   0.649   8.769 -0.2452 -0.6047  0.3366
  226loPI   C3B 3615   1.284   0.729   8.382 -0.3098  0.2912  0.0865
  226loPI   C4B 3616   1.086   0.728   7.991 -0.1029  0.0556  0.0244
  227loPI    C1 3617  17.792  14.456  10.592  0.2535 -0.3137 -0.2061
  227loPI    C2 3618  17.857  14.589  10.964 -0.1852 -0.3039 -0.1279
  227loPI    C3 3619  18.166  14.498  10.727  0.1064  0.0366  0.1116
  227loPI   PO4 3620  17.489  14.590  10.451 -0.0908  0.0500 -0.2783
  227loPI   GL1 3621  17.407  14.549  10.002 -0.0071 -0.0486  0.1585
  227loPI   GL2 3622  17.241  14.802   9.958 -0.0009 -0.0221  0.3214
  227loPI   C1A 3623  17.282  14.285   9.685  0.0007 -0.1236  0.2934
  227loPI   C2A 3624  17.226  14.133   9.229 -0.1222  0.0334  0.0784
  227loPI   C3A 3625  17.053  13.892   8.858  0.1265 -0.0952  0.1052
  227loPI   C4A 3626  16.974  13.720   8.471  0.1340 -0.1022  0.1698
  227loPI   C5A 3627  16.894  13.495   8.159 -0.2368  0.1618 -0.0576
  227loPI   C6A 3628  17.158  13.452   7.711  0.1936 -0.0132 -0.0126
  227loPI   C1B 3629  17.234  14.802   9.554  0.0949 -0.1039  0.1791
  227loPI   C2B 3630  17.185  14.653   9.217 -0.0662 -0.3418 -0.2416
  227loPI   C3B 3631  17.208  14.430   8.737  0.0897  0.0492  0.0329
  227loPI   C4B 3632  17.292  14.224   8.422 -0.0824  0.0742 -0.1320
  228loPI    C1 3633  11.847  16.530  10.542 -0.1011  0.0624  0.0646
  228loPI    C2 3634  11.947  16.151  10.463 -0.1186  0.0438  0.1306
  228loPI    C3 3635  12.202  16.448  10.379 -0.1417  0.0257 -0.0059
  228loPI   PO4 3636  11.630  16.564  10.395  0.0271 -0.0615 -0.2083
  228loPI   GL1 3637  11.557  16.600   9.948 -0.2247  0.1244 -0.2134
  228loPI   GL2 3638  11.952  16.708  10.003 -0.1184  0.0283  0.1982
  228loPI   C1A 3639  11.473  16.401   9.596 -0.1724  0.0884  0.3389
  228loPI   C2A 3640  11.201  16.242   9.209 -0.2447 -0.2259  0.0044
  228loPI   C3A 3641  11.010  16.284   8.880  0.0954 -0.0901  0.0341
  228loPI   C4A 3642  10.977  16.471   8.397  0.1566  0.2102  0.0417
  228loPI   C5A 3643  10.878  16.745   8.129 -0.1828 -0.1958 -0.0384
  228loPI   C6A 3644  10.959  16.925   7.809  0.0172  0.1644  0.0187
  228loPI   C1B 3645  11.834  16.697   9.546  0.0874  0.1392 -0.2916
  228loPI   C2B 3646  11.658  16.614   9.074 -0.0201 -0.2574  0.1050
  228loPI   C3B 3647  11.470  16.451   8.760  0.3130  0.4617  0.0729
  228loPI   C4B 3648  11.454  16.233   8.419  0.1975 -0.1167  0.1766
  229loPI    C1 3649   2.976   3.827  10.284 -0.0213  0.1032 -0.1351
  229loPI    C2 3650   3.261   4.008  10.498 -0.1028 -0.0453  0.1028
  229loPI    C3 3651   2.894   3.965  10.650 -0.2879  0.2461 -0.2459
  229loPI   PO4 3652   2.993   3.868  10.070  0.1175  0.0286  0.0838
  229loPI   GL1 3653   2.890   3.690   9.698  0.0921 -0.1029  0.0671
  229loPI   GL2 3654   3.102   3.491   9.727  0.1190 -0.1372 -0.2710
  229loPI   C1A 3655   2.937   3.898   9.301 -0.1873  0.0179 -0.4246
  229loPI   C2A 3656   3.079   3.735   8.917 -0.1470  0.2059  0.1634
  229loPI   C3A 3657   3.111   3.503   8.586  0.1587 -0.0320 -0.1480
  229loPI   C4A 3658   3.280   3.302   8.274  0.0671 -0.0026 -0.2061
  229loPI   C5A 3659   3.288   3.365   7.880 -0.1551  0.0496 -0.1559
  229loPI   C6A 3660   3.123   3.355   7.486 -0.3089 -0.1655 -0.1494
  229loPI   C1B 3661   3.378   3.598   9.381  0.3026 -0.1884 -0.1972
  229loPI   C2B 3662   3.530   3.533   8.906  0.0983 -0.1779  0.4807
  229loPI   C3B 3663   3.753   3.340   8.552 -0.0501  0.3379 -0.3844
  229loPI   C4B 3664   3.774   3.128   8.144  0.0893 -0.0508  0.0560
  230loPI    C1 3665  11.056   5.988  10.378  0.3033 -0.0068  0.0236
  230loPI    C2 3666  10.954   6.274  10.638 -0.1052 -0.0707 -0.0590
  230loPI    C3 3667  10.960   5.891  10.754  0.1681 -0.0585 -0.0240
  230loPI   PO4 3668  10.841   6.006  10.166  0.1536  0.2576  0.1109
  230loPI   GL1 3669  10.870   5.888   9.785 -0.0314 -0.0311  0.1051
  230loPI   GL2 3670  10.866   5.509   9.954  0.0207  0.1212  0.2041
  230loPI   C1A 3671  11.184   5.797   9.377  0.2557 -0.0373  0.1047
  230loPI   C2A 3672  11.286   5.812   8.936 -0.2306  0.0594 -0.0913
  230loPI   C3A 3673  11.193   5.770   8.614 -0.0368  0.1978  0.2812
  230loPI   C4A 3674  10.849   5.650   8.346 -0.2528 -0.2768 -0.1361
  230loPI   C5A 3675  10.599   5.527   8.007 -0.2024  0.1201  0.1675
  230loPI   C6A 3676  10.343   5.698   7.670  0.1794  0.1672  0.0364
  230loPI   C1B 3677  10.858   5.473   9.493  0.1109 -0.0668  0.0419
  230loPI   C2B 3678  10.807   5.566   9.164  0.1867  0.0786 -0.1185
  230loPI   C3B 3679  10.804   5.476   8.828  0.3018  0.1176  0.0637
  230loPI   C4B 3680  10.538   5.309   8.495 -0.2605  0.0119 -0.5826
  231loPI    C1 3681  15.629   7.242  10.216  0.0660  0.0050  0.2235
  231loPI    C2 3682  15.926   7.103  10.445  0.0708 -0.0948  0.1574
  231loPI    C3 3683  15.548   6.995  10.520  0.0660 -0.0789  0.1560
  231loPI   PO4 3684  15.735   7.224   9.971  0.0297  0.1372 -0.0978
  231loPI   GL1 3685  15.894   7.276   9.621  0.0997  0.1442  0.3406
  231loPI   GL2 3686  15.762   7.595   9.539  0.2533  0.1082 -0.0322
  231loPI   C1A 3687  15.939   7.083   9.206 -0.0546 -0.1085  0.0899
  231loPI   C2A 3688  16.250   6.873   8.904  0.2399  0.2071 -0.2388
  231loPI   C3A 3689  16.495   6.853   8.522  0.0507 -0.0357  0.0958
  231loPI   C4A 3690  16.907   6.715   8.286 -0.0487  0.2412 -0.0117
  231loPI   C5A 3691  17.276   6.549   8.055  0.2475 -0.3530  0.2721
  231loPI   C6A 3692  17.685   6.605   7.872 -0.1518 -0.1281 -0.2607
  231loPI   C1B 3693  15.943   7.670   9.193  0.0796 -0.0325  0.4828
  231loPI   C2B 3694  16.002   7.713   8.739 -0.1380 -0.1344 -0.1695
  231loPI   C3B 3695  16.297   7.871   8.590 -0.2199 -0.1234 -0.0875
  231loPI   C4B 3696  16.695   7.808   8.356 -0.1434 -0.1079  0.0767
  232loPI    C1 3697   0.373   0.773  10.218  0.0183  0.0912  0.0082
  232loPI    C2 3698   0.200   1.040  10.461  0.1946  0.4218 -0.2216
  232loPI    C3 3699   0.504   0.816  10.593 -0.0869  0.1836  0.0350
  232loPI   PO4 3700   0.229   0.549  10.163 -0.0252 -0.0094  0.1338
  232loPI   GL1 3701  -0.056   0.418   9.807  0.1248 -0.4409  0.3012
  232loPI   GL2 3702  -0.276   0.290   9.786  0.0300 -0.0745  0.2331
  232loPI   C1A 3703   0.131   0.165   9.476  0.1207 -0.1115 -0.2168
  232loPI   C2A 3704   0.135   0.213   9.104 -0.0768 -0.2096  0.1257
  232loPI   C3A 3705  -0.267   0.370   8.835  0.0379  0.0277 -0.0352
  232loPI   C4A 3706  -0.401   0.415   8.390 -0.1081 -0.2130  0.1893
  232loPI   C5A 3707  -0.422   0.603   7.994 -0.0423 -0.1379 -0.2860
  232loPI   C6A 3708  -0.829   0.385   7.761 -0.1778 -0.0784  0.1650
  232loPI   C1B 3709  -0.240   0.504   9.309  0.0682 -0.0477  0.0378
  232loPI   C2B 3710  -0.098   0.777   9.088 -0.0732  0.2310 -0.1193
  232loPI   C3B 3711   0.184   0.781   8.770 -0.0164  0.3728  0.1017
  232loPI   C4B 3712   0.617   0.751   8.844  0.0903 -0.1319 -0.1169
  233loPI    C1 3713  16.832   3.926  10.462  0.3490  0.0990  0.0349
  233loPI    C2 3714  16.814   3.576  10.655 -0.1215  0.0173 -0.1451
  233loPI    C3 3715  17.058   3.864  10.786  0.0957 -0.2911  0.1440
  233loPI   PO4 3716  16.846   3.892  10.219  0.0683  0.0859  0.1570
  233loPI   GL1 3717  16.977   3.961   9.886 -0.0712 -0.1271 -0.4870
  233loPI   GL2 3718  17.162   4.032   9.705  0.0699 -0.0104 -0.0756
  233loPI   C1A 3719  16.746   4.026   9.499  0.1672  0.1632  0.0567
  233loPI   C2A 3720  16.644   4.090   9.022  0.0722 -0.2947 -0.0722
  233loPI   C3A 3721  16.892   4.188   8.571 -0.1396 -0.5345 -0.0463
  233loPI   C4A 3722  17.061   4.390   8.263  0.0705  0.1734  0.2798
  233loPI   C5A 3723  17.140   4.408   7.799 -0.1936 -0.0276 -0.0547
  233loPI   C6A 3724  17.143   4.369   7.406 -0.0409  0.0643 -0.1872
  233loPI   C1B 3725  17.261   4.020   9.311 -0.2976  0.1972 -0.0043
  233loPI   C2B 3726  17.445   4.043   8.920 -0.1780 -0.1365 -0.0965
  233loPI   C3B 3727  17.611   4.308   8.726 -0.0402 -0.2260  0.0068
  233loPI   C4B 3728  17.791   4.346   8.353 -0.0184  0.1626  0.1923
  234loPI    C1 3729   9.692   9.856  10.249 -0.0053 -0.0024  0.3203
  234loPI    C2 3730  10.006  10.086  10.157  0.0663 -0.1983  0.0620
  234loPI    C3 3731  10.021   9.844  10.476  0.1251 -0.1075  0.1287
  234loPI   PO4 3732   9.626   9.783  10.009  0.1533 -0.1108  0.0441
  234loPI   GL1 3733   9.757  10.120   9.703 -0.0539  0.1173  0.0077
  234loPI   GL2 3734   9.340  10.199   9.703 -0.1192 -0.0940  0.1434
  234loPI   C1A 3735   9.782  10.098   9.378  0.0981 -0.0499 -0.2065
  234loPI   C2A 3736   9.703  10.174   8.893  0.0475 -0.0071 -0.2099
  234loPI   C3A 3737   9.909  10.116   8.553 -0.0374  0.1462  0.0621
  234loPI   C4A 3738  10.211  10.357   8.248  0.1862  0.1260  0.2386
  234loPI   C5A 3739  10.161  10.737   8.014 -0.0761 -0.2029  0.0956
  234loPI   C6A 3740  10.213  11.216   7.851  0.2115  0.1656 -0.0624
  234loPI   C1B 3741   9.202  10.369   9.327  0.0007  0.1120  0.1124
  234loPI   C2B 3742   9.202  10.270   8.829  0.0392  0.3078  0.0487
  234loPI   C3B 3743   9.260  10.102   8.326 -0.0116 -0.0676  0.0520
  234loPI   C4B 3744   9.311  10.009   7.792 -0.0936 -0.0337  0.3249
  235loPI    C1 3745   9.413  18.616  10.442 -0.0169 -0.2269  0.0279
  235loPI    C2 3746   9.578  18.259  10.512  0.0222 -0.2225 -0.0415
  235loPI    C3 3747   9.304  18.406  10.764  0.0413 -0.2799  0.0131
  235loPI   PO4 3748   9.657  18.725  10.289  0.1451  0.0008 -0.0941
  235loPI   GL1 3749   9.632  18.895   9.975 -0.4102 -0.1643 -0.1869
  235loPI   GL2 3750   9.380  18.937   9.917 -0.0319  0.1027  0.2038
  235loPI   C1A 3751   9.771  19.020   9.527  0.0632  0.1267  0.0123
  235loPI   C2A 3752   9.687  19.118   9.028  0.1217 -0.2627 -0.2468
  235loPI   C3A 3753   9.512  18.866   8.687 -0.2464 -0.0844  0.0918
  235loPI   C4A 3754   9.404  18.622   8.282 -0.1550  0.0663 -0.0413
  235loPI   C5A 3755   9.399  18.491   7.821  0.0305  0.3461  0.1029
  235loPI   C6A 3756   9.274  18.798   7.585  0.1065  0.0715 -0.0591
  235loPI   C1B 3757   9.262  19.008   9.575  0.0961  0.0363 -0.0668
  235loPI   C2B 3758   9.265  19.322   9.257 -0.1848 -0.1006 -0.2077
  235loPI   C3B 3759   9.309  19.366   8.809  0.0921  0.1242  0.0539
  235loPI   C4B 3760   9.676  19.345   8.531  0.3174  0.1278  0.0728
  236loPI    C1 3761   0.870  11.459  10.611 -0.0557  0.0342 -0.2000
  236loPI    C2 3762   0.766  11.083  10.700 -0.1201  0.0725 -0.1121
  236loPI    C3 3763   1.087  11.248  10.872 -0.0626  0.0410 -0.1887
  236loPI   PO4 3764   0.810  11.520  10.375 -0.0718  0.1585 -0.0835
  236loPI   GL1 3765   0.781  11.582   9.973  0.0647 -0.2283  0.2913
  236loPI   GL2 3766   0.927  11.365   9.743 -0.3160  0.3669  0.2873
  236loPI   C1A 3767   0.727  11.940   9.730  0.0264 -0.0507 -0.0013
  236loPI   C2A 3768   0.650  12.228   9.405  0.0155  0.0179 -0.2500
  236loPI   C3A 3769   0.469  12.386   9.070  0.1175  0.0116  0.0748
  236loPI   C4A 3770   0.307  12.608   8.704  0.0962 -0.0270  0.2162
  236loPI   C5A 3771   0.102  13.019   8.426  0.0250 -0.2273 -0.0333
  236loPI   C6A 3772  -0.206  13.190   8.106  0.0402 -0.0878 -0.0533
  236loPI   C1B 3773   0.836  11.224   9.315  0.1618 -0.2048 -0.0965
  236loPI   C2B 3774   0.763  11.378   8.883  0.2278  0.1008  0.3569
  236loPI   C3B 3775   0.762  11.436   8.504  0.2505  0.1741  0.3692
  236loPI   C4B 3776   0.974  11.446   8.165 -0.0100 -0.0784  0.0596
  237loPI    C1 3777  14.797   7.501  10.129 -0.0153  0.4095 -0.1999
  237loPI    C2 3778  15.105   7.267  10.233 -0.3653  0.0922  0.1538
  237loPI    C3 3779  14.940   7.514  10.502 -0.4529  0.2242 -0.0188
  237loPI   PO4 3780  14.819   7.609   9.925 -0.2322  0.3421 -0.0683
  237loPI   GL1 3781  15.042   7.408   9.499 -0.1264 -0.1045  0.1773
  237loPI   GL2 3782  14.680   7.363   9.369  0.0958 -0.1955  0.0591
  237loPI   C1A 3783  15.052   7.628   9.149 -0.1775  0.1890  0.2466
  237loPI   C2A 3784  15.065   7.568   8.699  0.0180  0.0961 -0.3193
  237loPI   C3A 3785  15.250   7.493   8.184  0.1273  0.0351  0.0017
  237loPI   C4A 3786  15.193   7.363   7.814 -0.1546  0.1349  0.2439
  237loPI   C5A 3787  14.959   7.114   7.559  0.1437  0.0323  0.0683
  237loPI   C6A 3788  14.862   7.293   7.174 -0.0631  0.3055 -0.0402
  237loPI   C1B 3789  14.952   7.138   9.058 -0.3342 -0.1289  0.1167
  237loPI   C2B 3790  15.146   6.755   8.819 -0.1918  0.3089  0.0100
  237loPI   C3B 3791  15.076   6.683   8.394 -0.1990  0.1194 -0.0023
  237loPI   C4B 3792  15.220   6.863   7.968 -0.1321 -0.0066  0.1518
  238loPI    C1 3793   7.581   6.218   9.929 -0.1206  0.0075  0.0159
  238loPI    C2 3794   7.923   6.032  10.020 -0.0219  0.1078 -0.1463
  238loPI    C3 3795   7.826   6.374  10.204 -0.0729  0.0387 -0.0441
  238loPI   PO4 3796   7.622   6.209   9.642 -0.0961  0.1741 -0.0152
  238loPI   GL1 3797   7.964   6.181   9.282  0.0477  0.0452 -0.0368
  238loPI   GL2 3798   7.959   5.927   9.068  0.0218  0.3355 -0.0617
  238loPI   C1A 3799   7.699   6.505   9.002  0.0176  0.3485 -0.0524
  238loPI   C2A 3800   7.348   6.599   8.739 -0.1955 -0.2322  0.2867
  238loPI   C3A 3801   7.056   6.461   8.461  0.2882 -0.0857 -0.1554
  238loPI   C4A 3802   6.899   6.787   8.283 -0.0236  0.0128 -0.1604
  238loPI   C5A 3803   6.641   6.826   7.975  0.0424  0.1093  0.0389
  238loPI   C6A 3804   6.638   6.529   7.638  0.2396  0.0474 -0.0102
  238loPI   C1B 3805   7.886   6.160   8.728 -0.0448  0.1380  0.1336
  238loPI   C2B 3806   7.839   6.315   8.383 -0.1058 -0.2811  0.2066
  238loPI   C3B 3807   7.415   6.320   8.168  0.0292 -0.1082  0.0850
  238loPI   C4B 3808   7.161   6.054   7.938 -0.0511 -0.0918  0.0353
  239loPI    C1 3809  11.643   4.311  10.562 -0.0496 -0.1636  0.0354
  239loPI    C2 3810  11.914   4.532  10.756  0.0616 -0.2522 -0.0189
  239loPI    C3 3811  11.525   4.577  10.838  0.0861 -0.0639 -0.0018
  239loPI   PO4 3812  11.777   4.318  10.304 -0.2284 -0.0368  0.0387
  239loPI   GL1 3813  11.904   4.121   9.904 -0.0959 -0.2088 -0.2788
  239loPI   GL2 3814  12.286   4.223   9.912 -0.1435 -0.1310 -0.0111
  239loPI   C1A 3815  11.935   4.144   9.491  0.0711  0.0654  0.3920
  239loPI   C2A 3816  12.112   4.040   9.105 -0.2266  0.1621  0.1379
  239loPI   C3A 3817  12.130   4.082   8.661 -0.0778  0.1117  0.1418
  239loPI   C4A 3818  12.087   4.107   8.172 -0.0392 -0.2117 -0.1844
  239loPI   C5A 3819  11.811   4.305   7.964  0.2043 -0.2587  0.1482
  239loPI   C6A 3820  11.430   4.456   8.085 -0.4419 -0.1200  0.1077
  239loPI   C1B 3821  12.424   4.198   9.484  0.2630  0.0183 -0.0017
  239loPI   C2B 3822  12.609   4.142   9.118 -0.1793  0.0945 -0.1022
  239loPI   C3B 3823  12.592   3.896   8.690 -0.2551 -0.1764  0.0036
  239loPI   C4B 3824  12.735   3.577   8.453  0.2280 -0.4022  0.0270
  240loPI    C1 3825   7.109   9.898  10.239 -0.0507 -0.0222  0.0998
  240loPI    C2 3826   6.970  10.228  10.417 -0.0321  0.0586 -0.0342
  240loPI    C3 3827   6.968   9.879  10.613 -0.0089  0.1466  0.1247
  240loPI   PO4 3828   7.181   9.924   9.988 -0.1029 -0.2218 -0.3457
  240loPI   GL1 3829   7.463  10.117   9.650  0.1913  0.1179 -0.0228
  240loPI   GL2 3830   7.393  10.422   9.642 -0.1530 -0.1677 -0.1141
  240loPI   C1A 3831   7.356  10.274   9.149  0.3394 -0.1725 -0.2211
  240loPI   C2A 3832   7.208  10.476   8.766 -0.1592  0.3182  0.5515
  240loPI   C3A 3833   7.299  10.846   8.395 -0.1778  0.0775 -0.0993
  240loPI   C4A 3834   7.461  11.063   8.049  0.0625 -0.0735  0.2474
  240loPI   C5A 3835   7.548  11.298   7.609  0.1377  0.2653  0.0503
  240loPI   C6A 3836   7.724  11.575   7.539 -0.0798 -0.0630  0.0869
  240loPI   C1B 3837   7.324  10.743   9.347  0.2766 -0.3287  0.2360
  240loPI   C2B 3838   7.326  10.948   8.996  0.1444  0.1203 -0.2556
  240loPI   C3B 3839   7.122  11.203   8.680  0.1348  0.0680  0.2902
  240loPI   C4B 3840   7.261  11.441   8.363  0.1727 -0.1467  0.0642
  241loPI    C1 3841  13.380   9.019  10.462  0.1156 -0.0393 -0.0933
  241loPI    C2 3842  13.740   9.029  10.636  0.1223  0.2186 -0.1178
  241loPI    C3 3843  13.442   8.823  10.805  0.2698  0.0354 -0.0774
  241loPI   PO4 3844  13.379   8.991  10.139 -0.0698  0.1625 -0.0518
  241loPI   GL1 3845  13.335   8.584   9.842 -0.2362 -0.1092 -0.0081
  241loPI   GL2 3846  13.590   8.777   9.740 -0.0154  0.1660 -0.2576
  241loPI   C1A 3847  13.332   8.622   9.335 -0.1907  0.0811 -0.3290
  241loPI   C2A 3848  13.514   8.794   9.015  0.1345 -0.0173 -0.1706
  241loPI   C3A 3849  13.777   9.017   8.654 -0.1490 -0.0001 -0.1114
  241loPI   C4A 3850  13.888   9.398   8.623  0.0105  0.0819  0.0439
  241loPI   C5A 3851  13.968   9.608   8.259  0.3163  0.1271  0.1924
  241loPI   C6A 3852  13.972  10.043   8.211 -0.0524  0.0866 -0.0106
  241loPI   C1B 3853  13.608   9.062   9.415 -0.1654 -0.0161  0.2504
  241loPI   C2B 3854  13.718   9.339   9.141 -0.0079  0.0048 -0.2149
  241loPI   C3B 3855  14.049   9.687   8.966 -0.0006 -0.0193  0.1744
  241loPI   C4B 3856  14.120  10.072   9.182  0.0035 -0.0916 -0.2746
  242loPI    C1 3857  14.590   1.191  10.722 -0.1639 -0.0582 -0.1706
  242loPI    C2 3858  14.193   1.188  10.677 -0.1861 -0.1706  0.0197
  242loPI    C3 3859  14.386   0.850  10.770 -0.0603 -0.0908  0.0505
  242loPI   PO4 3860  14.731   1.253  10.539 -0.1683 -0.0911  0.0343
  242loPI   GL1 3861  14.730   1.433  10.073  0.1108  0.2437 -0.1751
  242loPI   GL2 3862  14.987   1.459   9.874 -0.0512 -0.0128 -0.1269
  242loPI   C1A 3863  14.517   1.350   9.670 -0.0959 -0.1580  0.1997
  242loPI   C2A 3864  14.515   0.988   9.552 -0.3229 -0.2022 -0.2132
  242loPI   C3A 3865  14.631   0.769   9.159 -0.1700 -0.0413  0.0637
  242loPI   C4A 3866  14.531   0.415   8.965  0.0458 -0.0892  0.2694
  242loPI   C5A 3867  14.403   0.291   8.480  0.1323  0.1062 -0.1301
  242loPI   C6A 3868  14.395   0.134   7.986  0.0376 -0.2897 -0.0102
  242loPI   C1B 3869  14.976   1.295   9.564 -0.0774  0.0253 -0.0264
  242loPI   C2B 3870  14.805   1.181   9.142 -0.1051 -0.3067 -0.0459
  242loPI   C3B 3871  14.919   1.026   8.754 -0.2820 -0.0709  0.0215
  242loPI   C4B 3872  14.801   0.981   8.199 -0.0066 -0.1809  0.1087
  243loPI    C1 3873   3.105   6.671  10.263  0.0165 -0.0714  0.1061
  243loPI    C2 3874   3.200   6.497  10.611  0.1469  0.4723  0.3527
  243loPI    C3 3875   2.848   6.682  10.570 -0.0850 -0.0217  0.0200
  243loPI   PO4 3876   3.227   6.510  10.095  0.0908 -0.4214 -0.0204
  243loPI   GL1 3877   3.153   6.469   9.685  0.2741  0.0833 -0.2463
  243loPI   GL2 3878   3.504   6.532   9.680  0.0021  0.2968 -0.0336
  243loPI   C1A 3879   3.153   6.218   9.215 -0.2219 -0.0087 -0.3739
  243loPI   C2A 3880   3.184   6.059   8.797 -0.1185  0.2344  0.1454
  243loPI   C3A 3881   3.419   5.964   8.415  0.0945  0.0712  0.4299
  243loPI   C4A 3882   3.504   5.890   7.953 -0.2157 -0.2248 -0.1598
  243loPI   C5A 3883   3.256   6.163   7.639  0.2510  0.0630  0.0838
  243loPI   C6A 3884   3.044   6.456   7.564 -0.0600  0.1477 -0.2471
  243loPI   C1B 3885   3.582   6.422   9.235  0.0287 -0.5638  0.1646
  243loPI   C2B 3886   3.575   6.383   8.818 -0.0596 -0.0798 -0.2055
  243loPI   C3B 3887   3.568   6.410   8.401 -0.1049  0.4024 -0.1211
  243loPI   C4B 3888   3.597   6.450   7.957 -0.4559  0.0893 -0.2814
  244loPI    C1 3889   1.038  13.956  10.521  0.2676 -0.1782 -0.0282
  244loPI    C2 3890   0.809  14.040  10.838 -0.0411  0.0733 -0.3107
  244loPI    C3 3891   1.205  14.090  10.859 -0.0288 -0.1588  0.1138
  244loPI   PO4 3892   0.882  13.769  10.420 -0.1745  0.0193 -0.2486
  244loPI   GL1 3893   0.591  13.808  10.080  0.0122  0.0205  0.3916
  244loPI   GL2 3894   0.467  13.448   9.990 -0.2664 -0.0964 -0.0946
  244loPI   C1A 3895   0.724  13.810   9.656  0.0159 -0.0399  0.0925
  244loPI   C2A 3896   0.733  13.722   9.172 -0.0600  0.0475  0.0249
  244loPI   C3A 3897   0.674  13.824   8.681 -0.0009  0.1644 -0.0859
  244loPI   C4A 3898   0.702  13.770   8.208 -0.2478  0.0802  0.5168
  244loPI   C5A 3899   0.475  13.641   7.829 -0.1636  0.0577  0.1017
  244loPI   C6A 3900  -0.017  13.597   7.799 -0.2650 -0.0088 -0.3202
  244loPI   C1B 3901   0.335  13.443   9.555  0.1664  0.1753  0.0742
  244loPI   C2B 3902   0.308  13.533   9.058  0.0163  0.0291  0.3745
  244loPI   C3B 3903   0.127  13.596   8.648  0.0539 -0.2685 -0.1203
  244loPI   C4B 3904   0.177  13.565   8.270 -0.0085  0.3460 -0.2019
  245loPI    C1 3905  12.859  17.651  10.669  0.0619  0.1281  0.0259
  245loPI    C2 3906  12.573  17.374  10.625  0.1616  0.0473 -0.1223
  245loPI    C3 3907  12.477  17.744  10.743  0.0059 -0.0008 -0.0960
  245loPI   PO4 3908  13.062  17.643  10.442 -0.0622 -0.0294 -0.2871
  245loPI   GL1 3909  13.226  17.530  10.012  0.1390  0.4249  0.0368
  245loPI   GL2 3910  13.108  17.710   9.925 -0.1635  0.0732  0.0522
  245loPI   C1A 3911  13.451  17.433   9.598 -0.1180 -0.0890  0.0351
  245loPI   C2A 3912  13.469  17.304   9.163 -0.2071 -0.5038  0.3018
  245loPI   C3A 3913  13.596  17.192   8.741  0.2856 -0.1165  0.2277
  245loPI   C4A 3914  13.597  16.752   8.613  0.1251  0.0341  0.1018
  245loPI   C5A 3915  13.406  16.395   8.330 -0.1542  0.0230 -0.2491
  245loPI   C6A 3916  13.206  16.035   8.508  0.1545  0.1660 -0.0520
  245loPI   C1B 3917  13.049  17.802   9.532  0.3229  0.0441  0.0583
  245loPI   C2B 3918  12.939  17.409   9.354  0.3129  0.1408 -0.3617
  245loPI   C3B 3919  12.770  17.270   9.027  0.1527  0.0410 -0.1050
  245loPI   C4B 3920  12.659  16.884   8.854  0.2749  0.2682  0.2194
  246loPI    C1 3921  12.672  17.030  10.305  0.0017  0.0068 -0.3524
  246loPI    C2 3922  13.047  17.042  10.167  0.1194 -0.1589 -0.0578
  246loPI    C3 3923  12.977  17.078  10.559 -0.2098  0.3320 -0.1516
  246loPI   PO4 3924  12.527  16.770  10.103 -0.0217 -0.0558  0.1676
  246loPI   GL1 3925  12.523  16.927   9.735 -0.1153  0.2514 -0.1296
  246loPI   GL2 3926  12.524  17.272   9.616 -0.2458  0.0705  0.0524
  246loPI   C1A 3927  12.268  16.854   9.392 -0.0321 -0.4172  0.3447
  246loPI   C2A 3928  12.139  16.842   8.969  0.2801 -0.0303  0.2231
  246loPI   C3A 3929  11.942  16.676   8.554  0.0414 -0.0446 -0.0114
  246loPI   C4A 3930  11.807  16.500   8.148 -0.1036 -0.1912 -0.2257
  246loPI   C5A 3931  11.708  16.255   7.859 -0.0698 -0.1590 -0.0042
  246loPI   C6A 3932  11.920  15.842   7.658 -0.1941  0.2236  0.1413
  246loPI   C1B 3933  12.435  17.565   9.308 -0.1303 -0.0371  0.3741
  246loPI   C2B 3934  12.675  17.770   9.037 -0.0245 -0.0251 -0.1433
  246loPI   C3B 3935  12.821  17.884   8.673 -0.3293  0.1493  0.3543
  246loPI   C4B 3936  13.063  17.793   8.415  0.0730 -0.2343  0.2021
  247loPI    C1 3937  17.230  10.929  10.697 -0.1410  0.1136 -0.0348
  247loPI    C2 3938  17.407  10.770  11.019 -0.1732  0.0325 -0.0566
  247loPI    C3 3939  17.205  11.114  11.051 -0.1712  0.0279  0.0082
  247loPI   PO4 3940  17.367  10.814  10.453  0.1962  0.0433 -0.0555
  247loPI   GL1 3941  17.522  10.765   9.934  0.2196 -0.3470  0.0796
  247loPI   GL2 3942  17.449  11.084  10.025 -0.0166 -0.0748  0.1997
  247loPI   C1A 3943  17.612  10.652   9.420  0.2290  0.0291  0.1630
  247loPI   C2A 3944  17.928  10.600   9.236  0.3021 -0.1646 -0.0898
  247loPI   C3A 3945  18.122  10.525   8.881 -0.1419  0.1767 -0.0502
  247loPI   C4A 3946  18.253  10.061   8.746 -0.1592 -0.2969  0.4250
  247loPI   C5A 3947  18.268   9.859   8.357  0.2393 -0.0113 -0.1517
  247loPI   C6A 3948  18.657   9.727   8.094 -0.1071 -0.1847  0.2241
  247loPI   C1B 3949  17.463  11.150   9.573 -0.2375 -0.0444  0.0292
  247loPI   C2B 3950  17.614  11.091   9.183  0.1003  0.0128 -0.0561
  247loPI   C3B 3951  17.532  11.291   8.813  0.1679  0.2114  0.1899
  247loPI   C4B 3952  17.839  11.266   8.497 -0.2167 -0.0107 -0.0140
  248loPI    C1 3953  14.923  14.647  10.571  0.0722 -0.1214  0.1768
  248loPI    C2 3954  15.120  14.521  10.895  0.2869  0.2367  0.1901
  248loPI    C3 3955  14.869  14.832  10.922 -0.1987 -0.1404  0.1475
  248loPI   PO4 3956  15.099  14.649  10.376 -0.2561  0.0346 -0.3360
  248loPI   GL1 3957  15.133  14.649   9.880  0.2353  0.1781 -0.0088
  248loPI   GL2 3958  15.445  14.639   9.849  0.4035  0.2689  0.1334
  248loPI   C1A 3959  14.975  14.683   9.624 -0.0311 -0.1596  0.0058
  248loPI   C2A 3960  14.985  14.784   9.181  0.0553 -0.1439  0.1193
  248loPI   C3A 3961  14.952  14.767   8.714 -0.1046 -0.0670  0.1419
  248loPI   C4A 3962  14.747  14.704   8.326 -0.2949  0.1957  0.0527
  248loPI   C5A 3963  14.814  14.674   7.816  0.0156  0.0968  0.1490
  248loPI   C6A 3964  14.891  14.996   7.493 -0.3505  0.1303 -0.0028
  248loPI   C1B 3965  15.474  14.658   9.388  0.1538  0.2164 -0.1751
  248loPI   C2B 3966  15.370  14.634   8.974 -0.0117 -0.1036 -0.1658
  248loPI   C3B 3967  15.438  14.709   8.482  0.0867  0.0223 -0.0567
  248loPI   C4B 3968  15.201  14.888   8.215  0.1409  0.2258 -0.1583
  249loPI    C1 3969  15.149  12.367  10.946  0.0542  0.4190  0.3213
  249loPI    C2 3970  15.041  12.078  11.201  0.0393  0.0491 -0.0921
  249loPI    C3 3971  14.836  12.421  11.189 -0.2073 -0.0883  0.1116
  249loPI   PO4 3972  15.133  12.280  10.666  0.0586 -0.3032  0.1950
  249loPI   GL1 3973  15.313  12.141  10.282  0.2348 -0.2624  0.2101
  249loPI   GL2 3974  15.079  11.875  10.235  0.0243  0.0465  0.0812
  249loPI   C1A 3975  15.324  12.303   9.846  0.3951  0.0933 -0.2242
  249loPI   C2A 3976  15.152  12.284   9.408  0.2403 -0.1207  0.0369
  249loPI   C3A 3977  15.176  12.221   8.958  0.0024 -0.1205  0.0636
  249loPI   C4A 3978  15.011  12.340   8.535 -0.0393  0.1163  0.2228
  249loPI   C5A 3979  14.796  12.444   8.134 -0.0439 -0.0823  0.0455
  249loPI   C6A 3980  14.709  12.401   7.717  0.0551  0.0920  0.0598
  249loPI   C1B 3981  15.258  11.825   9.821  0.2056 -0.2256  0.3102
  249loPI   C2B 3982  15.491  11.915   9.476 -0.3345 -0.2326 -0.0470
  249loPI   C3B 3983  15.622  11.922   9.061  0.2842  0.1174  0.3060
  249loPI   C4B 3984  16.029  11.912   8.851 -0.0559 -0.1266 -0.0404
  250loPI    C1 3985  16.380  11.363  10.354  0.1868 -0.0879 -0.0849
  250loPI    C2 3986  16.347  11.501  10.729 -0.1369  0.1743 -0.2045
  250loPI    C3 3987  16.162  11.690  10.429 -0.1148 -0.1963 -0.4592
  250loPI   PO4 3988  16.407  11.024  10.367 -0.1278  0.2411  0.1708
  250loPI   GL1 3989  16.569  10.625  10.014 -0.1976  0.0219 -0.1766
  250loPI   GL2 3990  16.583  11.032   9.913 -0.0602  0.0146 -0.0581
  250loPI   C1A 3991  16.634  10.652   9.604  0.4218 -0.0408  0.4323
  250loPI   C2A 3992  16.549  10.374   9.250 -0.0298 -0.0696  0.0677
  250loPI   C3A 3993  16.527  10.291   8.861  0.1319  0.3378 -0.1817
  250loPI   C4A 3994  16.356  10.087   8.455  0.2211  0.1545  0.1395
  250loPI   C5A 3995  16.170  10.179   8.076  0.0581 -0.1251  0.0608
  250loPI   C6A 3996  16.011  10.089   7.677  0.0131 -0.0887  0.0836
  250loPI   C1B 3997  16.283  11.085   9.611  0.0773 -0.1584 -0.1096
  250loPI   C2B 3998  16.091  11.213   9.203 -0.0372  0.1038 -0.2030
  250loPI   C3B 3999  16.280  11.148   8.763 -0.0979 -0.0516  0.1561
  250loPI   C4B 4000  16.190  11.122   8.287 -0.1244 -0.1787 -0.4086
  251loPI    C1 4001   1.770   6.878  10.062 -0.0855 -0.1915 -0.0090
  251loPI    C2 4002   2.131   6.835  10.230  0.0404 -0.2676 -0.2939
  251loPI    C3 4003   1.811   6.902  10.460  0.2410 -0.1587 -0.0413
  251loPI   PO4 4004   1.824   6.992   9.791 -0.0929 -0.4245 -0.1055
  251loPI   GL1 4005   1.704   7.169   9.476  0.0404 -0.2972 -0.1803
  251loPI   GL2 4006   1.474   6.942   9.463  0.1410  0.0006  0.1436
  251loPI   C1A 4007   1.752   7.186   9.024  0.1752 -0.2051 -0.1258
  251loPI   C2A 4008   1.533   7.095   8.581  0.2067  0.0425 -0.2141
  251loPI   C3A 4009   1.671   6.976   8.240 -0.2589  0.1080 -0.2977
  251loPI   C4A 4010   1.732   6.740   7.841 -0.2801 -0.2281 -0.0302
  251loPI   C5A 4011   1.894   6.569   7.438  0.0041  0.4561  0.2416
  251loPI   C6A 4012   2.163   6.804   7.262 -0.1692  0.0100  0.0869
  251loPI   C1B 4013   1.241   7.094   9.111 -0.1423 -0.1212  0.1679
  251loPI   C2B 4014   1.023   7.192   8.719 -0.2902  0.1932  0.1414
  251loPI   C3B 4015   1.032   7.065   8.336 -0.0842  0.1778  0.2247
  251loPI   C4B 4016   1.264   6.974   7.970  0.2107  0.0789 -0.0018
  252loPI    C1 4017   7.174  16.739  10.904 -0.1257 -0.1619  0.0483
  252loPI    C2 4018   7.444  16.698  11.196  0.1508  0.3405 -0.1231
  252loPI    C3 4019   7.086  16.857  11.276  0.0485  0.0437  0.0264
  252loPI   PO4 4020   7.297  16.805  10.644 -0.0701 -0.0787  0.4110
  252loPI   GL1 4021   7.545  16.822  10.325 -0.0249 -0.1668  0.1124
  252loPI   GL2 4022   7.639  17.155  10.098 -0.0424  0.1134 -0.0833
  252loPI   C1A 4023   7.532  16.725   9.883 -0.0583  0.1193 -0.2966
  252loPI   C2A 4024   7.525  16.991   9.464  0.0927  0.2289 -0.0552
  252loPI   C3A 4025   7.533  17.108   9.139 -0.3673  0.2159  0.0617
  252loPI   C4A 4026   7.389  17.069   8.736  0.0695 -0.0694  0.0054
  252loPI   C5A 4027   7.213  16.974   8.311 -0.0191 -0.1230 -0.0860
  252loPI   C6A 4028   6.686  16.967   8.210  0.1240 -0.1685  0.1606
  252loPI   C1B 4029   7.764  17.318   9.705  0.1196  0.2790 -0.1169
  252loPI   C2B 4030   7.911  17.432   9.265 -0.1429  0.0986 -0.0793
  252loPI   C3B 4031   7.942  17.526   8.868 -0.3043 -0.0617  0.1100
  252loPI   C4B 4032   8.096  17.747   8.461 -0.1519 -0.0920  0.1802
  253loPI    C1 4033  10.678  18.323  10.433  0.2988 -0.1440 -0.0658
  253loPI    C2 4034  10.509  18.510  10.744 -0.0262  0.0965 -0.3786
  253loPI    C3 4035  10.482  18.112  10.711  0.0019  0.0704 -0.1073
  253loPI   PO4 4036  10.589  18.399  10.222  0.2793 -0.1130  0.0843
  253loPI   GL1 4037  10.307  18.295   9.886 -0.1726  0.0610 -0.1573
  253loPI   GL2 4038  10.111  17.972   9.854 -0.1637  0.0914  0.0692
  253loPI   C1A 4039   9.973  18.527   9.692  0.0441  0.3233  0.0569
  253loPI   C2A 4040   9.977  18.699   9.226 -0.1004 -0.0732 -0.0353
  253loPI   C3A 4041   9.979  18.746   8.770 -0.0877  0.4467 -0.0333
  253loPI   C4A 4042   9.870  18.852   8.365 -0.1664  0.1493 -0.0701
  253loPI   C5A 4043   9.694  19.036   8.126  0.2407 -0.0676  0.0452
  253loPI   C6A 4044   9.254  19.225   7.987  0.0091 -0.1458 -0.3912
  253loPI   C1B 4045  10.015  17.989   9.444  0.2627 -0.1878 -0.2185
  253loPI   C2B 4046   9.870  17.974   9.149  0.0457  0.2161 -0.2500
  253loPI   C3B 4047   9.929  17.961   8.667  0.0874  0.0236 -0.2428
  253loPI   C4B 4048  10.210  17.719   8.267 -0.0859  0.0015 -0.3033
  254loPI    C1 4049   9.930  16.013  10.392 -0.0707 -0.0477  0.0055
  254loPI    C2 4050  10.119  15.665  10.333 -0.0512 -0.0353 -0.0038
  254loPI    C3 4051  10.019  15.777  10.703  0.0789  0.0203  0.0153
  254loPI   PO4 4052  10.061  16.206  10.207 -0.1303 -0.1269  0.0709
  254loPI   GL1 4053  10.095  16.355   9.831 -0.0800  0.1880  0.4584
  254loPI   GL2 4054  10.135  16.608   9.680  0.2820 -0.0924 -0.0970
  254loPI   C1A 4055   9.784  16.237   9.593  0.1643  0.0151  0.0025
  254loPI   C2A 4056   9.659  16.027   9.315  0.0591  0.0126  0.1864
  254loPI   C3A 4057   9.325  16.100   9.032  0.0801  0.1967  0.0146
  254loPI   C4A 4058   9.226  16.446   8.810 -0.1688 -0.0204 -0.2386
  254loPI   C5A 4059   9.357  16.759   8.486  0.0149  0.0300 -0.1406
  254loPI   C6A 4060   9.619  17.062   8.264  0.1969  0.0347 -0.1920
  254loPI   C1B 4061  10.174  16.559   9.212 -0.1366  0.1856  0.0618
  254loPI   C2B 4062  10.156  16.617   8.794 -0.1123 -0.0177 -0.2147
  254loPI   C3B 4063  10.443  16.519   8.436 -0.4196  0.2560 -0.1163
  254loPI   C4B 4064  10.631  16.308   7.965 -0.1047  0.2151 -0.1218
  255loPI    C1 4065  17.161   9.806  10.783  0.0979  0.0343  0.0843
  255loPI    C2 4066  17.496   9.998  10.890  0.0619  0.1242  0.0365
  255loPI    C3 4067  17.229   9.892  11.168  0.1264  0.0587  0.0739
  255loPI   PO4 4068  17.020  10.004  10.542 -0.0889 -0.1163 -0.3338
  255loPI   GL1 4069  17.061  10.069  10.131  0.1967  0.0014 -0.2409
  255loPI   GL2 4070  17.285  10.339  10.211 -0.4645 -0.2142 -0.1316
  255loPI   C1A 4071  17.208  10.176   9.740  0.2424  0.0288 -0.1693
  255loPI   C2A 4072  17.175  10.273   9.342  0.0227 -0.4266 -0.2868
  255loPI   C3A 4073  17.029  10.345   8.918 -0.3623 -0.1357  0.1397
  255loPI   C4A 4074  17.174  10.295   8.507  0.1132  0.1679  0.0627
  255loPI   C5A 4075  17.169   9.999   8.236  0.1748  0.2618 -0.1891
  255loPI   C6A 4076  17.609   9.799   8.278 -0.0000  0.3679 -0.1208
  255loPI   C1B 4077  17.050  10.573   9.975  0.2668  0.2115 -0.2535
  255loPI   C2B 4078  17.066  10.862   9.621 -0.2277  0.0815 -0.0072
  255loPI   C3B 4079  17.048  10.791   9.217 -0.4617  0.0121  0.1122
  255loPI   C4B 4080  17.236  10.827   8.776 -0.0042 -0.2516  0.3192
  256loPI    C1 4081   2.004   0.040  10.592  0.2274 -0.2433 -0.0987
  256loPI    C2 4082   2.280   0.020  10.881  0.1826  0.1349 -0.0242
  256loPI    C3 4083   1.953  -0.210  10.900  0.2673  0.0256  0.1295
  256loPI   PO4 4084   2.152   0.019  10.391  0.1935 -0.0104  0.1544
  256loPI   GL1 4085   2.384  -0.164  10.117  0.1179  0.2270 -0.4439
  256loPI   GL2 4086   2.329   0.072   9.919  0.1187  0.1452  0.0401
  256loPI   C1A 4087   2.035  -0.387   9.876 -0.0857 -0.0250  0.0011
  256loPI   C2A 4088   1.773  -0.659   9.530  0.2986  0.1878 -0.3084
  256loPI   C3A 4089   1.851  -0.782   9.085  0.0536 -0.2697  0.3832
  256loPI   C4A 4090   1.701  -0.795   8.710  0.0818  0.1080 -0.0220
  256loPI   C5A 4091   1.755  -0.809   8.211 -0.2833 -0.0686 -0.1369
  256loPI   C6A 4092   2.070  -0.833   7.902  0.3857 -0.0690  0.1071
  256loPI   C1B 4093   2.257   0.087   9.434 -0.0680  0.0853 -0.0810
  256loPI   C2B 4094   2.055   0.219   9.017  0.0001  0.2184 -0.1346
  256loPI   C3B 4095   2.305   0.426   8.797  0.0545  0.0470  0.2428
  256loPI   C4B 4096   2.497   0.808   8.801 -0.0206 -0.3274  0.0852
  257loPI    C1 4097  13.154  13.984  10.495  0.0876  0.0752  0.1087
  257loPI    C2 4098  12.806  13.999  10.693  0.0683  0.1496  0.0693
  257loPI    C3 4099  13.151  14.049  10.890  0.0744 -0.2230  0.1606
  257loPI   PO4 4100  13.066  14.059  10.279 -0.0020 -0.0619 -0.0383
  257loPI   GL1 4101  13.292  14.203   9.938 -0.3838  0.3358  0.4085
  257loPI   GL2 4102  13.038  14.285   9.784  0.0502 -0.1529  0.2084
  257loPI   C1A 4103  13.430  13.981   9.631  0.0309 -0.0491  0.3139
  257loPI   C2A 4104  13.363  13.747   9.197 -0.1678 -0.2805 -0.0196
  257loPI   C3A 4105  13.318  13.734   8.867 -0.3101  0.0567 -0.0701
  257loPI   C4A 4106  13.311  13.612   8.356 -0.1527  0.1467 -0.1223
  257loPI   C5A 4107  13.264  13.568   7.979 -0.1434 -0.1324 -0.1015
  257loPI   C6A 4108  12.888  13.475   7.608 -0.3691 -0.1010  0.0022
  257loPI   C1B 4109  13.059  14.250   9.333  0.2295 -0.1324 -0.0357
  257loPI   C2B 4110  13.160  14.300   8.903  0.0996  0.1838 -0.2471
  257loPI   C3B 4111  13.245  14.090   8.489 -0.3348 -0.2343 -0.1164
  257loPI   C4B 4112  13.323  14.232   8.068  0.1246  0.0795 -0.0010
  258loPI    C1 4113   3.783   3.444  10.067  0.0102  0.0764  0.2220
  258loPI    C2 4114   3.494   3.708   9.987  0.0174  0.0303  0.0390
  258loPI    C3 4115   3.511   3.532  10.346 -0.1199  0.1104  0.0854
  258loPI   PO4 4116   3.798   3.344   9.778  0.0016 -0.0413  0.1443
  258loPI   GL1 4117   4.053   3.151   9.521  0.1555 -0.0157  0.0097
  258loPI   GL2 4118   4.408   3.135   9.516  0.0899 -0.0972  0.1296
  258loPI   C1A 4119   4.166   3.385   9.095  0.0984 -0.1612  0.0746
  258loPI   C2A 4120   4.296   3.227   8.689  0.0373 -0.0263 -0.0346
  258loPI   C3A 4121   4.252   3.288   8.331 -0.1097 -0.1995  0.2318
  258loPI   C4A 4122   4.104   3.665   7.994 -0.0788  0.1714 -0.0790
  258loPI   C5A 4123   3.904   3.913   7.713  0.1734 -0.1065 -0.0053
  258loPI   C6A 4124   3.924   4.331   7.577  0.2127 -0.0935 -0.0450
  258loPI   C1B 4125   4.569   2.957   9.091 -0.1351 -0.2651  0.0802
  258loPI   C2B 4126   4.668   2.804   8.710  0.0348 -0.0409 -0.1416
  258loPI   C3B 4127   4.610   2.991   8.290  0.1922  0.0508  0.1702
  258loPI   C4B 4128   4.764   2.839   7.927  0.0105  0.0140  0.2185
  259loPI    C1 4129   6.081   2.885  10.514  0.4472 -0.0174  0.2336
  259loPI    C2 4130   6.033   2.585  10.774  0.0038  0.0030  0.1829
  259loPI    C3 4131   5.835   2.929  10.826  0.2259  0.1551  0.0387
  259loPI   PO4 4132   6.021   2.795  10.325  0.0138  0.0055 -0.2009
  259loPI   GL1 4133   6.427   2.800  10.042 -0.0596 -0.1576 -0.4588
  259loPI   GL2 4134   6.323   3.099  10.030  0.0983  0.0063  0.1563
  259loPI   C1A 4135   6.552   2.611   9.617 -0.0558 -0.2316 -0.2552
  259loPI   C2A 4136   6.514   2.421   9.229  0.0497 -0.0618  0.0212
  259loPI   C3A 4137   6.623   2.310   8.787 -0.1228 -0.0003  0.0075
  259loPI   C4A 4138   6.674   2.186   8.297 -0.2037 -0.1269  0.1083
  259loPI   C5A 4139   6.435   2.234   7.870 -0.1341  0.4965  0.0184
  259loPI   C6A 4140   6.380   2.255   7.403  0.2127 -0.0090  0.0407
  259loPI   C1B 4141   6.486   3.177   9.622  0.3309  0.3110  0.2473
  259loPI   C2B 4142   6.449   3.148   9.244  0.1694  0.1722  0.0289
  259loPI   C3B 4143   6.502   3.079   8.798  0.2412  0.2659  0.0088
  259loPI   C4B 4144   6.546   3.137   8.383 -0.0244 -0.1351 -0.2057
  260loPI    C1 4145   9.812   3.833  10.639  0.1196 -0.0101 -0.1113
  260loPI    C2 4146   9.791   3.484  10.834 -0.2551  0.2006  0.2413
  260loPI    C3 4147  10.012   3.783  10.982 -0.1420  0.2000  0.0764
  260loPI   PO4 4148   9.966   3.837  10.412 -0.2198  0.0350  0.0509
  260loPI   GL1 4149  10.073   3.454  10.184  0.0130 -0.0723 -0.2240
  260loPI   GL2 4150   9.986   3.308   9.963  0.2276  0.0442 -0.1571
  260loPI   C1A 4151  10.493   3.468  10.084 -0.1712 -0.1709  0.1882
  260loPI   C2A 4152  10.686   3.572   9.705 -0.2193 -0.1012  0.1254
  260loPI   C3A 4153  10.779   3.593   9.299 -0.1272 -0.2686  0.0976
  260loPI   C4A 4154  10.790   3.505   8.772  0.0588 -0.2905 -0.3278
  260loPI   C5A 4155  10.877   3.406   8.406  0.2575  0.0952 -0.0076
  260loPI   C6A 4156  10.990   3.336   7.949  0.1092  0.4442 -0.2075
  260loPI   C1B 4157  10.022   3.308   9.519 -0.3067 -0.1320  0.1772
  260loPI   C2B 4158  10.029   3.192   9.101 -0.0265 -0.0022  0.0655
  260loPI   C3B 4159   9.846   3.141   8.731  0.0211 -0.0838 -0.1051
  260loPI   C4B 4160   9.867   3.134   8.180 -0.0621  0.2273  0.0929
  261loPI    C1 4161   6.124   0.794  10.651  0.0540 -0.0822 -0.1634
  261loPI    C2 4162   6.167   0.511  10.371 -0.1666 -0.4124  0.1286
  261loPI    C3 4163   6.470   0.596  10.618  0.0645 -0.0474 -0.2666
  261loPI   PO4 4164   6.046   0.970  10.540  0.1386 -0.0505  0.0158
  261loPI   GL1 4165   5.896   0.878  10.164  0.3763 -0.0306  0.0078
  261loPI   GL2 4166   5.664   0.672  10.141 -0.1118  0.0290  0.3282
  261loPI   C1A 4167   6.090   0.796   9.791  0.0473  0.0820  0.0201
  261loPI   C2A 4168   6.190   0.891   9.423 -0.1179 -0.1517  0.1082
  261loPI   C3A 4169   6.061   1.004   9.027 -0.3576  0.2692  0.0164
  261loPI   C4A 4170   6.257   0.875   8.606  0.2107  0.2305 -0.2804
  261loPI   C5A 4171   6.413   0.765   8.140 -0.2254 -0.0705 -0.3554
  261loPI   C6A 4172   6.881   0.948   7.990  0.3848 -0.2210 -0.4435
  261loPI   C1B 4173   5.635   0.601   9.698 -0.1556 -0.0327 -0.1841
  261loPI   C2B 4174   5.677   0.754   9.246 -0.2757 -0.1747 -0.1212
  261loPI   C3B 4175   5.642   0.890   8.708  0.0730 -0.6040 -0.0265
  261loPI   C4B 4176   5.677   0.954   8.230  0.0203 -0.1851 -0.2869
  262loPI    C1 4177   9.320   1.753  10.562 -0.1416  0.4003 -0.1827
  262loPI    C2 4178   9.453   1.513  10.271  0.1658  0.3669 -0.0189
  262loPI    C3 4179   9.450   1.386  10.651 -0.1693  0.4347  0.0046
  262loPI   PO4 4180   9.420   1.977  10.471  0.2157  0.0832  0.0047
  262loPI   GL1 4181   9.340   2.107  10.114 -0.1120  0.0791 -0.0563
  262loPI   GL2 4182   9.137   2.178   9.933 -0.1993 -0.0895  0.1884
  262loPI   C1A 4183   9.710   2.208   9.757  0.1922  0.0656 -0.2592
  262loPI   C2A 4184   9.733   2.256   9.286 -0.0456  0.3883 -0.3462
  262loPI   C3A 4185   9.645   2.226   8.831 -0.0067 -0.2995  0.0712
  262loPI   C4A 4186   9.829   2.217   8.313 -0.0362 -0.0594  0.2878
  262loPI   C5A 4187   9.886   2.432   7.877 -0.2530  0.1029 -0.1626
  262loPI   C6A 4188  10.100   2.792   7.884 -0.3199  0.0733  0.2268
  262loPI   C1B 4189   9.256   1.997   9.564  0.2347 -0.0246  0.0036
  262loPI   C2B 4190   9.282   2.004   9.128  0.0678 -0.0356  0.1640
  262loPI   C3B 4191   9.111   1.806   8.763  0.0448 -0.1928 -0.0317
  262loPI   C4B 4192   9.072   1.835   8.319  0.0676  0.0184  0.0226
  263loPI    C1 4193   2.451   1.488  10.347 -0.2050  0.2514 -0.2320
  263loPI    C2 4194   2.291   1.179  10.543  0.0281  0.1405 -0.2132
  263loPI    C3 4195   2.503   1.453  10.742  0.2148  0.0598 -0.2986
  263loPI   PO4 4196   2.665   1.335  10.213 -0.2399 -0.1604  0.0477
  263loPI   GL1 4197   3.077   1.334  10.018 -0.2869 -0.1263 -0.3549
  263loPI   GL2 4198   3.273   1.271  10.203  0.1920  0.0041 -0.0500
  263loPI   C1A 4199   3.161   1.327   9.561  0.3325  0.2308 -0.1470
  263loPI   C2A 4200   3.295   1.075   9.274 -0.1330 -0.1713 -0.0988
  263loPI   C3A 4201   3.227   0.991   8.942  0.0301 -0.1463  0.0098
  263loPI   C4A 4202   3.421   1.033   8.546 -0.0813  0.2515  0.0612
  263loPI   C5A 4203   3.470   0.680   8.334  0.2802 -0.1489 -0.3381
  263loPI   C6A 4204   3.653   0.389   8.273  0.2240 -0.3406 -0.0514
  263loPI   C1B 4205   3.562   1.219   9.833  0.3089  0.1305 -0.1719
  263loPI   C2B 4206   3.780   0.965   9.579 -0.0899  0.0615  0.0079
  263loPI   C3B 4207   3.709   0.869   9.111  0.1378  0.1952  0.3099
  263loPI   C4B 4208   3.727   0.657   8.779 -0.5274  0.4167 -0.0203
  264loPI    C1 4209   0.329  14.699  10.690  0.0651 -0.1596 -0.0581
  264loPI    C2 4210   0.397  14.385  10.927 -0.1861 -0.1401  0.0419
  264loPI    C3 4211   0.033  14.550  10.913 -0.0528  0.1557  0.0010
  264loPI   PO4 4212   0.379  14.620  10.427  0.3183 -0.0345 -0.0508
  264loPI   GL1 4213   0.545  14.711  10.073  0.0499  0.1144  0.2987
  264loPI   GL2 4214   0.603  15.074   9.992 -0.0487 -0.2902 -0.2620
  264loPI   C1A 4215   0.284  14.825   9.678  0.0691  0.0837  0.0119
  264loPI   C2A 4216   0.467  14.847   9.181  0.0785 -0.2890 -0.0809
  264loPI   C3A 4217   0.450  14.788   8.783  0.0144  0.2008  0.3783
  264loPI   C4A 4218   0.318  14.697   8.333 -0.0294  0.0277 -0.1448
  264loPI   C5A 4219  -0.040  14.466   8.186  0.0008  0.1415  0.0905
  264loPI   C6A 4220  -0.466  14.388   8.050 -0.0723  0.1350  0.2305
  264loPI   C1B 4221   0.707  15.092   9.511 -0.2463  0.0046  0.0402
  264loPI   C2B 4222   0.761  15.248   9.032  0.1772 -0.0307  0.0823
  264loPI   C3B 4223   0.727  15.342   8.718  0.0521 -0.2122  0.2296
  264loPI   C4B 4224   0.569  15.655   8.400  0.1409 -0.2071  0.0665
  265loPI    C1 4225   1.570  11.077  10.413 -0.0208 -0.2269 -0.2405
  265loPI    C2 4226   1.682  10.909  10.759 -0.2184 -0.0377 -0.0821
  265loPI    C3 4227   1.304  10.875  10.633 -0.2400  0.2139 -0.0899
  265loPI   PO4 4228   1.675  10.915  10.193 -0.1552 -0.0164 -0.3736
  265loPI   GL1 4229   1.661  10.788   9.791  0.0967 -0.4540 -0.2316
  265loPI   GL2 4230   1.852  10.515   9.855  0.0384  0.3151 -0.0886
  265loPI   C1A 4231   1.728  10.949   9.401  0.2209  0.1990  0.0048
  265loPI   C2A 4232   1.701  10.945   8.994 -0.1396 -0.0540 -0.2071
  265loPI   C3A 4233   1.849  10.876   8.639 -0.3022 -0.1044  0.0096
  265loPI   C4A 4234   1.822  10.911   8.175 -0.1233  0.1804  0.2693
  265loPI   C5A 4235   1.502  10.631   7.966 -0.1676  0.2116  0.0070
  265loPI   C6A 4236   1.262  10.534   7.631 -0.1332 -0.1220 -0.0997
  265loPI   C1B 4237   1.867  10.449   9.421 -0.1214 -0.1088 -0.1873
  265loPI   C2B 4238   1.701  10.323   9.181  0.1519  0.2177 -0.0742
  265loPI   C3B 4239   1.622  10.479   8.776  0.0369 -0.1016  0.1393
  265loPI   C4B 4240   1.488  10.619   8.475 -0.2551 -0.1934  0.2000
  266loPI    C1 4241   9.270   2.939  10.333 -0.0503 -0.1955  0.1957
  266loPI    C2 4242   8.902   2.954  10.488 -0.0214  0.0499  0.2453
  266loPI    C3 4243   9.220   2.941  10.730  0.0045 -0.1510  0.2025
  266loPI   PO4 4244   9.257   3.151  10.178  0.0529 -0.1868  0.2350
  266loPI   GL1 4245   9.443   3.170   9.773 -0.0312  0.3340 -0.0578
  266loPI   GL2 4246   9.543   3.421   9.691 -0.2098  0.0604 -0.5020
  266loPI   C1A 4247   9.157   3.040   9.515  0.0466 -0.1770  0.2938
  266loPI   C2A 4248   9.057   2.934   9.110 -0.0692 -0.2440  0.3392
  266loPI   C3A 4249   9.022   2.907   8.681  0.0330 -0.1072  0.1993
  266loPI   C4A 4250   9.185   2.974   8.267 -0.1148  0.2306  0.1098
  266loPI   C5A 4251   9.433   2.981   7.885 -0.3319 -0.1117  0.1804
  266loPI   C6A 4252   9.621   2.722   7.535  0.1699 -0.0675 -0.3448
  266loPI   C1B 4253   9.529   3.269   9.307  0.0626 -0.1812 -0.2631
  266loPI   C2B 4254   9.422   3.211   8.897 -0.4337  0.0005 -0.0451
  266loPI   C3B 4255   9.475   3.336   8.459 -0.3807 -0.3016 -0.1005
  266loPI   C4B 4256   9.395   3.729   8.105 -0.0158  0.1432  0.2221
  267loPI    C1 4257   0.590  18.579  10.409  0.1678  0.1163  0.0229
  267loPI    C2 4258   0.908  18.804  10.502 -0.0017  0.4247 -0.1307
  267loPI    C3 4259   0.538  18.939  10.575 -0.1037  0.1234 -0.0736
  267loPI   PO4 4260   0.650  18.515  10.183 -0.2377  0.3632 -0.2473
  267loPI   GL1 4261   0.617  18.567   9.785  0.1343  0.0585 -0.2508
  267loPI   GL2 4262   0.390  18.349   9.726 -0.0355 -0.0994 -0.0146
  267loPI   C1A 4263   0.623  18.584   9.326  0.0918 -0.2123 -0.1775
  267loPI   C2A 4264   0.547  18.678   8.867 -0.0498  0.2842  0.0272
  267loPI   C3A 4265   0.406  18.956   8.656  0.3701  0.1065 -0.0330
  267loPI   C4A 4266   0.087  19.041   8.342 -0.0775 -0.1052 -0.0374
  267loPI   C5A 4267  -0.056  18.937   7.937  0.2215  0.3210 -0.0028
  267loPI   C6A 4268  -0.237  18.987   7.530 -0.2902 -0.3429  0.3024
  267loPI   C1B 4269   0.175  18.295   9.337 -0.0903 -0.3298  0.0453
  267loPI   C2B 4270   0.240  18.253   9.009 -0.2336  0.0738 -0.0277
  267loPI   C3B 4271   0.422  18.161   8.714 -0.0315 -0.2891 -0.1309
  267loPI   C4B 4272   0.594  18.195   8.254  0.2467 -0.0154  0.0317
  268loPI    C1 4273  13.879  10.624  10.270 -0.1306  0.0831  0.0196
  268loPI    C2 4274  13.630  10.727  10.566 -0.0154  0.0278  0.1369
  268loPI    C3 4275  13.672  10.342  10.465 -0.0954  0.0514  0.0111
  268loPI   PO4 4276  13.887  10.700   9.963 -0.3615 -0.1420  0.2209
  268loPI   GL1 4277  13.590  10.852   9.604  0.2465  0.4510  0.2154
  268loPI   GL2 4278  13.372  10.888   9.582  0.1863 -0.0029 -0.0592
  268loPI   C1A 4279  13.776  11.185   9.471 -0.1568  0.1116 -0.1948
  268loPI   C2A 4280  13.839  11.230   9.052  0.0345 -0.0200 -0.1569
  268loPI   C3A 4281  14.010  11.279   8.675 -0.0348 -0.3054  0.0342
  268loPI   C4A 4282  13.846  11.399   8.352  0.0913  0.2071 -0.0797
  268loPI   C5A 4283  13.736  11.128   8.046 -0.0348  0.0765  0.1613
  268loPI   C6A 4284  14.030  11.003   7.790 -0.1393  0.1487 -0.1118
  268loPI   C1B 4285  13.340  11.126   9.104 -0.2136 -0.2116 -0.1266
  268loPI   C2B 4286  13.504  11.464   8.753 -0.1742 -0.1969 -0.1739
  268loPI   C3B 4287  13.491  11.775   8.472 -0.3429 -0.1125 -0.0337
  268loPI   C4B 4288  13.233  12.084   8.493  0.4827 -0.2956 -0.0157
  269loPI    C1 4289  16.175  14.696  10.607 -0.1099  0.1033 -0.1975
  269loPI    C2 4290  16.380  15.025  10.707  0.0100  0.0876 -0.3852
  269loPI    C3 4291  16.558  14.667  10.716 -0.1497  0.0119 -0.0809
  269loPI   PO4 4292  15.988  14.825  10.471 -0.1278  0.1621  0.4857
  269loPI   GL1 4293  15.894  15.030  10.097 -0.1062  0.0022 -0.0509
  269loPI   GL2 4294  15.986  14.758   9.968 -0.0632  0.0542  0.1007
  269loPI   C1A 4295  15.827  15.091   9.620  0.0662  0.0237 -0.0908
  269loPI   C2A 4296  15.804  14.992   9.143  0.3884  0.0608 -0.1723
  269loPI   C3A 4297  15.871  14.878   8.709 -0.1060  0.0247  0.0598
  269loPI   C4A 4298  16.144  14.819   8.330 -0.1327 -0.0910 -0.2964
  269loPI   C5A 4299  16.399  14.690   8.060  0.1398  0.1334 -0.0600
  269loPI   C6A 4300  16.626  14.375   7.832 -0.3690 -0.2221  0.1164
  269loPI   C1B 4301  16.305  14.826   9.572 -0.0428 -0.1950 -0.3465
  269loPI   C2B 4302  16.262  14.766   9.193  0.1697  0.0721  0.0523
  269loPI   C3B 4303  16.178  14.508   8.893  0.2168  0.1683  0.2764
  269loPI   C4B 4304  16.264  14.317   8.432  0.1053 -0.0076 -0.1347
  270loPI    C1 4305   7.076   0.003  11.001 -0.0313 -0.0334  0.0098
  270loPI    C2 4306   6.790  -0.037  11.278  0.0276 -0.1097  0.0602
  270loPI    C3 4307   7.167  -0.142  11.363  0.0222 -0.2544 -0.0905
  270loPI   PO4 4308   7.018  -0.065  10.692  0.0622 -0.0051 -0.2105
  270loPI   GL1 4309   6.870  -0.140  10.277  0.0058 -0.1075 -0.0657
  270loPI   GL2 4310   6.707   0.121  10.351  0.0446  0.0823  0.0097
  270loPI   C1A 4311   7.082  -0.139   9.911 -0.0404 -0.1281 -0.2391
  270loPI   C2A 4312   6.978  -0.219   9.584  0.2729  0.4726  0.2820
  270loPI   C3A 4313   6.763  -0.410   9.133 -0.1395  0.3756 -0.1402
  270loPI   C4A 4314   6.507  -0.331   8.833  0.1214  0.2154 -0.0140
  270loPI   C5A 4315   6.226  -0.179   8.403 -0.2121 -0.1004 -0.3564
  270loPI   C6A 4316   6.272   0.250   8.159  0.4574  0.0631  0.1359
  270loPI   C1B 4317   6.585   0.020   9.889  0.0280  0.4066  0.1541
  270loPI   C2B 4318   6.434  -0.104   9.466 -0.0472  0.2418 -0.0319
  270loPI   C3B 4319   6.137  -0.033   9.141 -0.3007  0.1109  0.2435
  270loPI   C4B 4320   5.969  -0.022   8.829  0.0261 -0.0266 -0.3173
  271loPI    C1 4321   8.471   3.068  10.759  0.1051 -0.0051  0.1833
  271loPI    C2 4322   8.737   3.345  10.870  0.2413 -0.0258 -0.0818
  271loPI    C3 4323   8.772   2.970  11.004 -0.0284  0.1117  0.3960
  271loPI   PO4 4324   8.436   3.187  10.458 -0.1231 -0.0331 -0.0717
  271loPI   GL1 4325   8.475   3.355  10.099  0.1908  0.0615  0.2133
  271loPI   GL2 4326   8.320   3.183   9.903 -0.0195 -0.0395  0.3498
  271loPI   C1A 4327   8.422   3.603   9.720  0.1872 -0.1265  0.1251
  271loPI   C2A 4328   8.437   3.625   9.289  0.0266  0.0941  0.0942
  271loPI   C3A 4329   8.408   3.507   8.902 -0.0463 -0.1203  0.2595
  271loPI   C4A 4330   8.212   3.334   8.533 -0.1847 -0.1733  0.1741
  271loPI   C5A 4331   8.299   3.270   8.143  0.1787  0.0945  0.1301
  271loPI   C6A 4332   8.465   3.483   7.787 -0.0394  0.0090 -0.0080
  271loPI   C1B 4333   8.610   3.172   9.544  0.0614 -0.0758  0.2359
  271loPI   C2B 4334   8.570   3.034   9.131  0.0104 -0.2456 -0.3416
  271loPI   C3B 4335   8.496   2.967   8.701  0.0608 -0.0218 -0.2211
  271loPI   C4B 4336   8.699   2.922   8.273  0.1344 -0.1576  0.1460
  272loPI    C1 4337   6.342   9.371  10.061 -0.0442 -0.1179 -0.1538
  272loPI    C2 4338   6.632   9.126  10.185  0.0690  0.1055  0.0321
  272loPI    C3 4339   6.249   9.015  10.216  0.1231 -0.0905  0.0131
  272loPI   PO4 4340   6.410   9.475   9.814 -0.0744 -0.0685 -0.3485
  272loPI   GL1 4341   6.381   9.079   9.542 -0.0013 -0.1371  0.2226
  272loPI   GL2 4342   6.624   9.171   9.276  0.1286 -0.0326  0.1957
  272loPI   C1A 4343   6.106   9.064   9.248  0.1195  0.2928  0.1175
  272loPI   C2A 4344   6.095   9.121   8.776 -0.3221 -0.2394  0.0198
  272loPI   C3A 4345   6.225   9.092   8.406  0.0024 -0.2767  0.3923
  272loPI   C4A 4346   6.495   8.838   8.277  0.3233  0.1282 -0.2726
  272loPI   C5A 4347   6.770   8.643   8.567  0.0007  0.2031  0.0681
  272loPI   C6A 4348   6.869   8.627   8.961  0.3956 -0.0109 -0.3545
  272loPI   C1B 4349   6.582   9.045   8.815 -0.2210  0.0240 -0.2542
  272loPI   C2B 4350   6.742   9.194   8.501  0.1716 -0.1050 -0.3173
  272loPI   C3B 4351   6.674   9.332   8.146  0.2644  0.1259 -0.3626
  272loPI   C4B 4352   6.611   9.391   7.754  0.2226 -0.2708  0.2844
  273loPI    C1 4353   6.893   0.437  10.866  0.1027 -0.2672  0.0056
  273loPI    C2 4354   6.601   0.170  10.811 -0.2152  0.0871 -0.0640
  273loPI    C3 4355   6.575   0.436  11.108  0.1485 -0.0204  0.0694
  273loPI   PO4 4356   6.957   0.554  10.669  0.1986  0.1915  0.0196
  273loPI   GL1 4357   6.833   0.680  10.247  0.0999 -0.1250 -0.0415
  273loPI   GL2 4358   6.927   0.866  10.076  0.1356 -0.0315 -0.2891
  273loPI   C1A 4359   6.511   0.481   9.978 -0.0315 -0.3091  0.2984
  273loPI   C2A 4360   6.352   0.429   9.567 -0.2033 -0.0286  0.0967
  273loPI   C3A 4361   6.208   0.458   9.137 -0.0160  0.0950 -0.0629
  273loPI   C4A 4362   5.969   0.526   8.868  0.0687 -0.4576 -0.0753
  273loPI   C5A 4363   5.886   0.469   8.380 -0.0803 -0.1709  0.0605
  273loPI   C6A 4364   5.650   0.260   7.982 -0.1361  0.0735 -0.0401
  273loPI   C1B 4365   6.761   0.810   9.733 -0.1842 -0.1675 -0.0311
  273loPI   C2B 4366   6.700   0.768   9.340  0.1482  0.1549  0.2598
  273loPI   C3B 4367   6.697   0.759   8.849  0.0720 -0.2262 -0.0214
  273loPI   C4B 4368   6.784   0.958   8.489  0.0021 -0.0720  0.0916
  274loPI    C1 4369  17.811  12.588  11.003 -0.2199 -0.0165  0.1645
  274loPI    C2 4370  17.858  12.239  11.192  0.0386 -0.0990 -0.0454
  274loPI    C3 4371  17.993  12.577  11.358  0.1547 -0.1544 -0.0263
  274loPI   PO4 4372  17.809  12.624  10.695  0.2128  0.0037 -0.0883
  274loPI   GL1 4373  17.711  12.523  10.248 -0.2409  0.0536 -0.3019
  274loPI   GL2 4374  17.551  12.283  10.108 -0.1523 -0.0212 -0.0618
  274loPI   C1A 4375  17.936  12.474   9.833  0.0629 -0.5136 -0.1925
  274loPI   C2A 4376  17.751  12.544   9.426  0.0035  0.1281 -0.1305
  274loPI   C3A 4377  17.462  12.689   9.136 -0.0416  0.0076  0.2980
  274loPI   C4A 4378  17.561  12.454   8.769  0.1725  0.2651  0.0001
  274loPI   C5A 4379  17.601  12.288   8.311 -0.1141  0.1952 -0.3103
  274loPI   C6A 4380  17.600  12.502   7.922  0.3285 -0.0123  0.2354
  274loPI   C1B 4381  17.565  12.083   9.703 -0.1128 -0.1119 -0.3180
  274loPI   C2B 4382  17.605  12.041   9.224 -0.0119  0.1285 -0.0743
  274loPI   C3B 4383  17.530  11.878   8.831  0.0931  0.1697 -0.0249
  274loPI   C4B 4384  17.519  11.709   8.430 -0.1294 -0.1383 -0.1938
  275loPI    C1 4385  11.945   8.437   9.937 -0.3773  0.1135  0.0656
  275loPI    C2 4386  12.028   8.610  10.288  0.1139 -0.0126  0.0192
  275loPI    C3 4387  11.934   8.221  10.274  0.1313 -0.0164  0.0066
  275loPI   PO4 4388  11.816   8.607   9.811 -0.0967 -0.0533  0.2445
  275loPI   GL1 4389  11.715   8.547   9.365  0.0019  0.1041 -0.0067
  275loPI   GL2 4390  12.017   8.444   9.352 -0.3596  0.1923  0.2004
  275loPI   C1A 4391  11.532   8.560   8.950  0.1045  0.0373  0.0445
  275loPI   C2A 4392  11.413   8.609   8.488 -0.0921 -0.0137  0.1131
  275loPI   C3A 4393  11.312   8.816   8.074  0.3007  0.2182 -0.0443
  275loPI   C4A 4394  11.117   8.995   7.771  0.1123 -0.1381  0.0521
  275loPI   C5A 4395  11.298   9.314   7.506 -0.1090 -0.1847  0.0881
  275loPI   C6A 4396  11.187   9.670   7.275 -0.4540  0.1054 -0.1452
  275loPI   C1B 4397  12.023   8.446   8.941  0.2235  0.0092  0.1805
  275loPI   C2B 4398  11.967   8.359   8.547  0.2233  0.0068 -0.1245
  275loPI   C3B 4399  11.921   8.282   8.058  0.3618  0.0464 -0.0824
  275loPI   C4B 4400  11.769   8.060   7.746  0.4781 -0.0543 -0.0414
  276loPI    C1 4401   5.041   9.580   9.837 -0.0931  0.0669  0.0536
  276loPI    C2 4402   5.257   9.451   9.525 -0.2014 -0.0650  0.0320
  276loPI    C3 4403   5.433   9.508   9.880 -0.0968 -0.0047 -0.0289
  276loPI   PO4 4404   4.812   9.435   9.820 -0.0795  0.0903 -0.1932
  276loPI   GL1 4405   4.707   9.369   9.445  0.2419  0.1568 -0.0238
  276loPI   GL2 4406   4.983   9.201   9.249  0.0094 -0.4990 -0.0336
  276loPI   C1A 4407   4.491   9.260   8.987 -0.0554  0.0542 -0.1093
  276loPI   C2A 4408   4.135   9.000   8.834  0.0175  0.1748  0.2768
  276loPI   C3A 4409   3.998   8.968   8.398 -0.1184 -0.1319  0.1134
  276loPI   C4A 4410   3.721   9.213   8.183  0.2055 -0.2003  0.1448
  276loPI   C5A 4411   3.407   9.333   8.521 -0.0966 -0.0231  0.0751
  276loPI   C6A 4412   3.195   9.535   8.760 -0.1356 -0.0217 -0.1538
  276loPI   C1B 4413   5.329   9.283   8.952 -0.0073 -0.3507  0.2480
  276loPI   C2B 4414   5.254   9.450   8.583  0.0821 -0.0193  0.0729
  276loPI   C3B 4415   5.303   9.760   8.294 -0.1382 -0.0431 -0.0643
  276loPI   C4B 4416   4.923   9.851   7.952  0.2761  0.4686  0.2196
  277loPI    C1 4417  17.160   2.823  10.004 -0.1210 -0.0076 -0.0995
  277loPI    C2 4418  16.837   2.640  10.155  0.0437 -0.2091  0.0139
  277loPI    C3 4419  17.197   2.468  10.185  0.2210  0.1840  0.2190
  277loPI   PO4 4420  17.098   2.967   9.736 -0.0685  0.2462  0.4030
  277loPI   GL1 4421  16.722   2.808   9.462  0.0500 -0.2680  0.0169
  277loPI   GL2 4422  16.659   3.044   9.448  0.1099 -0.1380  0.0806
  277loPI   C1A 4423  16.840   2.623   9.022  0.2996  0.0889 -0.2322
  277loPI   C2A 4424  16.914   2.508   8.544  0.1709 -0.0271  0.1370
  277loPI   C3A 4425  16.818   2.419   8.115  0.0171  0.0746 -0.3153
  277loPI   C4A 4426  16.728   2.659   7.758  0.2378  0.0409  0.0843
  277loPI   C5A 4427  16.795   2.967   7.420 -0.0065  0.0109 -0.3730
  277loPI   C6A 4428  16.428   3.240   7.368 -0.3892 -0.0016  0.0659
  277loPI   C1B 4429  16.881   3.090   9.034 -0.2721  0.2446 -0.1063
  277loPI   C2B 4430  16.907   3.349   8.582  0.1306 -0.3845  0.1848
  277loPI   C3B 4431  17.104   3.291   8.212 -0.1711  0.1173 -0.1869
  277loPI   C4B 4432  17.139   3.118   7.829 -0.1333 -0.2519 -0.1680
  278loPI    C1 4433  11.015  17.849  10.127 -0.2400 -0.0013  0.0359
  278loPI    C2 4434  11.241  18.017  10.411 -0.1371  0.0152 -0.0552
  278loPI    C3 4435  10.897  17.839  10.509 -0.1403  0.0892  0.0695
  278loPI   PO4 4436  10.908  18.061   9.996  0.3019  0.0219  0.0991
  278loPI   GL1 4437  10.953  18.195   9.555  0.0713  0.0736 -0.1414
  278loPI   GL2 4438  10.879  18.484   9.682 -0.1561 -0.2247  0.0081
  278loPI   C1A 4439  10.839  18.411   9.139  0.1510  0.2256  0.1791
  278loPI   C2A 4440  10.705  18.518   8.697 -0.3640  0.2833 -0.1771
  278loPI   C3A 4441  10.670  18.508   8.254  0.1059  0.0057 -0.0889
  278loPI   C4A 4442  10.862  18.497   7.885 -0.1038 -0.1141  0.3138
  278loPI   C5A 4443  11.099  18.119   7.684  0.0713  0.2647 -0.4352
  278loPI   C6A 4444  10.786  17.805   7.496 -0.0307 -0.4762 -0.1886
  278loPI   C1B 4445  10.447  18.423   9.475 -0.0285  0.2153 -0.0455
  278loPI   C2B 4446  10.252  18.298   9.117 -0.0440  0.2078 -0.2857
  278loPI   C3B 4447  10.261  18.380   8.764 -0.0538 -0.3054  0.4622
  278loPI   C4B 4448  10.182  18.274   8.309 -0.2289 -0.0140  0.0184
  279loPI    C1 4449  10.123  15.161  10.355 -0.0879 -0.1216  0.0577
  279loPI    C2 4450  10.241  15.285  10.716 -0.2196  0.1103  0.0233
  279loPI    C3 4451  10.071  14.926  10.674 -0.1496  0.0577  0.1817
  279loPI   PO4 4452  10.317  15.176  10.200 -0.2135  0.3341  0.1426
  279loPI   GL1 4453  10.510  15.293   9.929  0.0496 -0.1325  0.0057
  279loPI   GL2 4454  10.519  15.540   9.804 -0.1625 -0.0566 -0.3784
  279loPI   C1A 4455  10.361  14.887   9.661 -0.1068 -0.0808  0.1122
  279loPI   C2A 4456  10.320  14.400   9.361  0.1842  0.1532  0.1614
  279loPI   C3A 4457  10.308  14.263   8.912 -0.0608 -0.0053 -0.0119
  279loPI   C4A 4458  10.268  14.039   8.585 -0.1875 -0.1156  0.5789
  279loPI   C5A 4459  10.171  13.971   8.143  0.2843 -0.0330  0.0533
  279loPI   C6A 4460   9.909  13.818   7.823  0.1031 -0.1644 -0.0036
  279loPI   C1B 4461  10.644  15.315   9.449 -0.0532  0.3322 -0.0545
  279loPI   C2B 4462  10.871  15.194   9.107  0.0659  0.5877 -0.0769
  279loPI   C3B 4463  10.854  15.326   8.688 -0.2989 -0.0858  0.0138
  279loPI   C4B 4464  10.909  15.422   8.323 -0.2786 -0.0432  0.0306
  280loPI    C1 4465   4.443   4.357   9.930  0.2814 -0.0957  0.0946
  280loPI    C2 4466   4.568   4.726  10.020 -0.1581  0.1702 -0.3377
  280loPI    C3 4467   4.283   4.552  10.240 -0.0753  0.1572 -0.2398
  280loPI   PO4 4468   4.448   4.347   9.666 -0.2143 -0.2042  0.0842
  280loPI   GL1 4469   4.221   4.341   9.385 -0.0107 -0.0913  0.1436
  280loPI   GL2 4470   3.953   4.361   9.443  0.2708  0.1592  0.1226
  280loPI   C1A 4471   4.150   4.672   9.030  0.2734 -0.0880 -0.2466
  280loPI   C2A 4472   4.173   4.694   8.597 -0.1423 -0.0897 -0.1444
  280loPI   C3A 4473   4.473   4.861   8.281  0.0078  0.2047 -0.0532
  280loPI   C4A 4474   4.484   5.052   7.914  0.1099 -0.2856 -0.2429
  280loPI   C5A 4475   4.391   5.381   7.510  0.1819  0.1359  0.0168
  280loPI   C6A 4476   4.134   5.284   7.143 -0.2660  0.2542 -0.1786
  280loPI   C1B 4477   3.922   4.235   8.991  0.0617  0.2018  0.0815
  280loPI   C2B 4478   3.800   4.231   8.521 -0.2981  0.0346  0.1986
  280loPI   C3B 4479   3.678   4.165   8.062 -0.3313 -0.2477 -0.0352
  280loPI   C4B 4480   3.432   4.339   7.699 -0.0908 -0.0045 -0.2620
  281loPI    C1 4481   8.907   9.484  10.029  0.2730  0.2894  0.0744
  281loPI    C2 4482   8.670   9.574  10.338 -0.1399  0.1242 -0.1862
  281loPI    C3 4483   8.776   9.195  10.272 -0.1237  0.1476 -0.2963
  281loPI   PO4 4484   8.780   9.600   9.843 -0.0354  0.1271  0.3370
  281loPI   GL1 4485   8.579   9.684   9.546  0.0913 -0.1863  0.1060
  281loPI   GL2 4486   8.332   9.620   9.537 -0.1596  0.0490  0.1123
  281loPI   C1A 4487   8.843   9.547   9.214  0.0058 -0.2930 -0.0081
  281loPI   C2A 4488   8.706   9.589   8.737 -0.0438 -0.2587 -0.3575
  281loPI   C3A 4489   8.575   9.579   8.254 -0.0764 -0.1895 -0.2035
  281loPI   C4A 4490   8.682   9.447   7.837 -0.0451 -0.0400 -0.2852
  281loPI   C5A 4491   8.878   9.675   7.475 -0.1132 -0.1779  0.0993
  281loPI   C6A 4492   9.327   9.613   7.448  0.1823 -0.1385  0.0294
  281loPI   C1B 4493   8.368   9.818   9.104  0.1107  0.2477 -0.0218
  281loPI   C2B 4494   8.307   9.861   8.685 -0.3222  0.0983  0.0631
  281loPI   C3B 4495   8.373  10.029   8.310  0.0643  0.1437 -0.0536
  281loPI   C4B 4496   8.439  10.071   7.860  0.0066 -0.1448  0.0271
  282loPI    C1 4497  13.985  18.368  10.395 -0.1521 -0.1868 -0.0208
  282loPI    C2 4498  13.896  18.503  10.761 -0.1579 -0.0455 -0.0737
  282loPI    C3 4499  14.033  18.130  10.713 -0.0577 -0.0298  0.0837
  282loPI   PO4 4500  13.743  18.330  10.264 -0.0897 -0.0705  0.1384
  282loPI   GL1 4501  13.475  18.401   9.852  0.0931  0.0906 -0.2008
  282loPI   GL2 4502  13.227  18.352   9.627  0.1399  0.1783 -0.1432
  282loPI   C1A 4503  13.501  18.607   9.352  0.0337 -0.1449 -0.1901
  282loPI   C2A 4504  13.342  18.686   8.944 -0.0658  0.2032 -0.0933
  282loPI   C3A 4505  13.364  18.846   8.514  0.2202 -0.1230  0.0364
  282loPI   C4A 4506  13.314  19.036   7.960  0.2190 -0.0476 -0.0657
  282loPI   C5A 4507  13.272  19.440   7.791  0.4802  0.0815 -0.1061
  282loPI   C6A 4508  13.519  19.756   7.701 -0.1015 -0.1734 -0.2176
  282loPI   C1B 4509  13.131  18.346   9.256 -0.1529  0.0423 -0.0798
  282loPI   C2B 4510  12.950  18.320   8.870  0.0139  0.0970 -0.0794
  282loPI   C3B 4511  13.322  18.331   8.540  0.2286  0.0434 -0.0286
  282loPI   C4B 4512  13.400  18.131   8.251 -0.0810 -0.1736 -0.1915
  283loPI    C1 4513   9.112   9.841  10.383 -0.0187 -0.0739 -0.0601
  283loPI    C2 4514   9.255  10.186  10.526 -0.1078  0.0213 -0.1986
  283loPI    C3 4515   9.398   9.838  10.663  0.1897  0.1136 -0.2676
  283loPI   PO4 4516   9.075   9.945  10.062  0.1371 -0.2095  0.0923
  283loPI   GL1 4517   9.267   9.709   9.674 -0.0906  0.1198  0.0835
  283loPI   GL2 4518   9.206   9.456   9.552  0.1446  0.1243  0.0788
  283loPI   C1A 4519   9.315   9.889   9.235  0.0214  0.3738 -0.0547
  283loPI   C2A 4520   9.188   9.728   8.815  0.0899  0.1297  0.0585
  283loPI   C3A 4521   9.191   9.573   8.381  0.0556  0.0390  0.2522
  283loPI   C4A 4522   9.287   9.458   7.910 -0.0701  0.1678 -0.2644
  283loPI   C5A 4523   9.073   9.149   7.631  0.0074  0.0143  0.1965
  283loPI   C6A 4524   8.797   9.195   7.287 -0.0344  0.1338 -0.1035
  283loPI   C1B 4525   9.410   9.387   9.173  0.0550  0.1127  0.1264
  283loPI   C2B 4526   9.456   9.334   8.771 -0.0701  0.0772 -0.1889
  283loPI   C3B 4527   9.498   9.199   8.366  0.0598 -0.0255 -0.0550
  283loPI   C4B 4528   9.533   9.014   7.928  0.2933  0.0011  0.2891
  284loPI    C1 4529   8.960  16.733  10.198  0.0734  0.0911  0.0289
  284loPI    C2 4530   9.163  16.549   9.906 -0.1265 -0.0398 -0.0293
  284loPI    C3 4531   9.359  16.759  10.184  0.0952 -0.2369 -0.0343
  284loPI   PO4 4532   8.772  16.388  10.217  0.1617  0.0526 -0.1865
  284loPI   GL1 4533   8.671  16.194   9.830  0.0142  0.1917 -0.0523
  284loPI   GL2 4534   8.753  15.864   9.922  0.0516 -0.0065 -0.1272
  284loPI   C1A 4535   8.609  16.289   9.428 -0.0488  0.3910  0.1812
  284loPI   C2A 4536   8.748  16.439   9.048 -0.2529  0.2949  0.2122
  284loPI   C3A 4537   8.689  16.451   8.577 -0.0291 -0.1956  0.5970
  284loPI   C4A 4538   8.468  16.256   8.278  0.2730  0.0722 -0.1904
  284loPI   C5A 4539   8.108  16.280   8.077  0.1604  0.0724 -0.2247
  284loPI   C6A 4540   7.773  16.480   7.878  0.0067 -0.3615  0.0164
  284loPI   C1B 4541   8.774  15.769   9.476  0.1090  0.0736  0.3090
  284loPI   C2B 4542   8.870  15.876   9.047 -0.0997 -0.1522 -0.0267
  284loPI   C3B 4543   9.060  15.916   8.700  0.3460  0.0007 -0.1147
  284loPI   C4B 4544   8.915  16.045   8.243  0.4000 -0.1747 -0.0282
  285loPI    C1 4545  16.760  12.391  10.777  0.1563  0.1235  0.3676
  285loPI    C2 4546  17.014  12.088  10.719 -0.2078 -0.1528  0.1742
  285loPI    C3 4547  16.824  12.125  11.069 -0.0682 -0.0720  0.2422
  285loPI   PO4 4548  16.549  12.457  10.537 -0.1627 -0.1902 -0.0386
  285loPI   GL1 4549  16.478  12.457  10.132 -0.2114  0.3673 -0.0591
  285loPI   GL2 4550  16.234  12.685   9.986  0.0242  0.1279 -0.1099
  285loPI   C1A 4551  16.736  12.501   9.747  0.0214 -0.2547 -0.0880
  285loPI   C2A 4552  16.764  12.570   9.295 -0.1175 -0.1909 -0.0190
  285loPI   C3A 4553  16.993  12.920   9.002 -0.1824  0.0287  0.0092
  285loPI   C4A 4554  17.283  12.832   8.704  0.3033  0.3321  0.0778
  285loPI   C5A 4555  17.547  12.846   8.392  0.0557  0.0997 -0.1467
  285loPI   C6A 4556  17.921  12.981   8.110 -0.2090 -0.1694 -0.2507
  285loPI   C1B 4557  16.278  12.490   9.591 -0.2864  0.0482 -0.1317
  285loPI   C2B 4558  16.247  12.465   9.157  0.0323  0.0805  0.0848
  285loPI   C3B 4559  16.233  12.444   8.684  0.0176 -0.1909 -0.2462
  285loPI   C4B 4560  15.957  12.565   8.399  0.2260  0.0294  0.0165
  286loPI    C1 4561   2.988   0.640  10.543  0.2953 -0.4756  0.2778
  286loPI    C2 4562   3.319   0.850  10.465 -0.0037 -0.0607  0.0854
  286loPI    C3 4563   3.211   0.780  10.844  0.2014 -0.0354  0.1498
  286loPI   PO4 4564   2.955   0.441  10.387 -0.0195  0.1695  0.1120
  286loPI   GL1 4565   3.265   0.416  10.105 -0.2127  0.0275 -0.0733
  286loPI   GL2 4566   3.498   0.177  10.058  0.1457 -0.1055  0.1312
  286loPI   C1A 4567   3.141   0.716   9.786 -0.1851  0.1184 -0.0130
  286loPI   C2A 4568   2.946   0.682   9.311  0.0406 -0.0302  0.0012
  286loPI   C3A 4569   2.855   1.192   9.148 -0.2648 -0.0257 -0.0133
  286loPI   C4A 4570   2.768   1.197   8.760 -0.0425 -0.1181 -0.2795
  286loPI   C5A 4571   2.938   0.950   8.534  0.2189  0.0313 -0.3177
  286loPI   C6A 4572   3.046   0.917   8.109  0.3649 -0.4727 -0.0873
  286loPI   C1B 4573   3.640   0.357   9.650  0.0211 -0.0382  0.2887
  286loPI   C2B 4574   3.635   0.388   9.236 -0.0100 -0.1118 -0.2598
  286loPI   C3B 4575   3.732   0.071   8.924  0.0127 -0.0520 -0.1904
  286loPI   C4B 4576   3.493  -0.142   8.623  0.2264 -0.2499  0.0670
  287loPI    C1 4577  15.026  13.946  10.896  0.1019  0.2294  0.0360
  287loPI    C2 4578  14.836  13.638  11.066  0.1759  0.0390 -0.2194
  287loPI    C3 4579  14.770  14.011  11.197 -0.1075 -0.0581 -0.0760
  287loPI   PO4 4580  15.035  13.792  10.650  0.2032 -0.2007 -0.0457
  287loPI   GL1 4581  15.006  13.744  10.239  0.0408 -0.0167  0.0984
  287loPI   GL2 4582  15.274  13.649  10.196  0.1709  0.3281 -0.0066
  287loPI   C1A 4583  14.873  13.689   9.838  0.0032 -0.0941 -0.1256
  287loPI   C2A 4584  15.073  13.772   9.472 -0.0890 -0.0687 -0.1073
  287loPI   C3A 4585  15.279  13.676   9.134 -0.2638  0.3052  0.1245
  287loPI   C4A 4586  15.659  13.658   8.874 -0.1717 -0.0018  0.0446
  287loPI   C5A 4587  15.739  13.588   8.517 -0.3045 -0.0086 -0.0256
  287loPI   C6A 4588  15.888  13.351   8.242  0.1267 -0.2491  0.0206
  287loPI   C1B 4589  15.368  13.559   9.823  0.3504 -0.0345  0.5457
  287loPI   C2B 4590  15.585  13.843   9.507 -0.2193  0.2410  0.1228
  287loPI   C3B 4591  15.989  13.886   9.259  0.0428 -0.2401  0.1787
  287loPI   C4B 4592  15.981  14.045   8.832 -0.2485 -0.0391  0.0938
  288loPI    C1 4593   0.466  17.479  10.682 -0.1918  0.3384 -0.0137
  288loPI    C2 4594   0.298  17.813  10.824 -0.2528  0.1445  0.3839
  288loPI    C3 4595   0.335  17.492  11.060 -0.1658 -0.1211  0.0166
  288loPI   PO4 4596   0.398  17.527  10.395 -0.1402  0.2013 -0.3404
  288loPI   GL1 4597   0.300  17.281  10.055  0.1954  0.2003 -0.0316
  288loPI   GL2 4598   0.415  16.968  10.174  0.1582  0.0105  0.1427
  288loPI   C1A 4599   0.250  17.418   9.698  0.2335 -0.0757 -0.1389
  288loPI   C2A 4600   0.440  17.272   9.272 -0.1951  0.0730 -0.2263
  288loPI   C3A 4601   0.578  17.195   8.903  0.0281 -0.1059  0.0690
  288loPI   C4A 4602   0.724  17.349   8.602 -0.0355  0.0436  0.2774
  288loPI   C5A 4603   0.779  17.723   8.259  0.1955 -0.0367 -0.1632
  288loPI   C6A 4604   0.863  17.918   7.949  0.2858 -0.1867  0.1914
  288loPI   C1B 4605   0.601  17.038   9.693  0.1337  0.0106 -0.0839
  288loPI   C2B 4606   0.846  16.884   9.371  0.2405  0.2470  0.0666
  288loPI   C3B 4607   0.914  16.795   8.838 -0.2793 -0.2979 -0.3418
  288loPI   C4B 4608   0.600  16.858   8.495 -0.1769 -0.2832 -0.1685
  289loPI    C1 4609  12.150   3.528  10.736 -0.1620  0.1620  0.1180
  289loPI    C2 4610  12.496   3.442  10.916 -0.1334  0.0636  0.0169
  289loPI    C3 4611  12.160   3.259  11.031 -0.0655 -0.2223 -0.2273
  289loPI   PO4 4612  12.340   3.506  10.390  0.1853 -0.2071  0.0333
  289loPI   GL1 4613  12.407   3.419   9.975 -0.0011 -0.2973 -0.2118
  289loPI   GL2 4614  12.049   3.620   9.990 -0.2137  0.3111  0.4368
  289loPI   C1A 4615  12.245   3.196   9.563 -0.0454  0.0969  0.1365
  289loPI   C2A 4616  12.304   3.137   9.181 -0.2572  0.1230  0.3328
  289loPI   C3A 4617  12.317   3.360   8.810  0.0009 -0.0170  0.1564
  289loPI   C4A 4618  12.174   3.655   8.493  0.6580  0.0812 -0.0588
  289loPI   C5A 4619  12.178   3.593   8.117  0.0991  0.0488 -0.2684
  289loPI   C6A 4620  11.984   3.353   7.866 -0.0826 -0.0010 -0.2261
  289loPI   C1B 4621  12.180   3.740   9.559  0.0770 -0.1220 -0.4450
  289loPI   C2B 4622  12.402   3.618   9.254 -0.0795  0.0478 -0.1569
  289loPI   C3B 4623  12.855   3.634   9.065 -0.0405  0.0802 -0.2898
  289loPI   C4B 4624  13.087   3.808   8.724  0.0549 -0.0835  0.0721
  290loPI    C1 4625   8.631   5.296  10.016  0.0105  0.0330  0.1904
  290loPI    C2 4626   8.735   5.582  10.275  0.0990 -0.0615  0.2604
  290loPI    C3 4627   8.452   5.317  10.373  0.2318 -0.1836  0.3176
  290loPI   PO4 4628   8.561   5.431   9.711 -0.2967 -0.0861  0.1321
  290loPI   GL1 4629   8.738   5.432   9.381  0.1368 -0.1257  0.1901
  290loPI   GL2 4630   8.782   5.751   9.223  0.1912  0.0417  0.3577
  290loPI   C1A 4631   8.842   5.332   8.909 -0.1769  0.3754  0.0130
  290loPI   C2A 4632   8.926   5.333   8.548 -0.0421  0.1166  0.0547
  290loPI   C3A 4633   8.788   5.277   8.139  0.0041  0.2896 -0.0333
  290loPI   C4A 4634   8.773   5.477   7.736 -0.1356 -0.0214  0.0219
  290loPI   C5A 4635   8.818   5.554   7.350 -0.0181  0.0699  0.0675
  290loPI   C6A 4636   8.845   5.397   6.918 -0.0948  0.0041 -0.1453
  290loPI   C1B 4637   8.801   5.828   8.771  0.0705 -0.2085  0.0320
  290loPI   C2B 4638   8.756   5.856   8.397  0.1339 -0.1890 -0.1007
  290loPI   C3B 4639   8.586   5.849   7.999 -0.0338 -0.2790 -0.1735
  290loPI   C4B 4640   8.305   5.784   7.648  0.0224 -0.0468  0.0311
  291loPI    C1 4641  13.855   2.411  10.194 -0.0668  0.1770  0.2621
  291loPI    C2 4642  13.481   2.434  10.056 -0.0344  0.1414  0.1673
  291loPI    C3 4643  13.547   2.346  10.440 -0.1229  0.1360  0.1815
  291loPI   PO4 4644  13.999   2.369  10.003  0.0008 -0.1068  0.0003
  291loPI   GL1 4645  14.207   2.329   9.730  0.2469  0.5476 -0.0441
  291loPI   GL2 4646  14.577   2.305   9.735  0.1910 -0.1987 -0.0788
  291loPI   C1A 4647  14.047   2.244   9.305  0.1597  0.2789  0.2410
  291loPI   C2A 4648  13.984   2.107   8.896  0.3883 -0.0269  0.0136
  291loPI   C3A 4649  13.771   2.020   8.623 -0.1098  0.3150  0.1498
  291loPI   C4A 4650  13.694   1.927   8.195 -0.2801  0.2591 -0.0383
  291loPI   C5A 4651  13.340   2.026   7.905 -0.0116  0.2229 -0.1484
  291loPI   C6A 4652  13.025   2.373   8.117 -0.0853  0.1021 -0.0839
  291loPI   C1B 4653  14.645   2.219   9.316  0.1264  0.0032  0.1921
  291loPI   C2B 4654  14.642   2.197   8.874 -0.5035  0.1504  0.0879
  291loPI   C3B 4655  14.311   2.264   8.491 -0.1043  0.1488 -0.3747
  291loPI   C4B 4656  13.866   2.490   8.455  0.1730  0.2290 -0.2906
  292loPI    C1 4657   0.185  13.107  10.622  0.2880  0.0001 -0.2238
  292loPI    C2 4658   0.182  13.414  10.879  0.0549 -0.1561 -0.0357
  292loPI    C3 4659  -0.111  13.375  10.608  0.1932 -0.1018 -0.1947
  292loPI   PO4 4660   0.268  13.085  10.456  0.0025 -0.1101  0.2203
  292loPI   GL1 4661   0.457  12.789  10.201 -0.0817 -0.1640  0.0391
  292loPI   GL2 4662   0.662  12.878  10.079 -0.3653  0.3137  0.1202
  292loPI   C1A 4663   0.211  12.856   9.785  0.2508  0.0592 -0.1062
  292loPI   C2A 4664  -0.286  12.679   9.690 -0.2591 -0.1159  0.1069
  292loPI   C3A 4665  -0.489  12.795   9.280 -0.0474 -0.1523  0.3410
  292loPI   C4A 4666  -0.686  12.757   8.965  0.1011  0.0191  0.2241
  292loPI   C5A 4667  -0.672  12.621   8.483  0.0178  0.0529 -0.2860
  292loPI   C6A 4668  -0.570  12.396   8.148 -0.1411 -0.3290  0.1256
  292loPI   C1B 4669   0.688  12.759   9.596 -0.2076 -0.0851  0.2132
  292loPI   C2B 4670   0.483  12.856   9.324 -0.3623 -0.0109  0.0540
  292loPI   C3B 4671   0.108  13.012   9.339  0.0836  0.2572  0.1268
  292loPI   C4B 4672  -0.125  13.211   9.678  0.3318 -0.1022 -0.2206
  293loPI    C1 4673  13.934   6.833   9.961 -0.1618 -0.0030  0.1023
  293loPI    C2 4674  14.144   6.729  10.285 -0.1056 -0.1334  0.0249
  293loPI    C3 4675  13.903   6.462  10.108 -0.1498 -0.0573 -0.0302
  293loPI   PO4 4676  14.079   6.861   9.804 -0.0939  0.0228 -0.3498
  293loPI   GL1 4677  14.028   6.737   9.415 -0.0114 -0.0502  0.0969
  293loPI   GL2 4678  14.046   6.467   9.534  0.2438 -0.0566 -0.0883
  293loPI   C1A 4679  14.174   6.685   9.094  0.0834 -0.3176  0.0946
  293loPI   C2A 4680  14.263   6.789   8.722 -0.0132  0.0231 -0.1660
  293loPI   C3A 4681  14.545   6.715   8.255  0.2837  0.0099  0.3796
  293loPI   C4A 4682  14.743   6.767   7.859  0.0217  0.0342 -0.3217
  293loPI   C5A 4683  15.023   6.396   7.733  0.0674 -0.0190  0.0655
  293loPI   C6A 4684  15.051   6.006   7.449 -0.2743  0.2851 -0.0230
  293loPI   C1B 4685  14.073   6.077   9.408 -0.1919 -0.1391 -0.0428
  293loPI   C2B 4686  14.479   5.883   9.341 -0.3713  0.2948 -0.0690
  293loPI   C3B 4687  14.697   5.467   9.367  0.2371  0.1346  0.2094
  293loPI   C4B 4688  14.525   5.143   9.080  0.0396  0.0479  0.0411
  294loPI    C1 4689   8.283  10.471  10.217  0.2384  0.1502 -0.1600
  294loPI    C2 4690   8.104  10.122  10.294  0.2075  0.2033  0.0127
  294loPI    C3 4691   7.923  10.392  10.062  0.1732  0.1575 -0.0138
  294loPI   PO4 4692   8.508  10.468  10.029  0.0718 -0.2265  0.4070
  294loPI   GL1 4693   8.873  10.363   9.818  0.0531 -0.2206 -0.2328
  294loPI   GL2 4694   8.787  10.178   9.663  0.0622 -0.0435  0.3517
  294loPI   C1A 4695   8.997  10.697   9.710  0.1697  0.3208 -0.1868
  294loPI   C2A 4696   9.133  10.860   9.265 -0.2446 -0.2987  0.2265
  294loPI   C3A 4697   9.138  10.749   8.872 -0.0717 -0.2969 -0.0282
  294loPI   C4A 4698   9.218  10.588   8.369  0.0486  0.3845 -0.0994
  294loPI   C5A 4699   9.285  10.566   7.955 -0.1686 -0.2985  0.2312
  294loPI   C6A 4700   9.224  10.753   7.565  0.2446 -0.3004  0.1242
  294loPI   C1B 4701   8.819  10.066   9.286 -0.1156  0.0165 -0.2070
  294loPI   C2B 4702   8.776  10.057   8.883  0.2954  0.0201 -0.0120
  294loPI   C3B 4703   8.844   9.959   8.454 -0.1279 -0.1644 -0.1138
  294loPI   C4B 4704   8.920   9.822   7.974 -0.2171  0.1554 -0.3380
  295loPI    C1 4705   5.741   0.252  10.484  0.0000  0.0366 -0.1688
  295loPI    C2 4706   5.367   0.386  10.528 -0.0079 -0.0216 -0.0534
  295loPI    C3 4707   5.672   0.591  10.684 -0.0354 -0.2236  0.2734
  295loPI   PO4 4708   5.784   0.210  10.270 -0.5470  0.0678  0.0774
  295loPI   GL1 4709   6.029   0.281   9.917 -0.1527 -0.0816 -0.0734
  295loPI   GL2 4710   6.098  -0.048   9.955  0.0498  0.0127  0.0946
  295loPI   C1A 4711   5.860   0.184   9.482 -0.0945  0.2879  0.0627
  295loPI   C2A 4712   5.643   0.194   9.067 -0.0985  0.0366  0.2851
  295loPI   C3A 4713   5.510   0.317   8.672  0.1748  0.3200  0.0934
  295loPI   C4A 4714   5.280   0.463   8.277 -0.0324 -0.1055 -0.2154
  295loPI   C5A 4715   4.927   0.598   8.033  0.1653 -0.0087  0.2913
  295loPI   C6A 4716   4.583   0.582   7.792  0.0859 -0.0914 -0.2799
  295loPI   C1B 4717   6.089  -0.372   9.657 -0.0546 -0.1247 -0.0795
  295loPI   C2B 4718   6.115  -0.541   9.305  0.1077  0.0963  0.0599
  295loPI   C3B 4719   6.046  -0.490   8.861  0.0465  0.0474 -0.0343
  295loPI   C4B 4720   5.850  -0.562   8.415 -0.3983 -0.2802  0.1808
  296loPI    C1 4721   2.719   7.328  10.032  0.2500  0.1864  0.0389
  296loPI    C2 4722   3.005   7.136  10.234  0.1240  0.0592  0.0984
  296loPI    C3 4723   2.817   7.448  10.400 -0.1032 -0.1563  0.2517
  296loPI   PO4 4724   2.767   7.403   9.856 -0.3529 -0.2860 -0.1316
  296loPI   GL1 4725   2.782   7.302   9.536  0.0362  0.0413 -0.1318
  296loPI   GL2 4726   3.060   7.271   9.441 -0.0967 -0.1400  0.5638
  296loPI   C1A 4727   2.555   7.505   9.226  0.1286 -0.3307 -0.0349
  296loPI   C2A 4728   2.572   7.538   8.849  0.1388 -0.0847  0.1305
  296loPI   C3A 4729   2.411   7.469   8.400 -0.2152  0.1225 -0.2726
  296loPI   C4A 4730   2.422   7.793   8.112 -0.0721  0.0571  0.1051
  296loPI   C5A 4731   2.291   8.195   8.030 -0.0338 -0.1735  0.0093
  296loPI   C6A 4732   2.258   8.636   7.870 -0.1184  0.0916 -0.0962
  296loPI   C1B 4733   3.024   7.461   9.078  0.1089 -0.1582  0.0130
  296loPI   C2B 4734   3.036   7.703   8.730  0.1088  0.1733 -0.1333
  296loPI   C3B 4735   2.833   7.791   8.378 -0.2227 -0.1330  0.3419
  296loPI   C4B 4736   2.741   8.141   8.161 -0.2555  0.2830  0.1643
  297loPI    C1 4737   9.293  13.878  10.612 -0.0625 -0.5582 -0.0397
  297loPI    C2 4738   9.044  14.023  10.890 -0.1021 -0.1257 -0.2910
  297loPI    C3 4739   9.132  13.633  10.884 -0.1655 -0.1568  0.2716
  297loPI   PO4 4740   9.215  13.977  10.387  0.0333 -0.0616 -0.0833
  297loPI   GL1 4741   9.100  13.734   9.936 -0.1937  0.2109  0.1373
  297loPI   GL2 4742   9.306  13.970   9.885 -0.2249 -0.2268  0.1487
  297loPI   C1A 4743   9.256  13.494   9.544  0.2340 -0.1113  0.0231
  297loPI   C2A 4744   9.290  13.484   9.198  0.1429  0.0660 -0.1534
  297loPI   C3A 4745   9.313  13.484   8.727  0.2747  0.1970 -0.0285
  297loPI   C4A 4746   9.183  13.320   8.306  0.0164 -0.2026  0.1127
  297loPI   C5A 4747   8.901  13.227   7.885 -0.1886  0.2458  0.1157
  297loPI   C6A 4748   8.729  12.876   7.736  0.0831 -0.1053 -0.3780
  297loPI   C1B 4749   9.444  13.909   9.445  0.4052  0.0984  0.1679
  297loPI   C2B 4750   9.409  14.059   8.976 -0.0736  0.1447  0.0569
  297loPI   C3B 4751   9.278  13.932   8.501 -0.2818  0.1257 -0.1629
  297loPI   C4B 4752   9.053  14.049   8.210 -0.1935 -0.1562  0.0845
  298loPI    C1 4753   7.249   5.396   9.807 -0.2858  0.0434 -0.0559
  298loPI    C2 4754   7.410   5.759   9.854  0.0760 -0.1250  0.0413
  298loPI    C3 4755   7.088   5.654  10.067 -0.0315  0.1376  0.0115
  298loPI   PO4 4756   7.232   5.377   9.563 -0.2342 -0.1087 -0.0211
  298loPI   GL1 4757   7.015   5.384   9.258  0.1165  0.2301  0.1382
  298loPI   GL2 4758   6.893   5.046   9.370  0.0547 -0.2279  0.2468
  298loPI   C1A 4759   6.931   5.181   8.838  0.4191  0.1190 -0.1827
  298loPI   C2A 4760   6.789   5.185   8.384 -0.0277 -0.0275  0.4470
  298loPI   C3A 4761   6.822   5.043   7.961  0.2935  0.2920 -0.0419
  298loPI   C4A 4762   7.045   4.852   7.682  0.1523 -0.0890 -0.1920
  298loPI   C5A 4763   7.305   4.907   7.396 -0.0460 -0.2819 -0.0551
  298loPI   C6A 4764   7.627   4.772   7.344  0.1160  0.1054  0.2942
  298loPI   C1B 4765   6.989   4.751   9.141  0.2558  0.1093 -0.0173
  298loPI   C2B 4766   6.806   4.387   9.008  0.1271  0.1269  0.0062
  298loPI   C3B 4767   6.705   4.169   8.567 -0.0970  0.3037  0.0681
  298loPI   C4B 4768   6.615   4.095   8.123 -0.1443 -0.0719 -0.0095
  299loPI    C1 4769  16.217   6.495   9.977 -0.2971  0.0314  0.2510
  299loPI    C2 4770  16.004   6.833  10.011 -0.2372  0.0799  0.1483
  299loPI    C3 4771  16.122   6.637  10.339 -0.0956  0.2705  0.2127
  299loPI   PO4 4772  16.313   6.481   9.867 -0.1763 -0.1151 -0.2521
  299loPI   GL1 4773  16.498   6.412   9.496 -0.0660  0.1016  0.2050
  299loPI   GL2 4774  16.784   6.504   9.581 -0.2424 -0.3630 -0.0196
  299loPI   C1A 4775  16.682   6.408   9.094  0.0078 -0.0301 -0.1253
  299loPI   C2A 4776  16.580   6.380   8.640  0.1394  0.0438  0.3487
  299loPI   C3A 4777  16.663   6.257   8.311 -0.0883 -0.0617  0.1542
  299loPI   C4A 4778  16.868   6.299   7.895  0.0526  0.0633  0.3207
  299loPI   C5A 4779  16.862   6.366   7.481  0.3668 -0.0332  0.2371
  299loPI   C6A 4780  16.589   6.194   7.069 -0.0314 -0.3411 -0.1219
  299loPI   C1B 4781  16.669   6.898   9.297 -0.1279 -0.0620  0.0789
  299loPI   C2B 4782  16.857   7.039   8.885 -0.2883  0.2875 -0.0032
  299loPI   C3B 4783  16.911   7.215   8.468 -0.1720  0.2648 -0.0535
  299loPI   C4B 4784  17.092   7.107   8.095  0.0168  0.1764  0.0687
  300loPI    C1 4785   8.771  13.754  10.306  0.0291 -0.0902 -0.2100
  300loPI    C2 4786   8.691  13.362  10.319 -0.0326 -0.0756 -0.1395
  300loPI    C3 4787   9.049  13.497  10.435 -0.1066 -0.0838  0.1030
  300loPI   PO4 4788   8.517  13.866  10.263  0.3450 -0.0680 -0.2028
  300loPI   GL1 4789   8.491  14.031   9.867  0.0471 -0.1955  0.0348
  300loPI   GL2 4790   8.760  14.049   9.644 -0.2789 -0.0712  0.2085
  300loPI   C1A 4791   8.206  14.326   9.678 -0.0498 -0.0655 -0.1096
  300loPI   C2A 4792   8.193  14.524   9.387  0.2085 -0.2335 -0.0803
  300loPI   C3A 4793   8.216  14.680   8.946  0.4179  0.1848 -0.2234
  300loPI   C4A 4794   8.198  14.701   8.528  0.1467 -0.2903  0.2443
  300loPI   C5A 4795   8.113  14.424   8.122  0.0872 -0.0622 -0.1934
  300loPI   C6A 4796   7.986  14.087   7.921  0.3608  0.1528  0.1215
  300loPI   C1B 4797   8.938  14.056   9.297 -0.0141  0.3023 -0.1633
  300loPI   C2B 4798   8.905  13.886   8.985 -0.0926  0.0290 -0.1113
  300loPI   C3B 4799   8.804  13.996   8.626 -0.0429 -0.2017  0.2808
  300loPI   C4B 4800   8.631  14.418   8.464  0.2421 -0.0063  0.1606
  301loPI    C1 4801  13.348   6.002  10.415  0.1015  0.1533 -0.0842
  301loPI    C2 4802  13.530   6.358  10.413 -0.1403  0.2811  0.1236
  301loPI    C3 4803  13.558   6.121  10.734 -0.1101  0.1808  0.0472
  301loPI   PO4 4804  13.350   5.920  10.073  0.5900  0.0045 -0.0106
  301loPI   GL1 4805  13.214   5.912   9.622  0.1846 -0.2507  0.0401
  301loPI   GL2 4806  13.573   5.728   9.641  0.2306  0.0084 -0.2291
  301loPI   C1A 4807  13.041   6.293   9.507 -0.2274 -0.2247  0.0184
  301loPI   C2A 4808  12.843   6.334   9.151 -0.0109  0.0791  0.0359
  301loPI   C3A 4809  12.710   6.223   8.736 -0.3204 -0.1610 -0.3363
  301loPI   C4A 4810  12.535   5.995   8.450  0.6590 -0.0027 -0.2045
  301loPI   C5A 4811  12.546   5.806   8.031 -0.2582  0.3195  0.0353
  301loPI   C6A 4812  12.236   5.627   7.741  0.4210  0.4035  0.0121
  301loPI   C1B 4813  13.797   5.744   9.312  0.2372  0.1415 -0.1825
  301loPI   C2B 4814  13.594   5.736   8.867  0.0101  0.2149  0.0982
  301loPI   C3B 4815  13.501   5.666   8.358  0.1173  0.3289  0.1068
  301loPI   C4B 4816  13.628   5.374   7.986  0.0580 -0.0307 -0.1162
  302loPI    C1 4817   6.876   3.365  10.253  0.0405  0.1034  0.0442
  302loPI    C2 4818   6.728   3.026  10.406  0.0857 -0.0390 -0.2228
  302loPI    C3 4819   7.118   3.106  10.437  0.0408  0.0917  0.0271
  302loPI   PO4 4820   6.609   3.498  10.148 -0.0212  0.1353 -0.2136
  302loPI   GL1 4821   6.267   3.598   9.927 -0.0705 -0.1398  0.2681
  302loPI   GL2 4822   6.509   3.725   9.740  0.1283 -0.2283  0.0396
  302loPI   C1A 4823   5.955   3.344   9.651  0.2843  0.0931 -0.3012
  302loPI   C2A 4824   5.901   3.250   9.248  0.0905  0.2642  0.1163
  302loPI   C3A 4825   5.985   3.185   8.831 -0.0816 -0.3225  0.1857
  302loPI   C4A 4826   6.011   3.124   8.382 -0.1025 -0.2107  0.0877
  302loPI   C5A 4827   6.239   3.017   8.010 -0.3630 -0.2957 -0.0894
  302loPI   C6A 4828   6.528   2.722   7.799 -0.0100  0.1330 -0.0401
  302loPI   C1B 4829   6.323   3.589   9.412 -0.0179  0.0915  0.1001
  302loPI   C2B 4830   6.286   3.534   8.950 -0.3213  0.1441  0.1369
  302loPI   C3B 4831   6.316   3.536   8.496 -0.2883 -0.0821 -0.0765
  302loPI   C4B 4832   6.407   3.557   8.141  0.2252  0.1875 -0.0735
  303loPI    C1 4833   7.328   9.470  10.171 -0.1386  0.2030 -0.0868
  303loPI    C2 4834   7.368   9.588  10.552  0.1861 -0.0966 -0.0233
  303loPI    C3 4835   7.094   9.312  10.455 -0.0228  0.1137 -0.0404
  303loPI   PO4 4836   7.464   9.449  10.098 -0.2583 -0.1467 -0.3582
  303loPI   GL1 4837   7.672   9.627   9.656  0.1922  0.0508 -0.1920
  303loPI   GL2 4838   7.839   9.435   9.603  0.0367  0.3043 -0.0243
  303loPI   C1A 4839   7.490   9.459   9.301 -0.1759  0.1317  0.1019
  303loPI   C2A 4840   7.460   9.512   8.934  0.3431 -0.0259  0.2670
  303loPI   C3A 4841   7.583   9.595   8.495  0.3207 -0.0980 -0.2306
  303loPI   C4A 4842   7.602   9.689   8.112  0.1102 -0.2376 -0.2077
  303loPI   C5A 4843   7.448   9.969   7.834  0.0434  0.1940 -0.0352
  303loPI   C6A 4844   7.385  10.248   7.484  0.0497  0.0559  0.2675
  303loPI   C1B 4845   7.993   9.501   9.121  0.1566  0.0022 -0.0160
  303loPI   C2B 4846   7.987   9.549   8.738 -0.1130  0.2513 -0.0065
  303loPI   C3B 4847   8.062   9.524   8.349  0.2511 -0.0744 -0.2036
  303loPI   C4B 4848   8.089   9.694   7.950 -0.0018 -0.0166 -0.0993
  304loPI    C1 4849   3.758   9.167  10.061 -0.1471  0.1682  0.0298
  304loPI    C2 4850   4.092   9.051  10.249 -0.1610  0.0480 -0.0190
  304loPI    C3 4851   3.883   8.788  10.031 -0.1734  0.1733 -0.1600
  304loPI   PO4 4852   3.789   9.324   9.968  0.1157 -0.0184  0.2042
  304loPI   GL1 4853   3.930   9.536   9.596  0.1325 -0.4034 -0.0654
  304loPI   GL2 4854   3.653   9.512   9.485 -0.1593 -0.1733  0.2254
  304loPI   C1A 4855   4.029   9.701   9.166 -0.0608 -0.1381  0.1505
  304loPI   C2A 4856   4.097   9.870   8.724  0.0172 -0.1399  0.2525
  304loPI   C3A 4857   3.945  10.188   8.403  0.2938 -0.2427 -0.0469
  304loPI   C4A 4858   3.726  10.440   8.159  0.0199 -0.1942 -0.1952
  304loPI   C5A 4859   3.538  10.641   7.790  0.2801  0.0190 -0.2503
  304loPI   C6A 4860   3.395  11.016   7.772  0.2309 -0.0858  0.3561
  304loPI   C1B 4861   3.720   9.321   9.048 -0.0069 -0.1552  0.2165
  304loPI   C2B 4862   3.944   9.395   8.638 -0.0126  0.0649 -0.1092
  304loPI   C3B 4863   4.334   9.292   8.494 -0.1790  0.1493 -0.3238
  304loPI   C4B 4864   4.818   9.247   8.664 -0.1617 -0.1015 -0.2682
  305loPI    C1 4865  12.230  12.862  10.385 -0.2098 -0.0704 -0.2577
  305loPI    C2 4866  12.129  12.724  10.746  0.0521  0.0024 -0.1544
  305loPI    C3 4867  12.342  13.061  10.713 -0.0395  0.0398 -0.3809
  305loPI   PO4 4868  11.999  12.876  10.186  0.0614  0.1101 -0.2205
  305loPI   GL1 4869  11.939  12.744   9.692 -0.0172  0.0015 -0.0128
  305loPI   GL2 4870  12.300  12.710   9.658 -0.2980  0.1515  0.1596
  305loPI   C1A 4871  11.912  12.558   9.331 -0.2074 -0.1874  0.0545
  305loPI   C2A 4872  11.753  12.349   8.984  0.0553 -0.4521  0.0105
  305loPI   C3A 4873  11.590  12.189   8.633 -0.2484  0.0722 -0.0459
  305loPI   C4A 4874  11.462  12.017   8.301 -0.0668  0.0069  0.1736
  305loPI   C5A 4875  11.256  11.969   7.979  0.0590  0.0917  0.2636
  305loPI   C6A 4876  11.265  11.961   7.552 -0.0366 -0.1781 -0.0177
  305loPI   C1B 4877  12.645  12.843   9.501 -0.1661  0.1083  0.0766
  305loPI   C2B 4878  12.779  12.813   9.075 -0.1331 -0.1035 -0.0076
  305loPI   C3B 4879  12.731  12.935   8.726  0.0991 -0.0412 -0.1710
  305loPI   C4B 4880  12.442  13.240   8.479 -0.0902 -0.0779 -0.3575
  306loPI    C1 4881   9.378   7.085  10.212 -0.0295  0.1942 -0.0105
  306loPI    C2 4882   9.522   6.714  10.252 -0.0954  0.1383 -0.2706
  306loPI    C3 4883   9.527   6.966  10.563  0.1026 -0.0254 -0.1388
  306loPI   PO4 4884   9.318   7.084   9.962 -0.0063 -0.1028 -0.1204
  306loPI   GL1 4885   9.385   7.299   9.621 -0.1923  0.0012 -0.0814
  306loPI   GL2 4886   9.634   7.186   9.509 -0.0588  0.0940 -0.0629
  306loPI   C1A 4887   9.138   7.243   9.265  0.2785  0.2910 -0.2659
  306loPI   C2A 4888   9.088   7.261   8.886 -0.1956  0.0457 -0.2527
  306loPI   C3A 4889   9.101   7.084   8.502 -0.0742 -0.0023  0.0452
  306loPI   C4A 4890   9.264   7.065   8.178 -0.0920  0.0717  0.0793
  306loPI   C5A 4891   9.631   6.855   8.010  0.1184  0.1230 -0.0828
  306loPI   C6A 4892   9.953   6.658   7.710 -0.0149 -0.1272  0.0482
  306loPI   C1B 4893   9.646   7.105   9.099  0.0246  0.1801 -0.0921
  306loPI   C2B 4894   9.614   7.181   8.684  0.3404  0.0100  0.2934
  306loPI   C3B 4895   9.730   7.278   8.279 -0.2616 -0.0833  0.0323
  306loPI   C4B 4896   9.901   7.395   7.894 -0.1787 -0.1798  0.0570
  307loPI    C1 4897   2.412   0.440  10.291  0.0419  0.0446 -0.0130
  307loPI    C2 4898   2.487   0.781  10.487  0.0148  0.0393  0.0067
  307loPI    C3 4899   2.282   0.489  10.667  0.0081  0.0261 -0.0223
  307loPI   PO4 4900   2.238   0.549  10.086 -0.1718  0.2432  0.0911
  307loPI   GL1 4901   1.909   0.372   9.873 -0.0720  0.1645 -0.0566
  307loPI   GL2 4902   1.762   0.136   9.877 -0.2517 -0.0283  0.1810
  307loPI   C1A 4903   1.946   0.433   9.463 -0.1079 -0.3065  0.1124
  307loPI   C2A 4904   1.997   0.704   9.205  0.0533 -0.1179 -0.2557
  307loPI   C3A 4905   2.019   0.829   8.814  0.0035  0.3805  0.0670
  307loPI   C4A 4906   1.864   0.902   8.446  0.1269  0.2425 -0.2013
  307loPI   C5A 4907   2.081   0.990   8.033  0.2988 -0.2477 -0.1424
  307loPI   C6A 4908   1.811   0.978   7.662 -0.1957  0.2636 -0.1903
  307loPI   C1B 4909   1.840  -0.167   9.471  0.1952  0.2750  0.0273
  307loPI   C2B 4910   1.913  -0.216   8.858 -0.0829 -0.2862 -0.0223
  307loPI   C3B 4911   1.992  -0.378   8.508 -0.2932  0.1689 -0.2850
  307loPI   C4B 4912   2.245  -0.385   8.144 -0.0341  0.3680 -0.0971
  308loPI    C1 4913  16.497   6.939   9.958 -0.2699  0.0422 -0.0591
  308loPI    C2 4914  16.433   7.097  10.320  0.2210  0.4949 -0.1572
  308loPI    C3 4915  16.274   7.269   9.997 -0.0849  0.1833 -0.1778
  308loPI   PO4 4916  16.749   6.869   9.993 -0.4932  0.0150  0.0384
  308loPI   GL1 4917  17.049   7.016   9.770  0.2003  0.3351  0.0591
  308loPI   GL2 4918  17.230   6.773   9.799 -0.0235 -0.0507  0.2669
  308loPI   C1A 4919  17.078   7.174   9.328  0.0439  0.1556 -0.0073
  308loPI   C2A 4920  17.158   7.372   8.903  0.1512 -0.1340 -0.4404
  308loPI   C3A 4921  17.102   7.691   8.581 -0.0275 -0.0420  0.1785
  308loPI   C4A 4922  17.201   7.993   8.205  0.0405  0.1476 -0.0019
  308loPI   C5A 4923  17.577   7.973   7.903  0.0133 -0.1058 -0.2479
  308loPI   C6A 4924  17.927   7.759   7.790  0.3102 -0.0099  0.0865
  308loPI   C1B 4925  17.270   6.743   9.420  0.0205  0.1773  0.0538
  308loPI   C2B 4926  17.394   6.925   9.026 -0.1966  0.2369 -0.1256
  308loPI   C3B 4927  17.331   6.887   8.559  0.1336 -0.1612  0.0669
  308loPI   C4B 4928  17.576   6.933   8.269  0.2937 -0.1398  0.0829
  309loPI    C1 4929  14.128  14.932  10.329 -0.2524  0.1100  0.2287
  309loPI    C2 4930  14.090  15.299  10.484 -0.4173  0.1880  0.0093
  309loPI    C3 4931  13.771  15.113  10.328 -0.2966  0.0265 -0.0481
  309loPI   PO4 4932  14.405  14.951  10.178  0.3973 -0.0235 -0.3058
  309loPI   GL1 4933  14.569  14.896   9.766 -0.0203  0.1229 -0.0586
  309loPI   GL2 4934  14.625  15.160   9.768  0.0775  0.0893 -0.0097
  309loPI   C1A 4935  14.445  14.710   9.384  0.3402  0.1232 -0.2587
  309loPI   C2A 4936  14.236  14.681   8.975 -0.1628 -0.0641  0.0266
  309loPI   C3A 4937  14.310  14.492   8.625  0.4005  0.1799 -0.5417
  309loPI   C4A 4938  14.224  14.564   8.276 -0.1025 -0.0055 -0.2890
  309loPI   C5A 4939  14.327  14.576   7.778 -0.1007 -0.1250 -0.2412
  309loPI   C6A 4940  14.146  14.479   7.570 -0.3386 -0.0444 -0.1965
  309loPI   C1B 4941  14.692  15.107   9.299 -0.2925 -0.0415 -0.0176
  309loPI   C2B 4942  14.619  15.029   8.899  0.0706 -0.1313 -0.0960
  309loPI   C3B 4943  14.361  14.997   8.488 -0.1298  0.1580 -0.1530
  309loPI   C4B 4944  14.388  15.028   8.065 -0.1799  0.1992  0.0563
  310loPI    C1 4945   5.265  12.297  10.207  0.0793  0.0540  0.0037
  310loPI    C2 4946   5.147  12.017  10.468 -0.0014  0.0326 -0.0553
  310loPI    C3 4947   5.509  12.185  10.503 -0.0777  0.1536  0.1729
  310loPI   PO4 4948   5.147  12.212   9.955 -0.2604 -0.3126 -0.1122
  310loPI   GL1 4949   4.954  12.256   9.504  0.0751  0.0232  0.1621
  310loPI   GL2 4950   4.717  11.945   9.488 -0.3422  0.1039  0.0237
  310loPI   C1A 4951   5.108  12.137   9.010  0.0900  0.0114 -0.2396
  310loPI   C2A 4952   5.044  12.260   8.680 -0.0683  0.1833  0.2311
  310loPI   C3A 4953   5.194  12.459   8.353 -0.4072 -0.1000 -0.4530
  310loPI   C4A 4954   5.303  12.473   7.892  0.1276 -0.0429  0.0461
  310loPI   C5A 4955   5.658  12.405   7.579 -0.3041  0.0534 -0.1810
  310loPI   C6A 4956   5.860  12.608   7.337 -0.0722 -0.0807 -0.3475
  310loPI   C1B 4957   4.801  11.805   9.110 -0.0612  0.2297 -0.1697
  310loPI   C2B 4958   5.066  11.731   8.691 -0.0963  0.3668 -0.0402
  310loPI   C3B 4959   5.062  11.667   8.284 -0.2062  0.2824 -0.2802
  310loPI   C4B 4960   5.101  11.499   7.843  0.0927  0.0907 -0.0612
  311loPI    C1 4961   9.441  10.661  10.613  0.1249 -0.2284  0.0519
  311loPI    C2 4962   9.743  10.842  10.802 -0.0478 -0.1051  0.2127
  311loPI    C3 4963   9.375  10.849  10.959 -0.1855 -0.0407 -0.1050
  311loPI   PO4 4964   9.430  10.758  10.390 -0.0518 -0.0381  0.2671
  311loPI   GL1 4965   9.409  10.893   9.930  0.0036 -0.0483  0.0592
  311loPI   GL2 4966   9.313  11.103   9.784  0.0453  0.1171  0.1504
  311loPI   C1A 4967   9.574  10.659   9.557  0.1124 -0.1535 -0.0472
  311loPI   C2A 4968   9.601  10.597   9.058  0.3270 -0.0070 -0.0665
  311loPI   C3A 4969   9.636  10.667   8.701 -0.0088 -0.2227 -0.1014
  311loPI   C4A 4970   9.607  10.847   8.252  0.3206  0.3809  0.0485
  311loPI   C5A 4971   9.504  11.064   7.897 -0.3215 -0.1338 -0.2950
  311loPI   C6A 4972   9.372  11.452   7.991  0.0351 -0.1933  0.0690
  311loPI   C1B 4973   9.436  11.266   9.431  0.0226  0.0576  0.2908
  311loPI   C2B 4974   9.373  11.170   8.937  0.0071 -0.1268  0.1939
  311loPI   C3B 4975   9.323  11.327   8.516  0.2573  0.3222  0.0095
  311loPI   C4B 4976   9.142  11.053   8.291  0.0299 -0.0012 -0.1700
  312loPI    C1 4977   8.545   6.553   9.832  0.0932 -0.2145 -0.0731
  312loPI    C2 4978   8.323   6.382  10.119 -0.0253  0.0273 -0.0177
  312loPI    C3 4979   8.168   6.443   9.755  0.0000  0.0617 -0.0229
  312loPI   PO4 4980   8.713   6.340   9.747 -0.0269  0.1583 -0.2045
  312loPI   GL1 4981   8.943   6.293   9.421 -0.2008 -0.0164  0.1397
  312loPI   GL2 4982   9.287   6.070   9.400 -0.1265 -0.2636  0.6683
  312loPI   C1A 4983   9.001   6.284   8.957  0.2449 -0.0531 -0.0253
  312loPI   C2A 4984   8.998   6.280   8.504 -0.0359 -0.2183 -0.1192
  312loPI   C3A 4985   8.740   6.323   8.133  0.0124  0.3874 -0.0228
  312loPI   C4A 4986   8.914   6.454   7.710  0.3173 -0.0801  0.0607
  312loPI   C5A 4987   9.305   6.693   7.613 -0.2687 -0.1007  0.0757
  312loPI   C6A 4988   9.525   6.606   7.234 -0.0271 -0.0960 -0.0729
  312loPI   C1B 4989   9.384   5.971   8.924 -0.1767  0.2082  0.2320
  312loPI   C2B 4990   9.391   6.074   8.423  0.0571 -0.1977  0.0323
  312loPI   C3B 4991   9.199   6.088   8.008  0.1081 -0.0798  0.0352
  312loPI   C4B 4992   8.935   5.948   7.682  0.0565  0.2224 -0.0994
  313loPI    C1 4993   2.726  11.979  10.444  0.1208  0.1558  0.0082
  313loPI    C2 4994   2.437  12.041  10.713  0.1890  0.0715  0.1016
  313loPI    C3 4995   2.659  11.709  10.731  0.1813  0.0563 -0.0705
  313loPI   PO4 4996   2.665  11.971  10.191  0.1731 -0.0775  0.2200
  313loPI   GL1 4997   2.359  11.876   9.835 -0.1391  0.2181  0.0454
  313loPI   GL2 4998   2.024  11.776   9.875  0.0278  0.1026  0.0226
  313loPI   C1A 4999   2.395  11.880   9.388 -0.0701  0.0814  0.0622
  313loPI   C2A 5000   2.067  11.870   9.029 -0.3746  0.0616 -0.0449
  313loPI   C3A 5001   1.980  12.027   8.656 -0.3626  0.1586 -0.1511
  313loPI   C4A 5002   1.801  12.082   8.272 -0.2930 -0.2443  0.1556
  313loPI   C5A 5003   1.988  12.194   7.867  0.0156 -0.0353  0.0625
  313loPI   C6A 5004   2.362  12.358   7.825 -0.0858 -0.0367  0.1668
  313loPI   C1B 5005   1.892  11.412   9.588 -0.1889 -0.0473 -0.2903
  313loPI   C2B 5006   1.747  11.428   9.184  0.3420  0.1564 -0.2085
  313loPI   C3B 5007   1.695  11.561   8.733 -0.1219 -0.0142 -0.0289
  313loPI   C4B 5008   1.446  11.588   8.289 -0.1571  0.1377  0.0606
  314loPI    C1 5009  16.581  14.326  10.399  0.1198 -0.0208  0.1107
  314loPI    C2 5010  16.206  14.186  10.402  0.1295 -0.0475  0.0912
  314loPI    C3 5011  16.425  14.181  10.737  0.0082  0.2506  0.1775
  314loPI   PO4 5012  16.510  14.521  10.206 -0.1462 -0.0708  0.2603
  314loPI   GL1 5013  16.273  14.389   9.835  0.0527 -0.2675 -0.1720
  314loPI   GL2 5014  16.011  14.143   9.941  0.1639  0.1517  0.1231
  314loPI   C1A 5015  16.263  14.314   9.391 -0.2575  0.2342  0.1327
  314loPI   C2A 5016  16.462  14.051   9.056  0.0920  0.1827  0.2263
  314loPI   C3A 5017  16.380  13.756   8.616 -0.0238 -0.0882 -0.1045
  314loPI   C4A 5018  16.320  13.511   8.279  0.2402 -0.0800  0.1200
  314loPI   C5A 5019  16.450  13.158   8.011 -0.3176  0.0741  0.2664
  314loPI   C6A 5020  16.741  13.027   7.849  0.0853 -0.1298  0.1511
  314loPI   C1B 5021  15.779  14.260   9.631 -0.0270 -0.0045  0.4507
  314loPI   C2B 5022  15.792  14.339   9.177 -0.2118  0.0065  0.0486
  314loPI   C3B 5023  15.574  14.226   8.672 -0.1683  0.3841 -0.6198
  314loPI   C4B 5024  15.763  14.399   8.304  0.3553 -0.1224 -0.4419
  315loPI    C1 5025   7.214   2.377  10.408  0.1024 -0.2585  0.2114
  315loPI    C2 5026   7.296   2.383  10.800  0.1045 -0.0433  0.2087
  315loPI    C3 5027   7.555   2.217  10.544  0.2793  0.1460  0.2596
  315loPI   PO4 5028   7.111   2.622  10.371  0.2374 -0.0175  0.0224
  315loPI   GL1 5029   7.223   2.937  10.017  0.1302 -0.1939  0.1236
  315loPI   GL2 5030   6.889   2.976   9.881 -0.1506 -0.1505  0.2087
  315loPI   C1A 5031   7.338   3.163   9.719 -0.0209  0.1802 -0.1989
  315loPI   C2A 5032   7.381   3.057   9.257  0.3958 -0.0096 -0.0956
  315loPI   C3A 5033   7.345   2.969   8.941 -0.0003  0.0412 -0.1157
  315loPI   C4A 5034   7.477   2.867   8.545 -0.3037 -0.0988 -0.0802
  315loPI   C5A 5035   7.391   2.848   8.148 -0.1427  0.4741  0.0005
  315loPI   C6A 5036   7.659   2.646   7.719  0.0610 -0.1862  0.2259
  315loPI   C1B 5037   6.883   2.920   9.438  0.0005 -0.0389  0.2105
  315loPI   C2B 5038   6.771   2.763   9.018 -0.0208 -0.1801 -0.0499
  315loPI   C3B 5039   6.955   2.808   8.593 -0.0003  0.2978  0.1658
  315loPI   C4B 5040   6.878   2.638   8.183 -0.1231  0.1957  0.1504
  316loPI    C1 5041  14.482  11.317  10.760  0.1137 -0.1200  0.0575
  316loPI    C2 5042  14.098  11.385  10.846  0.1282  0.0737 -0.0251
  316loPI    C3 5043  14.327  11.179  11.102 -0.0707 -0.1848 -0.0510
  316loPI   PO4 5044  14.394  11.343  10.410  0.1373 -0.1227 -0.1933
  316loPI   GL1 5045  14.467  11.405   9.957 -0.1249 -0.1721  0.0020
  316loPI   GL2 5046  14.566  11.616   9.720 -0.1262 -0.2491 -0.3009
  316loPI   C1A 5047  14.601  11.136   9.768  0.1047  0.0820  0.1152
  316loPI   C2A 5048  14.697  10.921   9.313 -0.3163 -0.2211  0.0351
  316loPI   C3A 5049  14.809  10.758   8.960 -0.1194  0.0418  0.4283
  316loPI   C4A 5050  14.825  10.716   8.594  0.0870 -0.1110  0.3922
  316loPI   C5A 5051  14.731  11.062   8.246 -0.2443  0.0968  0.0385
  316loPI   C6A 5052  14.608  11.228   7.940 -0.0850 -0.0962 -0.1609
  316loPI   C1B 5053  14.661  11.445   9.365 -0.1681 -0.0257 -0.2391
  316loPI   C2B 5054  14.850  11.269   9.038  0.4548 -0.3535  0.2271
  316loPI   C3B 5055  14.911  11.213   8.697 -0.0958  0.3375  0.0493
  316loPI   C4B 5056  15.194  11.439   8.354 -0.1899 -0.0414 -0.1035
  317loPI    C1 5057  10.162   0.478   9.920  0.4547 -0.1325 -0.1463
  317loPI    C2 5058  10.315   0.397  10.280  0.3067 -0.2331 -0.1047
  317loPI    C3 5059  10.180   0.100  10.049 -0.0016 -0.1313 -0.0601
  317loPI   PO4 5060  10.055   0.739  10.006  0.3647 -0.0305 -0.0443
  317loPI   GL1 5061   9.921   1.188   9.868  0.3038  0.0673  0.0391
  317loPI   GL2 5062   9.570   1.350   9.857  0.0027 -0.0595  0.0176
  317loPI   C1A 5063   9.933   1.341   9.469 -0.4144 -0.1794  0.0069
  317loPI   C2A 5064  10.096   1.471   9.086 -0.2744 -0.0469  0.0321
  317loPI   C3A 5065  10.027   1.577   8.706 -0.4575  0.0103 -0.1093
  317loPI   C4A 5066   9.896   1.721   8.288  0.1612  0.0828  0.1539
  317loPI   C5A 5067   9.947   1.581   7.956  0.0009  0.0495  0.2406
  317loPI   C6A 5068   9.744   1.444   7.545 -0.0431  0.0871  0.1675
  317loPI   C1B 5069   9.402   1.276   9.387 -0.0582 -0.0595  0.0560
  317loPI   C2B 5070   9.384   1.275   8.965 -0.3517 -0.0836  0.0297
  317loPI   C3B 5071   9.239   1.278   8.632  0.2174 -0.1564 -0.0678
  317loPI   C4B 5072   9.246   1.040   8.285 -0.1021  0.0343 -0.0943
  318loPI    C1 5073   8.701   8.729  10.154  0.1827 -0.3702 -0.1016
  318loPI    C2 5074   9.069   8.576  10.117  0.2698 -0.1700 -0.0751
  318loPI    C3 5075   8.860   8.517  10.453  0.2952 -0.2471 -0.0729
  318loPI   PO4 5076   8.652   8.775   9.844  0.2610  0.2022 -0.2281
  318loPI   GL1 5077   8.712   8.567   9.522  0.0398  0.0205  0.2518
  318loPI   GL2 5078   9.034   8.522   9.588 -0.1058 -0.2006 -0.0743
  318loPI   C1A 5079   8.747   8.601   9.041 -0.3165 -0.1945  0.2377
  318loPI   C2A 5080   8.702   8.682   8.595  0.0926  0.0150  0.2201
  318loPI   C3A 5081   8.713   8.768   8.237 -0.4667  0.1923 -0.1079
  318loPI   C4A 5082   8.710   8.761   7.803  0.0441  0.1810  0.1949
  318loPI   C5A 5083   8.509   8.796   7.471  0.1411  0.2020  0.0377
  318loPI   C6A 5084   8.532   8.740   7.017  0.2140 -0.1310  0.1310
  318loPI   C1B 5085   9.114   8.853   9.316 -0.1724 -0.0766 -0.0689
  318loPI   C2B 5086   8.994   9.090   9.044  0.5016  0.0358  0.2498
  318loPI   C3B 5087   8.890   9.162   8.599  0.4044  0.1076 -0.2089
  318loPI   C4B 5088   9.091   9.061   8.167  0.2467  0.0882 -0.0113
  319loPI    C1 5089   6.712  10.635  10.155  0.3212  0.2172 -0.1616
  319loPI    C2 5090   6.482  10.529  10.465  0.0057  0.4288 -0.3180
  319loPI    C3 5091   6.841  10.693  10.529  0.2522 -0.1798 -0.0723
  319loPI   PO4 5092   6.825  10.418   9.968  0.4471 -0.2132 -0.0126
  319loPI   GL1 5093   6.669  10.301   9.560  0.0206 -0.3256 -0.0972
  319loPI   GL2 5094   6.973  10.205   9.516 -0.0748 -0.4112 -0.0432
  319loPI   C1A 5095   6.425  10.487   9.367 -0.1628 -0.4082  0.0040
  319loPI   C2A 5096   6.395  10.624   9.006 -0.1350 -0.1059 -0.0491
  319loPI   C3A 5097   6.219  10.723   8.556 -0.4014  0.0894  0.0072
  319loPI   C4A 5098   6.429  10.803   8.106  0.0233  0.2437  0.2980
  319loPI   C5A 5099   6.383  10.777   7.693 -0.1907  0.0251 -0.3742
  319loPI   C6A 5100   6.071  10.891   7.288  0.4531  0.0520 -0.1421
  319loPI   C1B 5101   6.907  10.582   9.180 -0.2309  0.0181 -0.2998
  319loPI   C2B 5102   6.844  10.809   8.804  0.0602  0.2939  0.2307
  319loPI   C3B 5103   6.647  10.982   8.547 -0.1151  0.1694  0.4316
  319loPI   C4B 5104   6.234  11.254   8.412  0.2986  0.0411  0.0024
  320loPI    C1 5105  12.990   8.763  10.258  0.1861 -0.2526  0.0318
  320loPI    C2 5106  12.850   8.443  10.453 -0.3869  0.0894  0.2054
  320loPI    C3 5107  12.977   8.762  10.658  0.1048  0.0151  0.0314
  320loPI   PO4 5108  12.856   8.764  10.068  0.0959 -0.2529 -0.2843
  320loPI   GL1 5109  12.834   8.670   9.682 -0.1125 -0.1582  0.1412
  320loPI   GL2 5110  13.070   8.931   9.615  0.0840  0.0966 -0.0742
  320loPI   C1A 5111  12.769   8.718   9.269  0.6874  0.2554  0.0079
  320loPI   C2A 5112  12.937   8.809   8.901 -0.2819  0.0741  0.1282
  320loPI   C3A 5113  13.224   8.891   8.499  0.0791 -0.1908 -0.4548
  320loPI   C4A 5114  13.176   9.106   8.215  0.0559 -0.0743  0.0819
  320loPI   C5A 5115  13.210   9.158   7.743  0.2154 -0.1636 -0.3564
  320loPI   C6A 5116  13.368   9.283   7.441 -0.0205  0.1640  0.1592
  320loPI   C1B 5117  13.184   9.149   9.210  0.2243 -0.2197  0.2654
  320loPI   C2B 5118  13.321   9.208   8.876  0.1879 -0.3149  0.1215
  320loPI   C3B 5119  13.099   9.388   8.669  0.0763  0.0747  0.2846
  320loPI   C4B 5120  13.077   9.761   8.577  0.0899  0.2189  0.2113
  321loPI    C1 5121   9.622  12.772  10.050  0.1628 -0.0009 -0.0806
  321loPI    C2 5122   9.416  12.624  10.359 -0.1017  0.0362 -0.2355
  321loPI    C3 5123   9.742  12.848  10.424 -0.2001  0.1100  0.0173
  321loPI   PO4 5124   9.397  12.855   9.914 -0.1490 -0.0033  0.3700
  321loPI   GL1 5125   9.039  12.801   9.697 -0.0594 -0.1447 -0.1568
  321loPI   GL2 5126   9.061  12.567   9.521  0.0917  0.3787 -0.0656
  321loPI   C1A 5127   9.198  13.060   9.329  0.1857 -0.0740  0.0793
  321loPI   C2A 5128   9.285  13.001   8.883 -0.1786 -0.0613  0.0832
  321loPI   C3A 5129   9.327  12.828   8.446  0.0202 -0.1373  0.0891
  321loPI   C4A 5130   9.384  12.963   7.965  0.0389 -0.2068  0.1410
  321loPI   C5A 5131   9.472  13.044   7.554 -0.1897  0.0272  0.1524
  321loPI   C6A 5132   9.037  13.118   7.265 -0.1069  0.0199  0.0457
  321loPI   C1B 5133   9.085  12.596   9.088 -0.1829  0.2742  0.0933
  321loPI   C2B 5134   8.973  12.580   8.678 -0.2296 -0.1314 -0.3062
  321loPI   C3B 5135   8.835  12.887   8.384 -0.0143  0.1389 -0.0250
  321loPI   C4B 5136   8.409  13.189   8.260  0.1683  0.0435 -0.0111
  322loPI    C1 5137  10.261  17.354  10.424 -0.0690  0.0481  0.2180
  322loPI    C2 5138  10.536  17.511  10.669  0.0875  0.1008  0.0109
  322loPI    C3 5139  10.206  17.343  10.820  0.0745  0.3331  0.2486
  322loPI   PO4 5140  10.269  17.419  10.230  0.1067  0.1630 -0.2007
  322loPI   GL1 5141  10.440  17.533   9.850  0.2182 -0.0781 -0.0137
  322loPI   GL2 5142  10.592  17.822   9.683 -0.0981 -0.0103  0.1665
  322loPI   C1A 5143  10.170  17.493   9.434  0.3315  0.2376  0.1480
  322loPI   C2A 5144  10.226  17.662   9.039 -0.0551 -0.0165  0.2199
  322loPI   C3A 5145  10.023  17.451   8.610 -0.2872 -0.0234  0.4512
  322loPI   C4A 5146   9.615  17.556   8.414 -0.0334 -0.1700  0.1827
  322loPI   C5A 5147   9.227  17.512   8.175 -0.0152  0.0910 -0.0244
  322loPI   C6A 5148   8.770  17.407   7.959 -0.0991  0.5796 -0.0610
  322loPI   C1B 5149  10.594  17.973   9.286  0.1343 -0.2331 -0.1241
  322loPI   C2B 5150  10.524  18.005   8.844 -0.1294 -0.1554  0.1321
  322loPI   C3B 5151  10.639  17.997   8.449 -0.1222  0.1232  0.1555
  322loPI   C4B 5152  10.632  17.891   8.055  0.1132  0.1582  0.2488
  323loPI    C1 5153   1.557  18.615  10.336 -0.0716  0.2195  0.0446
  323loPI    C2 5154   1.512  18.468  10.705 -0.0183 -0.0168 -0.0417
  323loPI    C3 5155   1.461  18.859  10.638 -0.0716  0.0202  0.2071
  323loPI   PO4 5156   1.466  18.397  10.180 -0.2967 -0.1741  0.0692
  323loPI   GL1 5157   1.370  18.300   9.826  0.1923  0.4158 -0.0340
  323loPI   GL2 5158   1.092  18.591   9.965 -0.1792 -0.2546 -0.1451
  323loPI   C1A 5159   1.388  18.294   9.398 -0.1647  0.1922  0.1042
  323loPI   C2A 5160   1.497  18.209   9.079 -0.0350 -0.0147 -0.2648
  323loPI   C3A 5161   1.440  18.390   8.711  0.1363  0.0467 -0.0783
  323loPI   C4A 5162   1.382  18.768   8.410  0.0162  0.1349 -0.0692
  323loPI   C5A 5163   1.155  18.837   8.028 -0.2141  0.0330 -0.0256
  323loPI   C6A 5164   1.132  18.831   7.561  0.3004 -0.2369  0.0885
  323loPI   C1B 5165   1.101  18.705   9.492 -0.1293  0.1845 -0.0505
  323loPI   C2B 5166   1.006  18.753   9.055 -0.0018 -0.0173  0.0242
  323loPI   C3B 5167   0.968  18.986   8.660  0.0019 -0.0329 -0.0380
  323loPI   C4B 5168   0.722  19.133   8.358  0.0014  0.1840  0.5981
  324loPI    C1 5169   0.062  15.523  10.512 -0.0648 -0.2545  0.4294
  324loPI    C2 5170   0.370  15.460  10.759  0.0587 -0.2164  0.2871
  324loPI    C3 5171   0.251  15.171  10.510  0.2554 -0.0878  0.0407
  324loPI   PO4 5172   0.082  15.687  10.374 -0.0238  0.1359 -0.0950
  324loPI   GL1 5173  -0.046  15.750   9.895 -0.1663  0.5554  0.3116
  324loPI   GL2 5174   0.278  15.766   9.917 -0.0764 -0.0501 -0.0825
  324loPI   C1A 5175  -0.245  15.513   9.661  0.3968  0.0211  0.1200
  324loPI   C2A 5176  -0.163  15.491   9.231  0.1204  0.0419 -0.0614
  324loPI   C3A 5177  -0.316  15.358   8.894  0.1042 -0.0775  0.1435
  324loPI   C4A 5178  -0.320  15.283   8.513  0.0593 -0.0484  0.2319
  324loPI   C5A 5179  -0.516  15.274   8.212 -0.1211 -0.1313 -0.0214
  324loPI   C6A 5180  -0.464  15.492   7.777  0.0391  0.0422  0.0988
  324loPI   C1B 5181   0.684  15.529   9.795  0.2622 -0.0575 -0.1509
  324loPI   C2B 5182   0.881  15.584   9.486  0.0543 -0.2521  0.1043
  324loPI   C3B 5183   1.165  15.591   9.183 -0.0281  0.0991  0.0119
  324loPI   C4B 5184   1.098  15.682   8.790 -0.1813 -0.2376  0.0335
  325loPI    C1 5185   9.082   4.835  10.158 -0.1052 -0.1659  0.0755
  325loPI    C2 5186   8.905   4.687  10.485 -0.1878  0.0867  0.1476
  325loPI    C3 5187   8.865   5.074  10.395  0.0592  0.0759 -0.0154
  325loPI   PO4 5188   9.346   4.655  10.188  0.1198 -0.1795  0.1905
  325loPI   GL1 5189   9.441   4.544   9.847  0.2000  0.1450  0.2054
  325loPI   GL2 5190   9.672   4.426   9.664 -0.0496  0.0663 -0.2061
  325loPI   C1A 5191   9.161   4.490   9.446  0.2031 -0.1518 -0.0545
  325loPI   C2A 5192   9.153   4.364   8.979 -0.4373  0.1549  0.1224
  325loPI   C3A 5193   9.186   4.388   8.547  0.2939 -0.1716  0.3851
  325loPI   C4A 5194   9.156   4.157   8.181 -0.0861  0.1167  0.0431
  325loPI   C5A 5195   9.278   4.117   7.778  0.0863  0.1360 -0.1668
  325loPI   C6A 5196   9.542   4.310   7.490  0.1839  0.0004  0.0866
  325loPI   C1B 5197   9.599   4.361   9.226  0.1632  0.2546  0.0253
  325loPI   C2B 5198   9.669   4.255   8.831 -0.0615  0.3082  0.0580
  325loPI   C3B 5199   9.642   4.108   8.404  0.0014  0.2803 -0.0125
  325loPI   C4B 5200   9.715   4.237   7.987 -0.3005 -0.0176 -0.1635
  326loPI    C1 5201  13.421   6.948  10.241  0.2345  0.1765 -0.0289
  326loPI    C2 5202  13.683   6.828  10.518  0.0869 -0.0930 -0.0028
  326loPI    C3 5203  13.633   7.218  10.447  0.2960 -0.0297  0.1832
  326loPI   PO4 5204  13.492   6.813  10.040 -0.2177 -0.0724 -0.0855
  326loPI   GL1 5205  13.557   6.752   9.625 -0.0262  0.0983 -0.5371
  326loPI   GL2 5206  13.510   7.032   9.539 -0.1579 -0.2997 -0.2389
  326loPI   C1A 5207  13.593   6.706   9.136 -0.1282  0.2035 -0.0805
  326loPI   C2A 5208  13.888   6.479   8.795 -0.1271  0.1426  0.0909
  326loPI   C3A 5209  14.087   6.418   8.439 -0.0117 -0.1104  0.1943
  326loPI   C4A 5210  13.952   6.207   8.130 -0.1784 -0.0612 -0.1281
  326loPI   C5A 5211  14.053   5.947   7.713  0.3485  0.0520 -0.2378
  326loPI   C6A 5212  14.281   5.627   7.673 -0.4575 -0.0018 -0.2867
  326loPI   C1B 5213  13.472   7.225   9.214  0.0124  0.1833  0.1519
  326loPI   C2B 5214  13.310   7.207   8.754 -0.1113  0.0871  0.0912
  326loPI   C3B 5215  13.197   7.545   8.497  0.1968  0.0888 -0.2270
  326loPI   C4B 5216  12.983   7.666   8.119 -0.0628  0.0774  0.2119
  327loPI    C1 5217  17.758  10.403  10.845 -0.0366  0.1045  0.0150
  327loPI    C2 5218  17.931  10.759  10.790 -0.1352  0.1515  0.0071
  327loPI    C3 5219  17.866  10.623  11.160 -0.1922  0.1885  0.0107
  327loPI   PO4 5220  17.660  10.367  10.621  0.0393 -0.0523  0.0301
  327loPI   GL1 5221  17.802  10.450  10.223 -0.1000 -0.0393 -0.2464
  327loPI   GL2 5222  17.985  10.154  10.250  0.0186  0.1126  0.0059
  327loPI   C1A 5223  17.769  10.364   9.803 -0.1383 -0.0001 -0.0172
  327loPI   C2A 5224  18.039  10.035   9.596  0.0984  0.1861  0.0224
  327loPI   C3A 5225  18.176   9.838   9.298 -0.0857 -0.0743 -0.1005
  327loPI   C4A 5226  18.527   9.803   9.082 -0.2195 -0.0054  0.1303
  327loPI   C5A 5227  18.748   9.843   8.620  0.0550 -0.1050  0.0472
  327loPI   C6A 5228  18.886   9.563   8.550  0.3398  0.0141  0.0005
  327loPI   C1B 5229  18.265  10.276   9.927  0.0210 -0.1288 -0.0157
  327loPI   C2B 5230  18.194  10.652   9.685  0.1082 -0.0846 -0.2791
  327loPI   C3B 5231  17.933  10.963   9.641  0.1948  0.2623 -0.0608
  327loPI   C4B 5232  18.004  11.337   9.419  0.2424 -0.2596 -0.1100
  328loPI    C1 5233  14.081   3.080  10.302 -0.0292 -0.1581  0.1822
  328loPI    C2 5234  14.402   3.276  10.166 -0.1059  0.0615  0.3132
  328loPI    C3 5235  14.260   3.353  10.532 -0.2739 -0.0762  0.2786
  328loPI   PO4 5236  13.946   2.997   9.986  0.1847  0.0844 -0.0835
  328loPI   GL1 5237  14.060   3.063   9.693 -0.0932 -0.0318  0.1070
  328loPI   GL2 5238  13.995   3.434   9.678  0.1033 -0.0110 -0.0600
  328loPI   C1A 5239  14.245   3.130   9.358  0.2676 -0.0274 -0.2725
  328loPI   C2A 5240  14.395   3.095   8.980  0.1288 -0.1951 -0.1388
  328loPI   C3A 5241  14.612   3.199   8.532 -0.1784 -0.0569  0.3870
  328loPI   C4A 5242  14.814   3.490   8.267  0.2070  0.3393 -0.1412
  328loPI   C5A 5243  14.880   3.738   7.921  0.0021  0.0299 -0.0698
  328loPI   C6A 5244  15.144   4.022   7.726 -0.2024  0.0119 -0.0298
  328loPI   C1B 5245  13.795   3.321   9.320 -0.0206  0.1488 -0.1592
  328loPI   C2B 5246  13.951   3.414   8.865  0.1789  0.0251  0.1989
  328loPI   C3B 5247  14.139   3.228   8.541 -0.2246 -0.1435 -0.1535
  328loPI   C4B 5248  14.361   3.600   8.358 -0.0100  0.1018  0.2378
  329loPI    C1 5249   3.360   5.531  10.223 -0.0372  0.2325 -0.0980
  329loPI    C2 5250   3.668   5.775  10.296  0.1536 -0.1059  0.2718
  329loPI    C3 5251   3.521   5.547  10.589 -0.3610 -0.0557  0.0624
  329loPI   PO4 5252   3.345   5.493   9.908 -0.1224  0.0680 -0.1494
  329loPI   GL1 5253   3.418   5.166   9.792 -0.1965 -0.1513  0.0071
  329loPI   GL2 5254   3.731   5.268   9.709 -0.1176  0.1575 -0.0823
  329loPI   C1A 5255   3.366   5.186   9.295  0.0397 -0.2900 -0.0619
  329loPI   C2A 5256   3.362   5.171   8.904  0.3664 -0.0702  0.5993
  329loPI   C3A 5257   3.316   5.133   8.447 -0.1352  0.4954  0.0235
  329loPI   C4A 5258   3.083   4.979   8.000  0.0610  0.1871 -0.1823
  329loPI   C5A 5259   3.217   4.807   7.572  0.0525  0.1169  0.0378
  329loPI   C6A 5260   3.418   4.642   7.209  0.1104  0.1613 -0.0253
  329loPI   C1B 5261   3.802   5.615   9.370  0.4949  0.1199 -0.1659
  329loPI   C2B 5262   4.075   5.570   8.957  0.2723 -0.4177 -0.0135
  329loPI   C3B 5263   4.252   5.653   8.537 -0.0759 -0.0638 -0.0975
  329loPI   C4B 5264   4.252   5.661   8.114 -0.0659 -0.1788 -0.2281
  330loPI    C1 5265  16.361   3.889  10.337  0.1827 -0.3592  0.0373
  330loPI    C2 5266  16.358   4.091  10.682  0.0043 -0.0283 -0.1519
  330loPI    C3 5267  16.203   3.722  10.664 -0.1520  0.0236  0.0796
  330loPI   PO4 5268  16.161   4.069  10.170 -0.0644 -0.5738  0.1817
  330loPI   GL1 5269  16.193   4.463   9.946 -0.1777 -0.1097 -0.2328
  330loPI   GL2 5270  16.550   4.365   9.817 -0.2448 -0.3855  0.0322
  330loPI   C1A 5271  15.925   4.290   9.646  0.1362 -0.2149  0.0995
  330loPI   C2A 5272  15.805   4.172   9.272  0.2204 -0.0312 -0.0422
  330loPI   C3A 5273  15.827   4.219   8.918  0.2239  0.1033 -0.1508
  330loPI   C4A 5274  15.640   4.149   8.509  0.0988  0.1169 -0.0176
  330loPI   C5A 5275  15.383   4.245   8.115 -0.1951 -0.1755  0.1888
  330loPI   C6A 5276  15.310   4.510   7.617  0.0478 -0.0967 -0.2913
  330loPI   C1B 5277  16.719   4.532   9.439  0.0400 -0.1588 -0.1762
  330loPI   C2B 5278  16.638   4.652   9.012  0.1712  0.0339 -0.1111
  330loPI   C3B 5279  16.141   4.784   8.935 -0.1408 -0.2956  0.0011
  330loPI   C4B 5280  15.896   4.603   8.564 -0.0282 -0.1150 -0.0319
  331loPI    C1 5281   0.726   6.344   9.960 -0.2381  0.0501  0.1215
  331loPI    C2 5282   0.980   6.233  10.248 -0.2009  0.0213  0.0778
  331loPI    C3 5283   0.607   6.088  10.242 -0.2269  0.0842  0.1571
  331loPI   PO4 5284   0.948   6.371   9.771 -0.0793 -0.0366 -0.0374
  331loPI   GL1 5285   1.195   6.454   9.371 -0.1165 -0.2766 -0.2793
  331loPI   GL2 5286   1.344   6.193   9.460  0.0097  0.0738  0.0263
  331loPI   C1A 5287   1.018   6.547   8.982  0.0436  0.1495 -0.3542
  331loPI   C2A 5288   1.173   6.649   8.600  0.0781 -0.0392 -0.1027
  331loPI   C3A 5289   1.114   6.562   8.238  0.0694  0.3371  0.0610
  331loPI   C4A 5290   0.980   6.614   7.746 -0.0374  0.1995  0.2078
  331loPI   C5A 5291   0.973   6.263   7.296 -0.0769 -0.0575  0.0005
  331loPI   C6A 5292   1.285   5.872   7.135  0.1357  0.4421  0.1339
  331loPI   C1B 5293   1.420   6.223   9.010  0.1937  0.3483 -0.1020
  331loPI   C2B 5294   1.447   6.199   8.567 -0.2149  0.3240 -0.0424
  331loPI   C3B 5295   1.373   6.174   8.167  0.0828 -0.0931  0.1604
  331loPI   C4B 5296   1.422   6.328   7.785  0.0867 -0.2331 -0.2554
  332loPI    C1 5297  13.722  12.543  10.458 -0.0337  0.0446  0.0644
  332loPI    C2 5298  13.386  12.646  10.648 -0.0953  0.0816 -0.0634
  332loPI    C3 5299  13.726  12.843  10.722 -0.0183 -0.1910  0.3358
  332loPI   PO4 5300  13.644  12.557  10.180 -0.1753 -0.1687  0.3597
  332loPI   GL1 5301  13.478  12.708   9.810 -0.1258 -0.2330  0.1576
  332loPI   GL2 5302  13.379  13.014   9.788  0.0970  0.1224 -0.1233
  332loPI   C1A 5303  13.121  12.523   9.428 -0.0563  0.3793  0.0160
  332loPI   C2A 5304  13.229  12.493   8.975  0.2174  0.1265  0.0775
  332loPI   C3A 5305  13.219  12.635   8.488  0.1344  0.1788 -0.2187
  332loPI   C4A 5306  12.872  12.915   8.227 -0.1014 -0.1077  0.1666
  332loPI   C5A 5307  12.854  13.354   8.150  0.3011 -0.0427  0.2480
  332loPI   C6A 5308  12.865  13.903   8.156  0.1528 -0.3699  0.0892
  332loPI   C1B 5309  13.469  12.899   9.304 -0.0512 -0.0577 -0.0522
  332loPI   C2B 5310  13.286  13.010   8.905  0.2983 -0.1765  0.1242
  332loPI   C3B 5311  13.102  13.181   8.582 -0.0829 -0.0783 -0.2805
  332loPI   C4B 5312  12.811  13.608   8.588 -0.2773  0.2546  0.0956
  333loPI    C1 5313   8.046   2.710  10.639  0.0858  0.1984  0.1474
  333loPI    C2 5314   7.735   2.679  10.889 -0.0220  0.0472 -0.0035
  333loPI    C3 5315   8.059   2.887  10.997 -0.1171  0.0849  0.2123
  333loPI   PO4 5316   8.027   2.486  10.505 -0.3149 -0.0643 -0.1568
  333loPI   GL1 5317   7.947   2.267  10.111  0.2965  0.2286  0.0687
  333loPI   GL2 5318   8.005   1.980  10.108 -0.1304  0.2920  0.0236
  333loPI   C1A 5319   7.764   2.208   9.671  0.1872  0.2267 -0.1133
  333loPI   C2A 5320   7.701   2.176   9.341 -0.1335 -0.1645  0.1463
  333loPI   C3A 5321   7.589   2.023   8.916  0.2780 -0.0825  0.2396
  333loPI   C4A 5322   7.694   1.676   8.642 -0.0082 -0.3092  0.0482
  333loPI   C5A 5323   7.854   1.331   8.306 -0.3135  0.1789  0.1986
  333loPI   C6A 5324   8.007   0.955   8.102  0.2385 -0.2590  0.0555
  333loPI   C1B 5325   7.663   1.805  10.019  0.1210 -0.0015 -0.3247
  333loPI   C2B 5326   7.544   1.398   9.655  0.0613  0.0061  0.0757
  333loPI   C3B 5327   7.629   1.035   9.334  0.1618  0.2280 -0.3255
  333loPI   C4B 5328   7.596   0.819   9.071 -0.0224  0.1537 -0.1474
  334loPI    C1 5329   6.396   8.156  10.254  0.0605  0.0231  0.0178
  334loPI    C2 5330   6.483   8.505  10.429  0.1309 -0.0286  0.0864
  334loPI    C3 5331   6.608   8.163  10.593  0.0172 -0.0891  0.0474
  334loPI   PO4 5332   6.395   8.179   9.997 -0.1010  0.0847  0.5506
  334loPI   GL1 5333   6.547   8.114   9.530  0.3138  0.2294  0.0737
  334loPI   GL2 5334   6.836   8.058   9.481  0.1840  0.0425  0.2729
  334loPI   C1A 5335   6.387   8.115   9.071  0.1630  0.0785  0.2648
  334loPI   C2A 5336   6.465   8.147   8.695  0.2783 -0.1829 -0.0156
  334loPI   C3A 5337   6.342   8.068   8.414  0.0891 -0.0253  0.0602
  334loPI   C4A 5338   6.343   8.041   7.973  0.0094 -0.1117  0.1857
  334loPI   C5A 5339   6.466   7.640   7.747  0.1199  0.1756 -0.0706
  334loPI   C6A 5340   6.751   7.318   7.574 -0.1744 -0.2646 -0.0914
  334loPI   C1B 5341   6.968   8.141   9.167  0.5199 -0.0164  0.2335
  334loPI   C2B 5342   6.939   8.167   8.703  0.1666  0.2205 -0.0099
  334loPI   C3B 5343   7.172   8.278   8.341  0.0078 -0.0447 -0.1369
  334loPI   C4B 5344   7.083   8.429   7.921  0.0866  0.2662  0.1566
  335loPI    C1 5345   3.523   4.477  10.165  0.1000  0.0912 -0.0383
  335loPI    C2 5346   3.357   4.591  10.511  0.1020  0.1537 -0.0578
  335loPI    C3 5347   3.324   4.823  10.187  0.0476  0.0661 -0.1155
  335loPI   PO4 5348   3.398   4.311  10.083  0.0838  0.3544  0.0088
  335loPI   GL1 5349   3.006   4.245   9.760 -0.0546  0.0151 -0.1796
  335loPI   GL2 5350   2.663   4.181   9.781 -0.1316  0.0516 -0.1829
  335loPI   C1A 5351   3.054   4.379   9.346  0.0873 -0.1741  0.0658
  335loPI   C2A 5352   2.973   4.278   8.939 -0.1824 -0.1615 -0.1231
  335loPI   C3A 5353   3.053   4.048   8.567  0.0175 -0.4275  0.1768
  335loPI   C4A 5354   3.107   4.059   8.171 -0.0945 -0.1013 -0.1019
  335loPI   C5A 5355   3.285   3.839   7.768  0.3968  0.2540 -0.0096
  335loPI   C6A 5356   3.400   3.735   7.321  0.0016  0.0041  0.1228
  335loPI   C1B 5357   2.440   3.884   9.476  0.1293  0.0234  0.1410
  335loPI   C2B 5358   2.557   3.637   9.270  0.2545 -0.0832 -0.0054
  335loPI   C3B 5359   2.699   3.423   8.883  0.1347 -0.1071 -0.0672
  335loPI   C4B 5360   2.341   3.244   8.718 -0.0582 -0.3823  0.0302
  336loPI    C1 5361  17.700   2.069   9.614  0.0239 -0.2703  0.0165
  336loPI    C2 5362  17.483   1.733   9.596  0.0728 -0.3027  0.0275
  336loPI    C3 5363  17.308   2.089   9.539 -0.0923 -0.2863  0.5758
  336loPI   PO4 5364  17.904   1.992   9.486 -0.0401  0.0362  0.0383
  336loPI   GL1 5365  18.049   2.076   9.116 -0.0339 -0.0948  0.1389
  336loPI   GL2 5366  18.275   2.265   9.257 -0.0697  0.0597  0.1516
  336loPI   C1A 5367  18.056   2.099   8.745  0.1476  0.2670 -0.1857
  336loPI   C2A 5368  17.919   1.917   8.390  0.3365 -0.0865  0.2342
  336loPI   C3A 5369  17.883   1.803   8.022  0.4409 -0.0074 -0.3763
  336loPI   C4A 5370  17.633   1.767   7.845  0.2707 -0.0505  0.2582
  336loPI   C5A 5371  17.572   1.662   7.450 -0.2471 -0.2524 -0.1887
  336loPI   C6A 5372  17.575   1.744   7.038  0.2322  0.2254 -0.1729
  336loPI   C1B 5373  18.536   2.318   8.817  0.2075  0.1569 -0.1021
  336loPI   C2B 5374  18.448   2.224   8.402  0.0028 -0.0515 -0.2816
  336loPI   C3B 5375  18.386   2.171   8.027 -0.0923  0.0981 -0.1647
  336loPI   C4B 5376  18.558   2.229   7.630  0.1205  0.1010  0.0669
  337loPI    C1 5377   2.581  10.904  10.585 -0.0469  0.1015 -0.1465
  337loPI    C2 5378   2.824  10.692  10.349 -0.0256  0.0846 -0.1093
  337loPI    C3 5379   2.559  10.505  10.583  0.1804  0.0850  0.1279
  337loPI   PO4 5380   2.511  11.219  10.442  0.0741 -0.2517  0.2402
  337loPI   GL1 5381   2.304  11.382  10.105 -0.2121 -0.1998 -0.0696
  337loPI   GL2 5382   2.067  11.180   9.980 -0.0428 -0.3630  0.1004
  337loPI   C1A 5383   2.408  11.408   9.556  0.2763 -0.0035  0.2729
  337loPI   C2A 5384   2.376  11.475   9.104  0.0961 -0.1478 -0.0835
  337loPI   C3A 5385   2.146  11.266   8.803 -0.0521 -0.0793 -0.0630
  337loPI   C4A 5386   2.269  11.086   8.469 -0.1007  0.1911  0.3327
  337loPI   C5A 5387   2.318  10.884   8.065  0.0645  0.3398 -0.1385
  337loPI   C6A 5388   2.512  10.588   7.838 -0.3598  0.1527 -0.0725
  337loPI   C1B 5389   2.163  10.892   9.617 -0.1219 -0.0081 -0.0859
  337loPI   C2B 5390   2.182  10.813   9.234 -0.1454 -0.2110 -0.0772
  337loPI   C3B 5391   2.445  10.899   8.868  0.1411  0.0663  0.2618
  337loPI   C4B 5392   2.416  10.528   8.410  0.0618 -0.0618 -0.1683
  338loPI    C1 5393  10.373   6.759  10.278  0.2448  0.0599 -0.1244
  338loPI    C2 5394  10.061   7.009  10.257  0.1934  0.0093  0.0169
  338loPI    C3 5395  10.255   6.960  10.603  0.3243 -0.0012 -0.0572
  338loPI   PO4 5396  10.487   6.826  10.041 -0.1885  0.0183 -0.0276
  338loPI   GL1 5397  10.227   6.754   9.687 -0.0732  0.3511  0.1302
  338loPI   GL2 5398  10.073   7.067   9.738 -0.1655  0.0613  0.1974
  338loPI   C1A 5399   9.931   6.734   9.331  0.0151 -0.0006 -0.0212
  338loPI   C2A 5400   9.959   6.593   8.989  0.0219 -0.2223 -0.2998
  338loPI   C3A 5401   9.950   6.796   8.483  0.1910  0.0491 -0.0158
  338loPI   C4A 5402  10.079   6.947   8.122  0.0518  0.2208  0.0447
  338loPI   C5A 5403  10.338   7.130   7.877  0.1416  0.0717  0.1829
  338loPI   C6A 5404  10.674   7.431   7.986  0.0773 -0.2214  0.1156
  338loPI   C1B 5405  10.158   7.403   9.637  0.0933  0.2650  0.2078
  338loPI   C2B 5406  10.372   7.551   9.380  0.0301 -0.0157 -0.3172
  338loPI   C3B 5407  10.432   7.630   9.017 -0.0912 -0.1576  0.1282
  338loPI   C4B 5408  10.167   7.856   8.598  0.1331 -0.0297 -0.0487
  339loPI    C1 5409   4.026   4.097  10.138  0.0719  0.0053  0.2337
  339loPI    C2 5410   4.047   3.742  10.321 -0.1729 -0.2120 -0.1463
  339loPI    C3 5411   3.738   3.985  10.393  0.0148 -0.0540  0.1440
  339loPI   PO4 5412   4.098   4.061   9.833  0.2587  0.0287  0.2926
  339loPI   GL1 5413   3.766   3.897   9.628  0.1164 -0.1153  0.1050
  339loPI   GL2 5414   3.567   4.120   9.657  0.0594 -0.2416  0.1257
  339loPI   C1A 5415   3.841   3.797   9.211 -0.0798 -0.1473 -0.0066
  339loPI   C2A 5416   3.910   3.799   8.795 -0.3133 -0.1619 -0.1271
  339loPI   C3A 5417   4.065   3.732   8.464  0.0189 -0.0919 -0.0787
  339loPI   C4A 5418   4.169   4.086   8.163 -0.0531 -0.1925  0.1264
  339loPI   C5A 5419   4.487   4.371   7.892 -0.0013  0.0378  0.0796
  339loPI   C6A 5420   4.648   4.716   7.589  0.3559 -0.0292 -0.1749
  339loPI   C1B 5421   3.420   4.104   9.246 -0.0717 -0.0002  0.2902
  339loPI   C2B 5422   3.455   4.055   8.829 -0.2490  0.2205  0.1234
  339loPI   C3B 5423   3.484   3.829   8.461 -0.0465 -0.0450  0.0329
  339loPI   C4B 5424   3.620   3.641   8.146 -0.0950  0.0884 -0.1564
  340loPI    C1 5425   3.681  15.591  10.398  0.2195  0.1045  0.1805
  340loPI    C2 5426   3.907  15.487  10.712 -0.0036  0.0823  0.3360
  340loPI    C3 5427   3.519  15.389  10.704  0.0445 -0.0946 -0.0400
  340loPI   PO4 5428   3.760  15.835  10.309 -0.0198 -0.2513 -0.0944
  340loPI   GL1 5429   3.859  16.198  10.005  0.1570 -0.2619 -0.3878
  340loPI   GL2 5430   3.938  16.588  10.182 -0.1590  0.1629 -0.3338
  340loPI   C1A 5431   4.101  16.270   9.664 -0.3823  0.0447  0.2246
  340loPI   C2A 5432   3.993  16.101   9.240 -0.1188 -0.1726  0.0861
  340loPI   C3A 5433   3.845  15.870   8.847  0.1479  0.0076  0.1370
  340loPI   C4A 5434   3.913  15.871   8.310  0.0148  0.1738  0.1948
  340loPI   C5A 5435   4.189  15.780   8.055  0.3857 -0.1624  0.1823
  340loPI   C6A 5436   4.307  16.075   7.619  0.0904  0.0447 -0.0096
  340loPI   C1B 5437   4.020  16.760   9.746 -0.1864  0.2982  0.1221
  340loPI   C2B 5438   4.016  17.030   9.368  0.0996 -0.0147  0.0400
  340loPI   C3B 5439   4.350  17.188   9.116  0.2563  0.1792 -0.0359
  340loPI   C4B 5440   4.565  17.520   9.014 -0.0293 -0.1369 -0.0380
  341loPI    C1 5441  14.097   0.500  10.535 -0.1558 -0.0542 -0.0081
  341loPI    C2 5442  13.795   0.262  10.426 -0.1994  0.0304 -0.0740
  341loPI    C3 5443  13.758   0.499  10.746 -0.0398 -0.2808  0.1813
  341loPI   PO4 5444  14.111   0.641  10.357 -0.2728 -0.3118  0.0580
  341loPI   GL1 5445  14.308   0.659   9.939  0.0138  0.0097  0.0013
  341loPI   GL2 5446  14.090   0.867   9.905 -0.2367  0.0067  0.2175
  341loPI   C1A 5447  14.490   0.462   9.516  0.1915 -0.0877  0.0312
  341loPI   C2A 5448  14.184   0.323   9.229 -0.0899  0.0182  0.2318
  341loPI   C3A 5449  14.127   0.060   8.884  0.0877  0.0778  0.3393
  341loPI   C4A 5450  13.895   0.046   8.463  0.0919  0.1105  0.0434
  341loPI   C5A 5451  13.575  -0.032   8.134  0.2933  0.0285 -0.1371
  341loPI   C6A 5452  13.261  -0.116   7.999  0.3402  0.0317  0.0561
  341loPI   C1B 5453  14.058   0.866   9.436  0.0514 -0.1497  0.2727
  341loPI   C2B 5454  14.118   0.738   9.030 -0.0786 -0.0087 -0.1435
  341loPI   C3B 5455  14.021   0.523   8.697  0.1888  0.1944  0.0087
  341loPI   C4B 5456  13.980   0.521   8.283  0.2392  0.0936 -0.0083
  342loPI    C1 5457  14.823  17.876  10.267  0.0904 -0.0284  0.0469
  342loPI    C2 5458  14.522  18.028  10.484  0.0593 -0.1641  0.0995
  342loPI    C3 5459  14.734  17.719  10.624  0.2259 -0.0672  0.0638
  342loPI   PO4 5460  14.960  18.096  10.212  0.0529 -0.1171  0.0120
  342loPI   GL1 5461  15.145  18.214   9.841 -0.2049 -0.3643  0.0942
  342loPI   GL2 5462  15.484  18.398   9.733 -0.0540  0.3787 -0.3285
  342loPI   C1A 5463  15.407  17.916   9.581  0.0262  0.0554  0.0825
  342loPI   C2A 5464  15.622  17.661   9.403  0.0929  0.0655 -0.3658
  342loPI   C3A 5465  15.701  17.539   8.913 -0.1067  0.1412 -0.2443
  342loPI   C4A 5466  15.460  17.518   8.514  0.1029 -0.0568 -0.0945
  342loPI   C5A 5467  15.101  17.733   8.479 -0.2101 -0.0444 -0.3664
  342loPI   C6A 5468  14.732  18.085   8.499  0.0029 -0.0398  0.1731
  342loPI   C1B 5469  15.663  18.349   9.369  0.0893 -0.2989 -0.0569
  342loPI   C2B 5470  15.776  18.049   8.946  0.0592  0.0154  0.6144
  342loPI   C3B 5471  15.803  17.854   8.541 -0.1471  0.1230 -0.0005
  342loPI   C4B 5472  15.789  17.669   8.114  0.3490  0.0762  0.3077
  343loPI    C1 5473  10.569  12.738  10.647 -0.0608 -0.1012  0.0363
  343loPI    C2 5474  10.234  12.751  10.865 -0.0588  0.3425  0.0232
  343loPI    C3 5475  10.490  13.058  10.874  0.3455  0.0145  0.0230
  343loPI   PO4 5476  10.485  12.718  10.358 -0.2289 -0.1933 -0.3938
  343loPI   GL1 5477  10.133  12.823   9.908  0.2515 -0.2820 -0.2201
  343loPI   GL2 5478  10.069  13.143   9.860  0.0802 -0.4939  0.1305
  343loPI   C1A 5479   9.984  12.798   9.473 -0.1976  0.0651  0.1013
  343loPI   C2A 5480  10.086  12.923   9.090  0.3686 -0.2547  0.0655
  343loPI   C3A 5481  10.185  12.968   8.764  0.1622  0.0402  0.1792
  343loPI   C4A 5482  10.285  13.023   8.400  0.2881 -0.1584 -0.0703
  343loPI   C5A 5483  10.283  12.939   7.940  0.1590 -0.1825  0.0831
  343loPI   C6A 5484  10.279  12.738   7.630  0.0219 -0.1746  0.1211
  343loPI   C1B 5485  10.165  13.258   9.462 -0.0568 -0.0796 -0.3218
  343loPI   C2B 5486  10.257  13.378   9.026 -0.1270  0.1230  0.3075
  343loPI   C3B 5487  10.175  13.482   8.575 -0.1424 -0.0407  0.0990
  343loPI   C4B 5488  10.226  13.461   8.160 -0.0589 -0.1490 -0.0872
  344loPI    C1 5489   2.836  10.030  10.394  0.2676  0.1108 -0.0265
  344loPI    C2 5490   2.899  10.197  10.752  0.2881 -0.1455  0.0920
  344loPI    C3 5491   3.102   9.869  10.646  0.1395 -0.1850 -0.0755
  344loPI   PO4 5492   2.869  10.186  10.210  0.0086 -0.0082  0.2291
  344loPI   GL1 5493   2.478  10.412  10.045 -0.0326  0.3605 -0.3289
  344loPI   GL2 5494   2.636  10.626   9.842  0.2644 -0.1414  0.1727
  344loPI   C1A 5495   2.350  10.355   9.595  0.0007  0.2362  0.1991
  344loPI   C2A 5496   2.317  10.369   9.213  0.0402 -0.1029  0.0816
  344loPI   C3A 5497   2.101  10.446   8.810  0.1553 -0.1004 -0.0448
  344loPI   C4A 5498   1.879  10.398   8.355 -0.0884 -0.0455  0.1904
  344loPI   C5A 5499   2.027  10.455   8.010  0.2874 -0.3030  0.1035
  344loPI   C6A 5500   1.938  10.626   7.649 -0.0288  0.0197  0.0276
  344loPI   C1B 5501   2.625  10.915   9.374  0.0007  0.3035  0.3439
  344loPI   C2B 5502   2.794  11.171   9.098  0.0141  0.0912 -0.3037
  344loPI   C3B 5503   2.694  11.303   8.620  0.0460 -0.0512  0.0643
  344loPI   C4B 5504   2.617  11.316   8.168 -0.0544  0.1313  0.0158
  345loPI    C1 5505   3.661  12.983   9.972  0.4531 -0.0118 -0.0308
  345loPI    C2 5506   3.763  13.343  10.114 -0.1028  0.1449 -0.0062
  345loPI    C3 5507   3.716  13.035  10.364 -0.0560  0.1630  0.0249
  345loPI   PO4 5508   3.791  12.973   9.711  0.2406  0.1073  0.0893
  345loPI   GL1 5509   3.614  13.118   9.460  0.0197  0.0156 -0.1059
  345loPI   GL2 5510   3.363  12.914   9.459  0.2389  0.1326  0.1321
  345loPI   C1A 5511   3.743  13.163   9.084  0.0030  0.1444 -0.1647
  345loPI   C2A 5512   3.601  13.094   8.640 -0.0281 -0.4579 -0.0308
  345loPI   C3A 5513   3.613  13.001   8.172 -0.0184  0.1315 -0.0733
  345loPI   C4A 5514   3.546  13.080   7.771 -0.5268  0.1190  0.0918
  345loPI   C5A 5515   3.801  12.764   7.485 -0.2428 -0.3523 -0.2106
  345loPI   C6A 5516   4.047  12.414   7.402 -0.1983  0.2289 -0.2436
  345loPI   C1B 5517   3.233  13.130   9.147 -0.1886  0.4626  0.0026
  345loPI   C2B 5518   3.119  13.127   8.719  0.2588 -0.2588 -0.0878
  345loPI   C3B 5519   3.120  13.105   8.240 -0.1696  0.1624  0.0321
  345loPI   C4B 5520   3.305  12.684   7.931 -0.0702  0.2327  0.2027
  346loPI    C1 5521  18.463   2.205  10.270 -0.0906  0.0219 -0.3161
  346loPI    C2 5522  18.191   2.201  10.564  0.2669 -0.0773  0.0225
  346loPI    C3 5523  18.251   1.873  10.343  0.1651 -0.0786 -0.0039
  346loPI   PO4 5524  18.442   2.378  10.066  0.2522 -0.1996 -0.2311
  346loPI   GL1 5525  18.669   2.223   9.708  0.1045  0.0526 -0.0504
  346loPI   GL2 5526  18.770   1.995   9.615  0.0188  0.0370 -0.0292
  346loPI   C1A 5527  18.910   2.392   9.277  0.3464 -0.3369  0.1689
  346loPI   C2A 5528  19.030   2.540   8.843 -0.1659 -0.1202 -0.2029
  346loPI   C3A 5529  18.766   2.698   8.571  0.1309 -0.1153 -0.0055
  346loPI   C4A 5530  18.530   2.674   8.085 -0.1392 -0.1220 -0.3207
  346loPI   C5A 5531  18.557   2.716   7.615 -0.2399  0.2990 -0.2366
  346loPI   C6A 5532  18.401   3.112   7.471 -0.0768  0.2523  0.1602
  346loPI   C1B 5533  18.699   1.956   9.141 -0.1055 -0.1271 -0.1973
  346loPI   C2B 5534  18.480   1.796   8.660 -0.1411  0.1747 -0.1271
  346loPI   C3B 5535  18.412   1.672   8.228 -0.0441 -0.1064  0.0545
  346loPI   C4B 5536  18.396   1.704   7.798 -0.3366  0.2203  0.2570
  347loPI    C1 5537   8.478  17.981  10.776  0.0473  0.0215  0.1007
  347loPI    C2 5538   8.235  17.952  11.092 -0.0530 -0.0002  0.0220
  347loPI    C3 5539   8.560  18.184  11.111  0.0457 -0.1501  0.2062
  347loPI   PO4 5540   8.349  17.961  10.559  0.2273 -0.1129  0.0739
  347loPI   GL1 5541   8.519  18.284  10.343  0.1166  0.0800 -0.0575
  347loPI   GL2 5542   8.258  18.395  10.248  0.0316 -0.2008 -0.1644
  347loPI   C1A 5543   8.670  18.217   9.959  0.1853 -0.2589  0.1869
  347loPI   C2A 5544   8.623  18.296   9.475  0.0209  0.0631 -0.1000
  347loPI   C3A 5545   8.508  18.212   9.137  0.0689 -0.2394  0.1864
  347loPI   C4A 5546   8.377  18.422   8.762  0.0890  0.0201 -0.1519
  347loPI   C5A 5547   8.768  18.569   8.511 -0.1110 -0.1348  0.2368
  347loPI   C6A 5548   8.987  18.271   8.228  0.0280  0.0646 -0.0442
  347loPI   C1B 5549   8.390  18.644   9.881 -0.0108 -0.2336 -0.0756
  347loPI   C2B 5550   8.319  18.759   9.502 -0.3039  0.0587 -0.0974
  347loPI   C3B 5551   8.151  18.810   9.115  0.1108  0.1375 -0.0925
  347loPI   C4B 5552   7.990  18.752   8.680  0.0835 -0.0369  0.1512
  348loPI    C1 5553   6.249  10.943  10.596 -0.0988 -0.0720  0.1370
  348loPI    C2 5554   6.568  11.109  10.770 -0.0755 -0.1389  0.1585
  348loPI    C3 5555   6.208  11.142  10.940 -0.0856 -0.0369  0.1183
  348loPI   PO4 5556   6.343  11.067  10.234  0.0864 -0.2805  0.0391
  348loPI   GL1 5557   6.445  11.011   9.837  0.0893 -0.1411  0.2592
  348loPI   GL2 5558   6.390  10.792   9.715  0.2314  0.0761  0.0883
  348loPI   C1A 5559   6.382  11.422   9.573  0.0880 -0.3339 -0.2479
  348loPI   C2A 5560   6.384  11.719   9.318  0.2295 -0.3116  0.0631
  348loPI   C3A 5561   6.670  11.897   9.112 -0.0825  0.3760 -0.0260
  348loPI   C4A 5562   6.911  12.230   8.942  0.1351 -0.0534  0.1538
  348loPI   C5A 5563   6.978  12.532   8.977 -0.3199  0.0085  0.2021
  348loPI   C6A 5564   7.392  12.760   9.027  0.3892  0.3314  0.1791
  348loPI   C1B 5565   6.125  10.979   9.408 -0.0194  0.0189 -0.0172
  348loPI   C2B 5566   6.034  11.405   9.219 -0.1533 -0.1054 -0.0387
  348loPI   C3B 5567   6.159  11.575   8.829  0.0128  0.2994 -0.1866
  348loPI   C4B 5568   6.282  11.715   8.355  0.0011 -0.3533  0.0281
  349loPI    C1 5569  16.973   7.917  10.388 -0.3223 -0.0248  0.2186
  349loPI    C2 5570  16.647   8.127  10.485 -0.1470  0.3065  0.1090
  349loPI    C3 5571  17.009   8.291  10.528 -0.0128  0.0735 -0.1083
  349loPI   PO4 5572  17.104   7.786  10.244  0.0458 -0.0682 -0.1969
  349loPI   GL1 5573  17.302   7.872   9.834  0.4330 -0.2623 -0.2519
  349loPI   GL2 5574  16.961   7.700   9.732  0.4821 -0.2341  0.2973
  349loPI   C1A 5575  17.345   8.105   9.378  0.1349 -0.0919  0.3456
  349loPI   C2A 5576  17.594   8.258   8.966  0.0152 -0.0632 -0.1729
  349loPI   C3A 5577  17.809   8.553   8.681  0.0892 -0.1507 -0.1105
  349loPI   C4A 5578  17.762   8.862   8.325  0.1508 -0.1436 -0.1045
  349loPI   C5A 5579  17.845   9.327   8.443 -0.0030 -0.0622  0.1349
  349loPI   C6A 5580  17.958   9.667   8.717 -0.2820  0.1689  0.0749
  349loPI   C1B 5581  16.834   7.936   9.472 -0.3428 -0.1078 -0.0877
  349loPI   C2B 5582  17.001   7.997   9.014 -0.1415  0.2641 -0.2349
  349loPI   C3B 5583  17.143   8.203   8.659 -0.2365  0.2461  0.0133
  349loPI   C4B 5584  17.309   8.592   8.433  0.2217 -0.3568 -0.2879
  350loPI    C1 5585  14.989   5.170  10.025  0.1328 -0.2206 -0.0477
  350loPI    C2 5586  14.873   5.132  10.406 -0.0857  0.3004 -0.0544
  350loPI    C3 5587  15.216   5.318  10.320  0.0816 -0.0243 -0.1058
  350loPI   PO4 5588  14.866   4.896   9.897  0.1262  0.2796 -0.1282
  350loPI   GL1 5589  14.787   4.632   9.555 -0.0241  0.2330  0.0983
  350loPI   GL2 5590  14.875   4.304   9.353  0.1336 -0.0515  0.0796
  350loPI   C1A 5591  14.650   4.675   9.146 -0.0761 -0.2584 -0.0098
  350loPI   C2A 5592  14.527   4.591   8.611  0.1280  0.1995 -0.2953
  350loPI   C3A 5593  14.525   4.586   8.156  0.0567  0.0251 -0.1702
  350loPI   C4A 5594  14.369   4.197   7.832  0.2800 -0.3820 -0.1272
  350loPI   C5A 5595  14.312   3.790   7.820  0.1095 -0.2285 -0.3273
  350loPI   C6A 5596  14.399   3.300   7.885 -0.2023 -0.0218 -0.2316
  350loPI   C1B 5597  14.971   4.346   8.930 -0.0557  0.0995 -0.3201
  350loPI   C2B 5598  14.971   4.306   8.537  0.3897 -0.2734  0.1645
  350loPI   C3B 5599  15.016   4.524   8.271 -0.1321 -0.0472  0.1452
  350loPI   C4B 5600  15.193   4.814   7.967  0.0216 -0.1486 -0.5274
  351loPI    C1 5601   5.152   4.915   9.971 -0.2555  0.1657  0.1604
  351loPI    C2 5602   5.432   5.133  10.155  0.0470 -0.0445 -0.0394
  351loPI    C3 5603   5.113   5.312   9.993 -0.0342  0.1790  0.3527
  351loPI   PO4 5604   5.384   4.696   9.842  0.2406  0.1293 -0.0124
  351loPI   GL1 5605   5.634   4.835   9.430  0.0759  0.0778 -0.2665
  351loPI   GL2 5606   5.487   5.129   9.599 -0.0923  0.1172 -0.0460
  351loPI   C1A 5607   5.723   4.617   9.131  0.0056 -0.1579  0.0799
  351loPI   C2A 5608   5.827   4.393   8.779  0.0085  0.3087  0.1214
  351loPI   C3A 5609   5.806   4.414   8.342 -0.2942 -0.1027  0.1477
  351loPI   C4A 5610   5.863   4.444   7.881  0.0216  0.0111 -0.1066
  351loPI   C5A 5611   5.556   4.680   7.634 -0.2642 -0.1034 -0.2391
  351loPI   C6A 5612   5.149   4.714   7.412  0.1129 -0.3309 -0.1123
  351loPI   C1B 5613   5.595   5.253   9.202  0.1304  0.1563  0.0810
  351loPI   C2B 5614   5.625   5.270   8.811 -0.0220  0.0538  0.3015
  351loPI   C3B 5615   5.756   5.411   8.503 -0.0252 -0.4113 -0.1594
  351loPI   C4B 5616   6.025   5.373   8.177  0.3189 -0.1337 -0.2356
  352loPI    C1 5617   2.406   8.635  10.365  0.1462  0.0531  0.0883
  352loPI    C2 5618   2.711   8.397  10.466  0.1992  0.0535 -0.0681
  352loPI    C3 5619   2.545   8.637  10.740  0.2114 -0.0889  0.0654
  352loPI   PO4 5620   2.551   8.776  10.126 -0.1669  0.1690 -0.0274
  352loPI   GL1 5621   2.480   8.997   9.743  0.2031  0.1695  0.3132
  352loPI   GL2 5622   2.648   8.777   9.631 -0.2198 -0.2673 -0.3111
  352loPI   C1A 5623   2.128   9.200   9.606  0.2172 -0.1048  0.2171
  352loPI   C2A 5624   2.161   9.438   9.146  0.0710  0.1399 -0.0461
  352loPI   C3A 5625   2.116   9.535   8.615 -0.1640 -0.2007 -0.0444
  352loPI   C4A 5626   2.243   9.370   8.168  0.1637 -0.1468  0.1162
  352loPI   C5A 5627   2.111   9.169   7.719  0.1299 -0.0646  0.1094
  352loPI   C6A 5628   1.775   9.229   7.395  0.3323  0.1931 -0.0378
  352loPI   C1B 5629   2.677   8.639   9.300  0.1789  0.1441  0.1759
  352loPI   C2B 5630   2.506   8.486   8.966  0.1455  0.0765 -0.3557
  352loPI   C3B 5631   2.053   8.573   8.852  0.1044 -0.1163  0.1369
  352loPI   C4B 5632   1.872   8.570   8.384 -0.1914  0.0633  0.0237
  353loPI    C1 5633   0.587   4.280  10.406  0.0729 -0.0606  0.0259
  353loPI    C2 5634   0.342   4.111  10.673  0.1603 -0.2695 -0.0242
  353loPI    C3 5635   0.627   4.363  10.796  0.0181 -0.1424  0.0492
  353loPI   PO4 5636   0.452   4.287  10.168 -0.0931 -0.2046 -0.0370
  353loPI   GL1 5637   0.479   4.328   9.741 -0.1554 -0.0188  0.0061
  353loPI   GL2 5638   0.256   4.073   9.538  0.0666  0.1252  0.1849
  353loPI   C1A 5639   0.563   4.503   9.389 -0.1538  0.0647  0.1427
  353loPI   C2A 5640   0.538   4.588   9.027  0.0492 -0.1695 -0.1762
  353loPI   C3A 5641   0.503   4.686   8.596 -0.0670 -0.3216  0.2911
  353loPI   C4A 5642   0.246   4.776   8.240 -0.2014 -0.1374  0.1520
  353loPI   C5A 5643  -0.001   4.925   7.931 -0.0877  0.0954 -0.0375
  353loPI   C6A 5644  -0.123   5.127   7.519  0.0038 -0.2330  0.2163
  353loPI   C1B 5645   0.505   4.067   9.140  0.3040  0.0515 -0.0334
  353loPI   C2B 5646   0.604   4.161   8.723 -0.0618  0.0299  0.1881
  353loPI   C3B 5647   0.844   4.040   8.331  0.0316  0.2550  0.1244
  353loPI   C4B 5648   0.554   3.937   7.994  0.0889  0.0735  0.0168
  354loPI    C1 5649  17.188   0.346  10.361  0.1754 -0.1055 -0.0922
  354loPI    C2 5650  17.339   0.542  10.675 -0.0391 -0.0623 -0.0140
  354loPI    C3 5651  17.563   0.275  10.479  0.1280 -0.0191  0.1157
  354loPI   PO4 5652  17.061   0.535  10.068  0.1025 -0.1068 -0.0499
  354loPI   GL1 5653  16.968   0.397   9.653  0.0788  0.1330  0.2215
  354loPI   GL2 5654  16.909   0.126   9.820  0.2993  0.3421 -0.0057
  354loPI   C1A 5655  17.158   0.270   9.243 -0.2413  0.3932  0.4485
  354loPI   C2A 5656  17.215   0.118   8.870 -0.0572 -0.1880  0.0098
  354loPI   C3A 5657  17.454   0.190   8.545 -0.3018  0.1216  0.0847
  354loPI   C4A 5658  17.596  -0.047   8.163 -0.2017 -0.2881  0.2636
  354loPI   C5A 5659  18.011   0.021   8.008  0.3144 -0.0478 -0.1760
  354loPI   C6A 5660  18.458  -0.081   8.218  0.2333  0.0475 -0.0875
  354loPI   C1B 5661  16.720  -0.219   9.521  0.2565  0.1130 -0.1181
  354loPI   C2B 5662  16.799  -0.130   9.073  0.2571 -0.0035  0.1798
  354loPI   C3B 5663  16.752   0.004   8.719  0.1606 -0.0133  0.1403
  354loPI   C4B 5664  16.723   0.198   8.353 -0.0301 -0.0909  0.2155
  355loPI    C1 5665  16.470   2.160  10.039  0.1167 -0.1995 -0.1375
  355loPI    C2 5666  16.600   1.843  10.247 -0.1621 -0.0544  0.2692
  355loPI    C3 5667  16.744   2.208  10.328 -0.2039 -0.0093  0.1419
  355loPI   PO4 5668  16.500   2.002   9.788 -0.0692 -0.0546  0.2091
  355loPI   GL1 5669  16.325   1.699   9.522 -0.1071  0.0562 -0.1640
  355loPI   GL2 5670  16.063   1.966   9.595 -0.1795 -0.0304  0.1759
  355loPI   C1A 5671  16.667   1.404   9.340 -0.2603  0.0253 -0.2571
  355loPI   C2A 5672  16.913   1.128   9.147 -0.3417 -0.0495 -0.1633
  355loPI   C3A 5673  16.908   0.847   8.748  0.0795  0.1457  0.1498
  355loPI   C4A 5674  16.724   0.934   8.408 -0.0623  0.0055  0.1547
  355loPI   C5A 5675  16.354   1.011   8.213 -0.1031 -0.0747  0.1938
  355loPI   C6A 5676  16.187   0.991   7.829  0.2091 -0.1652  0.2398
  355loPI   C1B 5677  16.114   2.064   9.133  0.2173  0.3507 -0.0152
  355loPI   C2B 5678  16.096   1.932   8.662 -0.1768 -0.0099 -0.0559
  355loPI   C3B 5679  15.948   1.898   8.188  0.1003  0.1034  0.0690
  355loPI   C4B 5680  16.073   1.943   7.714  0.1115  0.1028 -0.1799
  356loPI    C1 5681   5.497   2.600  10.752  0.1101  0.0159  0.2230
  356loPI    C2 5682   5.369   2.250  10.896  0.0054 -0.0813 -0.0979
  356loPI    C3 5683   5.156   2.582  10.961 -0.1470 -0.1580 -0.1974
  356loPI   PO4 5684   5.591   2.463  10.447 -0.1573  0.0821  0.0194
  356loPI   GL1 5685   5.668   2.515  10.021 -0.1107  0.0229 -0.0432
  356loPI   GL2 5686   5.468   2.761   9.884  0.1733 -0.2275  0.2668
  356loPI   C1A 5687   5.700   2.425   9.570 -0.0804 -0.2804  0.0196
  356loPI   C2A 5688   5.574   2.355   9.206 -0.1703 -0.1672 -0.0433
  356loPI   C3A 5689   5.552   2.418   8.760  0.4243 -0.2295 -0.1003
  356loPI   C4A 5690   5.520   2.263   8.317  0.4208  0.2103  0.0175
  356loPI   C5A 5691   5.764   2.237   8.006 -0.4390 -0.0852 -0.0054
  356loPI   C6A 5692   5.968   2.449   7.821 -0.0476 -0.0104 -0.3019
  356loPI   C1B 5693   5.546   2.911   9.444 -0.1762 -0.1350 -0.1022
  356loPI   C2B 5694   5.485   2.869   9.018  0.2228  0.1907 -0.4055
  356loPI   C3B 5695   5.650   2.908   8.599  0.1511 -0.0530 -0.1843
  356loPI   C4B 5696   5.865   2.658   8.373  0.1438 -0.0250  0.0124
  357loPI    C1 5697   7.772   8.716  10.179 -0.0630  0.0321 -0.0200
  357loPI    C2 5698   8.171   8.714  10.148 -0.0451  0.0014  0.1968
  357loPI    C3 5699   7.994   8.911  10.449 -0.1902 -0.0491  0.1457
  357loPI   PO4 5700   7.714   8.705   9.878  0.0056  0.1935 -0.1744
  357loPI   GL1 5701   7.813   8.953   9.572  0.1314 -0.1069 -0.1085
  357loPI   GL2 5702   8.167   8.954   9.630 -0.0341  0.1740 -0.1419
  357loPI   C1A 5703   7.899   8.956   9.149 -0.4931 -0.1305  0.0482
  357loPI   C2A 5704   7.737   9.099   8.724  0.3531  0.2517  0.0337
  357loPI   C3A 5705   7.681   9.191   8.233  0.2270 -0.1775 -0.1539
  357loPI   C4A 5706   7.827   9.139   7.845 -0.1199 -0.0197  0.1639
  357loPI   C5A 5707   8.240   9.166   7.663 -0.0469 -0.3502  0.0625
  357loPI   C6A 5708   8.339   9.606   7.503  0.0602 -0.1074  0.0795
  357loPI   C1B 5709   8.252   8.574   9.233  0.3006  0.0040 -0.3979
  357loPI   C2B 5710   8.162   8.597   8.852  0.1018 -0.1243 -0.0109
  357loPI   C3B 5711   7.916   8.729   8.481 -0.0922 -0.0988  0.1062
  357loPI   C4B 5712   7.703   8.664   8.159 -0.0130  0.0285  0.2622
  358loPI    C1 5713   1.432   7.769  10.254 -0.1692  0.0971  0.0404
  358loPI    C2 5714   1.253   7.481  10.466  0.0197 -0.1094 -0.0768
  358loPI    C3 5715   1.408   7.799  10.652  0.0119 -0.1943  0.0765
  358loPI   PO4 5716   1.302   7.775  10.011  0.1223 -0.2973 -0.1024
  358loPI   GL1 5717   1.207   7.655   9.688  0.0349  0.2755 -0.2255
  358loPI   GL2 5718   1.160   7.387   9.490  0.0512 -0.1849  0.2303
  358loPI   C1A 5719   1.075   7.974   9.342 -0.0295  0.0829 -0.1614
  358loPI   C2A 5720   1.114   8.046   8.929 -0.2154 -0.1587  0.2101
  358loPI   C3A 5721   0.883   8.217   8.650  0.0451  0.0791  0.1053
  358loPI   C4A 5722   0.700   8.235   8.287 -0.1076 -0.2762  0.0377
  358loPI   C5A 5723   0.308   8.248   8.243  0.0975  0.0420  0.2419
  358loPI   C6A 5724  -0.087   8.124   8.221 -0.2759 -0.1674  0.4106
  358loPI   C1B 5725   0.973   7.514   9.133 -0.1473 -0.1465  0.1264
  358loPI   C2B 5726   0.900   7.715   8.668  0.1862  0.1264  0.2190
  358loPI   C3B 5727   0.840   7.743   8.173  0.2736  0.1736 -0.3285
  358loPI   C4B 5728   1.042   7.602   7.879 -0.1675  0.0258 -0.1051
  359loPI    C1 5729  17.126  14.106  10.572  0.0030 -0.1667  0.0440
  359loPI    C2 5730  16.914  14.342  10.816  0.1649  0.0587 -0.0299
  359loPI    C3 5731  16.943  13.950  10.892  0.3240  0.1468  0.3902
  359loPI   PO4 5732  17.058  14.129  10.362 -0.1320 -0.2336  0.0869
  359loPI   GL1 5733  16.939  14.272  10.054 -0.1822 -0.0425  0.0831
  359loPI   GL2 5734  16.821  14.458   9.869 -0.3611  0.0429 -0.0237
  359loPI   C1A 5735  16.914  13.941   9.711 -0.4277  0.0148  0.1965
  359loPI   C2A 5736  16.791  13.727   9.346  0.0802  0.0053  0.0515
  359loPI   C3A 5737  16.697  13.521   8.944 -0.2201  0.0262  0.1404
  359loPI   C4A 5738  16.762  13.233   8.664 -0.1192  0.0653  0.4699
  359loPI   C5A 5739  16.913  13.008   8.344  0.1638 -0.0869  0.3042
  359loPI   C6A 5740  17.040  12.593   8.289 -0.0903 -0.1906  0.0513
  359loPI   C1B 5741  16.793  14.357   9.358 -0.2324  0.1314  0.0860
  359loPI   C2B 5742  16.777  14.470   8.992 -0.1897  0.1327  0.1271
  359loPI   C3B 5743  16.693  14.199   8.622  0.0272  0.0472 -0.0742
  359loPI   C4B 5744  16.853  14.133   8.209 -0.1276 -0.1985 -0.0768
  360loPI    C1 5745   9.844   4.751  10.397 -0.1181  0.0511  0.0545
  360loPI    C2 5746  10.175   4.853  10.597 -0.0892  0.1917 -0.0637
  360loPI    C3 5747   9.829   5.038  10.676 -0.1326  0.0695  0.0348
  360loPI   PO4 5748   9.906   4.676  10.106  0.0735  0.0972 -0.1166
  360loPI   GL1 5749  10.105   4.591   9.860 -0.1982  0.1208  0.1092
  360loPI   GL2 5750   9.900   4.900   9.662 -0.1902  0.0634  0.1589
  360loPI   C1A 5751  10.061   4.260   9.499  0.1099  0.0017  0.0914
  360loPI   C2A 5752  10.109   4.141   9.085  0.1844 -0.3448  0.1470
  360loPI   C3A 5753  10.109   3.978   8.626  0.0406  0.0919  0.2811
  360loPI   C4A 5754  10.130   4.024   8.137 -0.0159 -0.1732 -0.2779
  360loPI   C5A 5755  10.212   3.745   7.821  0.1770  0.0024 -0.1572
  360loPI   C6A 5756  10.086   3.474   7.431 -0.2743 -0.1279 -0.2062
  360loPI   C1B 5757   9.968   4.727   9.264 -0.0269 -0.1350 -0.0086
  360loPI   C2B 5758   9.999   4.612   8.868 -0.3219 -0.0070 -0.0937
  360loPI   C3B 5759  10.036   4.468   8.424 -0.1355 -0.0325 -0.0804
  360loPI   C4B 5760  10.104   4.561   7.996  0.0823  0.0487  0.0663
  361loPI    C1 5761  15.669   2.499  10.047 -0.1900 -0.1062 -0.1007
  361loPI    C2 5762  16.040   2.505  10.195 -0.1565  0.0262 -0.1874
  361loPI    C3 5763  15.894   2.169  10.035 -0.0368  0.0017 -0.2464
  361loPI   PO4 5764  15.682   2.764   9.889 -0.0336 -0.0803 -0.1733
  361loPI   GL1 5765  15.925   2.860   9.501 -0.2765 -0.0226  0.2442
  361loPI   GL2 5766  15.921   2.457   9.493 -0.2199 -0.1647  0.0839
  361loPI   C1A 5767  15.896   3.194   9.053 -0.2138 -0.1747 -0.0460
  361loPI   C2A 5768  16.128   3.363   8.594  0.2995  0.0061  0.1791
  361loPI   C3A 5769  16.476   3.314   8.284  0.0865  0.1422 -0.2398
  361loPI   C4A 5770  16.674   3.328   7.925  0.2546 -0.2623  0.1109
  361loPI   C5A 5771  16.929   3.450   7.514 -0.0133  0.1858 -0.0065
  361loPI   C6A 5772  17.437   3.477   7.582  0.0375 -0.1128  0.0561
  361loPI   C1B 5773  15.925   2.516   9.095 -0.2263 -0.1597 -0.1561
  361loPI   C2B 5774  16.094   2.815   8.764 -0.0814  0.0684 -0.1341
  361loPI   C3B 5775  15.950   2.969   8.360  0.0418 -0.0391  0.1856
  361loPI   C4B 5776  15.953   3.336   8.083  0.0676 -0.1310 -0.0004
  362loPI    C1 5777   6.784  12.232   9.937 -0.2682 -0.0746 -0.2555
  362loPI    C2 5778   6.873  12.249   9.547  0.1029 -0.2129 -0.1811
  362loPI    C3 5779   6.687  11.928   9.695 -0.1074 -0.1272 -0.2552
  362loPI   PO4 5780   6.870  12.541   9.994 -0.2013 -0.1302 -0.0886
  362loPI   GL1 5781   6.700  12.811   9.671  0.0555 -0.1793 -0.1158
  362loPI   GL2 5782   6.466  12.537   9.577 -0.3171  0.1296 -0.1304
  362loPI   C1A 5783   6.615  12.951   9.196  0.0639 -0.1183 -0.0624
  362loPI   C2A 5784   6.394  13.122   8.810  0.1667 -0.1295 -0.1238
  362loPI   C3A 5785   6.469  13.139   8.437  0.0985  0.1009 -0.4015
  362loPI   C4A 5786   6.573  13.524   8.175 -0.2778  0.1724  0.1165
  362loPI   C5A 5787   6.810  13.836   7.970  0.4541  0.1271 -0.1187
  362loPI   C6A 5788   7.083  14.016   7.766 -0.2460  0.0362  0.1723
  362loPI   C1B 5789   6.475  12.386   9.171  0.0074 -0.1798 -0.0283
  362loPI   C2B 5790   6.553  12.639   8.695 -0.0688 -0.1872 -0.1993
  362loPI   C3B 5791   6.335  12.652   8.263 -0.1959 -0.0043  0.1962
  362loPI   C4B 5792   6.052  12.628   7.926  0.0427 -0.0575  0.0188
  363loPI    C1 5793   9.573   7.557  10.407 -0.1230 -0.1368  0.0130
  363loPI    C2 5794   9.900   7.391  10.567 -0.0299 -0.0497 -0.0852
  363loPI    C3 5795   9.561   7.410  10.779 -0.0229 -0.3033 -0.0485
  363loPI   PO4 5796   9.598   7.808  10.248 -0.1461 -0.0845  0.1868
  363loPI   GL1 5797   9.349   7.776   9.788 -0.2790 -0.1008  0.1943
  363loPI   GL2 5798   9.711   7.750   9.676 -0.1088 -0.1527  0.1575
  363loPI   C1A 5799   9.279   7.733   9.413  0.0001  0.1122 -0.0752
  363loPI   C2A 5800   9.455   7.572   9.088 -0.2277 -0.1004  0.0114
  363loPI   C3A 5801   9.646   7.698   8.691 -0.1173  0.2206 -0.1092
  363loPI   C4A 5802   9.752   7.802   8.337  0.1719  0.2464 -0.0311
  363loPI   C5A 5803   9.659   7.838   7.937 -0.0680  0.1027 -0.2177
  363loPI   C6A 5804   9.688   7.750   7.548  0.1686  0.4066  0.2077
  363loPI   C1B 5805   9.906   7.681   9.290 -0.2071  0.3199  0.0760
  363loPI   C2B 5806  10.000   7.395   8.959 -0.4307 -0.1005  0.1446
  363loPI   C3B 5807  10.107   7.334   8.535 -0.1578  0.0874  0.1357
  363loPI   C4B 5808  10.230   7.537   8.217 -0.0011 -0.0982  0.0020
  364loPI    C1 5809   8.133   5.724   9.599  0.0286 -0.0265 -0.1065
  364loPI    C2 5810   8.385   6.016   9.492 -0.0486  0.0942  0.0382
  364loPI    C3 5811   8.382   5.883   9.869 -0.0117 -0.0966 -0.0277
  364loPI   PO4 5812   7.919   5.744   9.558 -0.0960  0.3031  0.1132
  364loPI   GL1 5813   7.680   5.575   9.348  0.0650  0.0977  0.1307
  364loPI   GL2 5814   7.458   5.757   9.328 -0.0686  0.3641  0.3566
  364loPI   C1A 5815   7.684   5.496   8.968 -0.0508 -0.0055  0.1282
  364loPI   C2A 5816   7.804   5.735   8.594  0.3030 -0.1713  0.1570
  364loPI   C3A 5817   7.562   5.760   8.208 -0.0285  0.4149  0.1409
  364loPI   C4A 5818   7.369   5.621   7.719  0.1716 -0.3439  0.0646
  364loPI   C5A 5819   7.103   5.956   7.425  0.0753 -0.1330 -0.2203
  364loPI   C6A 5820   7.095   6.427   7.317 -0.0535  0.2668  0.1393
  364loPI   C1B 5821   7.485   5.946   8.946  0.2705  0.1595  0.0157
  364loPI   C2B 5822   7.384   6.050   8.614 -0.0419 -0.0838  0.0665
  364loPI   C3B 5823   7.127   5.831   8.364 -0.0414  0.0149  0.0284
  364loPI   C4B 5824   6.876   5.580   7.975 -0.5213  0.1530  0.1404
  365loPI    C1 5825   2.060   7.679  10.229  0.4133  0.0789  0.0145
  365loPI    C2 5826   1.942   7.704  10.610  0.0629  0.0458 -0.0888
  365loPI    C3 5827   2.111   7.368  10.475  0.1480  0.0420  0.0259
  365loPI   PO4 5828   1.893   7.894  10.159 -0.1076  0.1080 -0.0120
  365loPI   GL1 5829   1.766   8.102   9.813  0.0831  0.1987  0.2484
  365loPI   GL2 5830   1.746   8.414   9.722  0.1602 -0.0321 -0.3959
  365loPI   C1A 5831   1.654   7.984   9.439  0.1407 -0.1858  0.0072
  365loPI   C2A 5832   1.517   7.703   9.175 -0.0407  0.1982  0.1503
  365loPI   C3A 5833   1.336   7.621   8.788  0.0610 -0.0251  0.2784
  365loPI   C4A 5834   1.304   7.522   8.383 -0.3082  0.2334 -0.1250
  365loPI   C5A 5835   1.527   7.413   8.023 -0.1634 -0.1248  0.1074
  365loPI   C6A 5836   1.415   7.352   7.538  0.1957 -0.1728  0.0844
  365loPI   C1B 5837   1.777   8.849   9.340 -0.2873 -0.3649 -0.0943
  365loPI   C2B 5838   1.863   9.022   8.871  0.0999  0.0670  0.0531
  365loPI   C3B 5839   1.973   9.077   8.496 -0.1142 -0.1761 -0.3204
  365loPI   C4B 5840   1.993   8.966   8.132 -0.2496 -0.0607  0.1438
  366loPI    C1 5841  16.406   7.673  10.438  0.1830 -0.0067 -0.0213
  366loPI    C2 5842  16.749   7.573  10.618  0.2904  0.1172 -0.1546
  366loPI    C3 5843  16.471   7.779  10.818  0.2311 -0.1099 -0.0003
  366loPI   PO4 5844  16.340   7.803  10.183  0.1938  0.0594 -0.2368
  366loPI   GL1 5845  16.329   7.733   9.737 -0.0173  0.4275 -0.4116
  366loPI   GL2 5846  16.197   8.018   9.751 -0.2523 -0.2099  0.0402
  366loPI   C1A 5847  16.363   7.865   9.315  0.0769  0.1391  0.0744
  366loPI   C2A 5848  16.510   7.967   9.027  0.2108 -0.0404 -0.2105
  366loPI   C3A 5849  16.650   8.183   8.663 -0.1011  0.1121 -0.0597
  366loPI   C4A 5850  16.845   8.472   8.262  0.2164  0.3858 -0.0248
  366loPI   C5A 5851  16.719   8.808   8.163 -0.0653  0.0601 -0.0194
  366loPI   C6A 5852  16.439   8.965   7.836 -0.0380  0.1038  0.0352
  366loPI   C1B 5853  16.305   8.330   9.397  0.0770  0.1025 -0.0596
  366loPI   C2B 5854  16.396   8.481   8.910 -0.1246 -0.1182  0.0559
  366loPI   C3B 5855  16.529   8.670   8.645  0.1875  0.1663 -0.0145
  366loPI   C4B 5856  16.878   8.788   8.662 -0.1802 -0.0489  0.0122
  367loPI    C1 5857  15.120   5.825  10.369  0.1896  0.2803 -0.1095
  367loPI    C2 5858  15.414   5.737  10.626 -0.0148 -0.0721  0.0120
  367loPI    C3 5859  15.178   6.053  10.693  0.0175 -0.0840  0.1868
  367loPI   PO4 5860  15.129   5.793  10.130  0.2231 -0.2223 -0.1421
  367loPI   GL1 5861  15.234   5.620   9.856 -0.0017  0.2597  0.0479
  367loPI   GL2 5862  15.035   5.796   9.599 -0.0781 -0.1203 -0.0830
  367loPI   C1A 5863  15.148   5.333   9.483  0.1359  0.0499  0.4353
  367loPI   C2A 5864  15.056   5.377   9.036  0.1739 -0.0070 -0.1415
  367loPI   C3A 5865  15.264   5.334   8.642 -0.3419  0.1134 -0.1657
  367loPI   C4A 5866  15.510   5.336   8.256 -0.3483 -0.1194 -0.1072
  367loPI   C5A 5867  15.616   5.127   7.908  0.2140  0.1278  0.0186
  367loPI   C6A 5868  15.562   4.905   7.529  0.1562  0.2688 -0.0339
  367loPI   C1B 5869  15.028   5.918   9.203  0.3111 -0.1044 -0.1680
  367loPI   C2B 5870  14.923   5.824   8.693 -0.0644 -0.0725 -0.0519
  367loPI   C3B 5871  14.954   5.551   8.327  0.0255  0.3812 -0.1321
  367loPI   C4B 5872  15.028   5.289   8.052 -0.3320 -0.2895  0.1376
  368loPI    C1 5873   5.311   7.756  10.061 -0.1882 -0.2646 -0.2317
  368loPI    C2 5874   5.230   7.397  10.218 -0.0487 -0.1787  0.0440
  368loPI    C3 5875   5.369   7.690  10.451 -0.1038  0.0381 -0.1908
  368loPI   PO4 5876   5.046   7.723   9.875 -0.2273  0.0136 -0.1774
  368loPI   GL1 5877   4.838   7.538   9.518  0.1210 -0.1853 -0.0526
  368loPI   GL2 5878   4.563   7.707   9.583 -0.3312  0.3571  0.0859
  368loPI   C1A 5879   5.188   7.448   9.208 -0.1541  0.0417 -0.1958
  368loPI   C2A 5880   5.020   7.490   8.766 -0.0269  0.1258  0.1437
  368loPI   C3A 5881   5.008   7.546   8.428  0.1858 -0.3359  0.0213
  368loPI   C4A 5882   4.787   7.463   8.033  0.2252  0.1954  0.0609
  368loPI   C5A 5883   4.751   7.231   7.628 -0.1501 -0.1284  0.1855
  368loPI   C6A 5884   4.943   6.772   7.416 -0.0900 -0.1518  0.3266
  368loPI   C1B 5885   4.317   7.768   9.184  0.1002 -0.2034  0.1066
  368loPI   C2B 5886   4.170   7.985   8.835  0.2447 -0.1592  0.2836
  368loPI   C3B 5887   3.971   7.931   8.457  0.0631 -0.0606  0.0821
  368loPI   C4B 5888   4.036   7.547   8.064  0.3811  0.1150 -0.2926
  369loPI    C1 5889   5.925  12.641  10.219  0.0043  0.0050  0.3779
  369loPI    C2 5890   5.557  12.661  10.372 -0.2039 -0.0015 -0.1046
  369loPI    C3 5891   5.853  12.875  10.534 -0.4799  0.2188  0.1185
  369loPI   PO4 5892   5.884  12.339  10.150 -0.1556 -0.2142  0.0811
  369loPI   GL1 5893   5.668  12.206   9.727  0.0502  0.1270 -0.0412
  369loPI   GL2 5894   5.419  12.326   9.537 -0.4322 -0.2694 -0.0828
  369loPI   C1A 5895   5.918  12.024   9.406 -0.0388 -0.2584 -0.2013
  369loPI   C2A 5896   5.992  12.038   9.005  0.1034 -0.0316 -0.3538
  369loPI   C3A 5897   5.891  11.888   8.568 -0.2626 -0.0909  0.0322
  369loPI   C4A 5898   5.794  11.585   8.248 -0.2877  0.1466  0.1263
  369loPI   C5A 5899   5.566  11.569   7.874  0.0433  0.0933 -0.2905
  369loPI   C6A 5900   5.723  11.376   7.525 -0.1554 -0.0287 -0.0874
  369loPI   C1B 5901   5.592  12.286   9.158  0.2449  0.1993 -0.1946
  369loPI   C2B 5902   5.582  12.255   8.744  0.0576  0.1133 -0.0307
  369loPI   C3B 5903   5.441  12.014   8.456  0.0378 -0.3151 -0.3143
  369loPI   C4B 5904   5.199  12.028   7.985  0.1447  0.0731 -0.0208
  370loPI    C1 5905   1.681   8.706  10.462 -0.0184 -0.1307 -0.0680
  370loPI    C2 5906   1.988   8.954  10.529  0.0882 -0.3075  0.1070
  370loPI    C3 5907   1.991   8.585  10.684 -0.1930 -0.3262  0.0726
  370loPI   PO4 5908   1.617   8.724  10.120 -0.1238  0.0988 -0.2039
  370loPI   GL1 5909   1.222   8.696   9.924  0.2067  0.2455  0.1509
  370loPI   GL2 5910   1.360   8.806   9.620  0.0023 -0.2096 -0.0644
  370loPI   C1A 5911   0.839   8.837   9.554 -0.0285  0.2325 -0.0710
  370loPI   C2A 5912   0.699   8.958   9.116  0.0293  0.1705  0.1370
  370loPI   C3A 5913   0.707   9.293   8.813  0.0797 -0.0493  0.2529
  370loPI   C4A 5914   0.747   9.575   8.440  0.1405 -0.0547  0.0967
  370loPI   C5A 5915   0.435   9.910   8.203 -0.1580 -0.1324  0.0577
  370loPI   C6A 5916   0.383  10.341   8.076 -0.3169  0.0489 -0.1522
  370loPI   C1B 5917   1.254   8.969   9.203  0.0510 -0.0571  0.3009
  370loPI   C2B 5918   1.363   9.092   8.808  0.0020 -0.0130 -0.2058
  370loPI   C3B 5919   1.245   9.310   8.551  0.0365 -0.0702  0.2290
  370loPI   C4B 5920   1.240   9.469   8.183  0.0037 -0.0202 -0.0501
  371loPI    C1 5921   6.973  15.491  10.658 -0.0529 -0.0503 -0.0301
  371loPI    C2 5922   7.047  15.231  10.364  0.2467  0.0732 -0.0677
  371loPI    C3 5923   7.236  15.194  10.714 -0.1779 -0.1293  0.1477
  371loPI   PO4 5924   7.025  15.793  10.581 -0.1876 -0.0863 -0.2003
  371loPI   GL1 5925   7.235  15.905  10.224  0.0410 -0.1965  0.1822
  371loPI   GL2 5926   6.940  15.633  10.121 -0.2006  0.3114  0.3189
  371loPI   C1A 5927   7.368  15.738   9.765 -0.0854 -0.2699 -0.0119
  371loPI   C2A 5928   7.539  15.688   9.426  0.3621 -0.3081  0.2154
  371loPI   C3A 5929   7.503  15.720   9.104 -0.1037  0.0016  0.0898
  371loPI   C4A 5930   7.695  15.539   8.729 -0.1493 -0.0523 -0.0368
  371loPI   C5A 5931   7.697  15.626   8.329  0.0645  0.0344 -0.1717
  371loPI   C6A 5932   7.903  15.827   8.043  0.0009 -0.1314 -0.1827
  371loPI   C1B 5933   7.087  15.313   9.879  0.0156 -0.0699 -0.0550
  371loPI   C2B 5934   7.077  15.463   9.505 -0.2556 -0.1308  0.1832
  371loPI   C3B 5935   7.162  15.408   9.101 -0.2193 -0.1618  0.1925
  371loPI   C4B 5936   7.323  15.205   8.722 -0.2644 -0.0832  0.2311
  372loPI    C1 5937  11.420   3.644  10.729 -0.2269 -0.1863  0.0611
  372loPI    C2 5938  11.703   3.446  10.931 -0.0609 -0.1862 -0.1677
  372loPI    C3 5939  11.737   3.841  10.874 -0.4093 -0.0759  0.3191
  372loPI   PO4 5940  11.326   3.446  10.584  0.1051  0.0801  0.2239
  372loPI   GL1 5941  11.269   3.291  10.168 -0.0845 -0.3139  0.2473
  372loPI   GL2 5942  11.569   3.390  10.086 -0.0282  0.0851  0.1448
  372loPI   C1A 5943  11.232   3.472   9.671 -0.2388  0.0432  0.1754
  372loPI   C2A 5944  11.404   3.320   9.247 -0.0130  0.0096 -0.0796
  372loPI   C3A 5945  11.297   3.375   8.800 -0.0526 -0.0638  0.0004
  372loPI   C4A 5946  11.395   3.234   8.409 -0.2171 -0.2034 -0.2229
  372loPI   C5A 5947  11.527   3.138   8.048 -0.2122  0.1295 -0.2723
  372loPI   C6A 5948  11.670   2.949   7.650  0.1432 -0.0695  0.0699
  372loPI   C1B 5949  11.736   3.255   9.637  0.1754  0.0922 -0.1269
  372loPI   C2B 5950  11.824   3.114   9.145 -0.3995 -0.0801  0.1107
  372loPI   C3B 5951  11.831   2.980   8.768  0.0048  0.0183 -0.1269
  372loPI   C4B 5952  11.991   3.175   8.459 -0.1891 -0.3894 -0.1978
  373loPI    C1 5953   7.137   4.932  10.003  0.0985 -0.2346  0.0444
  373loPI    C2 5954   7.303   4.760  10.324  0.0047 -0.1535  0.1372
  373loPI    C3 5955   7.150   5.129  10.350  0.1927 -0.0591 -0.0575
  373loPI   PO4 5956   7.242   4.914   9.832 -0.1759  0.0748  0.1934
  373loPI   GL1 5957   7.511   4.958   9.432 -0.0763  0.2818 -0.2143
  373loPI   GL2 5958   7.831   4.960   9.369  0.0811 -0.2943  0.0630
  373loPI   C1A 5959   7.396   5.036   9.012 -0.2090 -0.0238  0.2923
  373loPI   C2A 5960   7.201   4.897   8.533  0.0294  0.1678 -0.0076
  373loPI   C3A 5961   7.216   4.735   8.089 -0.0580  0.1060 -0.5313
  373loPI   C4A 5962   7.180   4.412   7.748  0.1127 -0.0389 -0.1068
  373loPI   C5A 5963   7.256   3.960   7.759  0.1077  0.1394 -0.2791
  373loPI   C6A 5964   7.397   3.586   7.570  0.0859 -0.1078 -0.4669
  373loPI   C1B 5965   7.972   5.065   8.994 -0.0518 -0.0017  0.2311
  373loPI   C2B 5966   8.048   5.049   8.593 -0.0475 -0.0504  0.2903
  373loPI   C3B 5967   7.828   5.328   8.333 -0.1124 -0.1631 -0.4265
  373loPI   C4B 5968   7.815   5.476   7.929  0.0287  0.3362  0.1196
  374loPI    C1 5969   3.839   1.814  10.621  0.1504 -0.2713 -0.0969
  374loPI    C2 5970   4.083   1.916  10.321  0.3124 -0.0100  0.1188
  374loPI    C3 5971   4.043   2.158  10.637 -0.0274 -0.1761  0.2074
  374loPI   PO4 5972   3.621   1.644  10.355  0.0555 -0.3909  0.1158
  374loPI   GL1 5973   3.692   1.838   9.925 -0.0511  0.1739  0.0550
  374loPI   GL2 5974   3.959   1.531   9.968  0.0832 -0.4019 -0.0583
  374loPI   C1A 5975   3.411   1.744   9.557 -0.1140  0.1293  0.0569
  374loPI   C2A 5976   3.337   1.507   9.086 -0.1897  0.2093 -0.0066
  374loPI   C3A 5977   3.391   1.623   8.652 -0.2469  0.3247 -0.1001
  374loPI   C4A 5978   3.468   1.703   8.281  0.1019 -0.2324 -0.0760
  374loPI   C5A 5979   3.273   1.729   7.928 -0.1841  0.1251 -0.0721
  374loPI   C6A 5980   2.971   1.726   7.704  0.3771 -0.1004 -0.2727
  374loPI   C1B 5981   4.027   1.510   9.641  0.1985  0.4088  0.1719
  374loPI   C2B 5982   3.814   1.368   9.338  0.0491 -0.0115  0.2291
  374loPI   C3B 5983   3.850   1.303   8.869  0.1388  0.0524  0.2005
  374loPI   C4B 5984   3.774   1.367   8.479 -0.0440  0.0192  0.2930
  375loPI    C1 5985  12.613   7.097   9.991 -0.2369 -0.0669  0.0309
  375loPI    C2 5986  12.836   7.052  10.320 -0.1193  0.0528 -0.0316
  375loPI    C3 5987  12.448   6.957  10.327 -0.0646 -0.1680  0.0748
  375loPI   PO4 5988  12.712   7.239   9.873 -0.0209 -0.2128 -0.0512
  375loPI   GL1 5989  13.027   7.237   9.513 -0.0953 -0.0832  0.1493
  375loPI   GL2 5990  12.920   7.588   9.540 -0.1844  0.1868 -0.3731
  375loPI   C1A 5991  12.946   7.333   9.099 -0.2102 -0.0497 -0.2236
  375loPI   C2A 5992  12.764   7.113   8.754  0.1075 -0.1032 -0.3879
  375loPI   C3A 5993  12.843   7.101   8.305 -0.1888 -0.2025  0.1043
  375loPI   C4A 5994  13.120   7.176   8.001  0.2264 -0.1538 -0.0034
  375loPI   C5A 5995  13.293   7.473   7.662 -0.0431 -0.0678  0.1435
  375loPI   C6A 5996  13.372   7.619   7.285 -0.1230 -0.4280  0.1962
  375loPI   C1B 5997  13.220   7.714   9.301 -0.1159  0.0108  0.1335
  375loPI   C2B 5998  13.425   7.707   8.975 -0.0684 -0.0597  0.1421
  375loPI   C3B 5999  13.742   7.559   8.865  0.3050  0.0654 -0.0651
  375loPI   C4B 6000  13.734   7.443   8.499  0.0636 -0.1280  0.4033
  376loPI    C1 6001  16.941   5.806  10.364 -0.0956  0.1823 -0.3792
  376loPI    C2 6002  17.080   6.175  10.433  0.0669  0.0787 -0.1391
  376loPI    C3 6003  17.286   5.857  10.560 -0.1230 -0.0931 -0.2558
  376loPI   PO4 6004  17.005   5.831  10.115 -0.0304  0.0495  0.0897
  376loPI   GL1 6005  16.981   5.778   9.686 -0.3405  0.2881 -0.0852
  376loPI   GL2 6006  16.771   6.000   9.607  0.1221 -0.0141 -0.0525
  376loPI   C1A 6007  17.127   5.746   9.262  0.1178  0.1599 -0.0572
  376loPI   C2A 6008  17.196   5.621   8.928 -0.1797  0.2442 -0.3405
  376loPI   C3A 6009  17.052   5.380   8.676 -0.0773  0.2438  0.0006
  376loPI   C4A 6010  16.870   4.884   8.458  0.0012 -0.0215  0.1878
  376loPI   C5A 6011  16.997   4.798   8.045  0.2405 -0.1212 -0.0066
  376loPI   C6A 6012  16.989   4.878   7.586  0.3139 -0.3073 -0.1435
  376loPI   C1B 6013  16.641   5.933   9.213 -0.3353  0.0870  0.1161
  376loPI   C2B 6014  16.748   5.896   8.832  0.0889 -0.0451  0.0357
  376loPI   C3B 6015  17.007   5.912   8.469 -0.0024  0.3568  0.1351
  376loPI   C4B 6016  16.745   5.755   8.069 -0.1900  0.0012 -0.2556
  377loPI    C1 6017   6.202   4.531  10.132 -0.1882  0.0867  0.2280
  377loPI    C2 6018   6.482   4.305  10.307  0.1188  0.4003  0.1521
  377loPI    C3 6019   6.286   4.581  10.520 -0.0499  0.2629  0.1768
  377loPI   PO4 6020   6.318   4.543   9.884 -0.0018 -0.0101  0.1838
  377loPI   GL1 6021   6.195   4.749   9.502  0.4006 -0.0782  0.0251
  377loPI   GL2 6022   6.474   4.513   9.404  0.0256 -0.1094  0.0527
  377loPI   C1A 6023   6.033   4.983   9.128  0.0788  0.1481 -0.1805
  377loPI   C2A 6024   5.935   4.902   8.788 -0.1508 -0.0760  0.1948
  377loPI   C3A 6025   5.814   4.918   8.303 -0.2977  0.3512 -0.0761
  377loPI   C4A 6026   5.598   5.084   8.005 -0.1678 -0.1114 -0.0195
  377loPI   C5A 6027   5.552   5.228   7.659 -0.2147 -0.0130  0.0540
  377loPI   C6A 6028   5.268   5.466   7.688 -0.1427 -0.1564  0.0527
  377loPI   C1B 6029   6.337   4.598   9.006 -0.0129 -0.0743 -0.3811
  377loPI   C2B 6030   6.231   4.522   8.540 -0.0010 -0.2025 -0.0186
  377loPI   C3B 6031   6.292   4.464   8.199 -0.0822 -0.1741 -0.1624
  377loPI   C4B 6032   6.136   4.865   7.857  0.1908  0.3300 -0.0054
  378loPI    C1 6033   0.934  17.695  10.685  0.2645 -0.0218 -0.0576
  378loPI    C2 6034   1.056  17.347  10.839  0.0395 -0.0486  0.0650
  378loPI    C3 6035   0.829  17.593  11.057 -0.1328 -0.0038 -0.1603
  378loPI   PO4 6036   0.891  17.568  10.423 -0.3182 -0.0038 -0.3580
  378loPI   GL1 6037   0.773  17.542  10.050  0.1125  0.1810  0.0368
  378loPI   GL2 6038   0.522  17.757   9.977 -0.0465  0.0301  0.3446
  378loPI   C1A 6039   0.727  17.518   9.563 -0.2359  0.0609  0.3967
  378loPI   C2A 6040   0.859  17.563   9.071 -0.1156 -0.1951 -0.3996
  378loPI   C3A 6041   0.866  17.756   8.780  0.2008 -0.4927 -0.0870
  378loPI   C4A 6042   1.186  18.016   8.544  0.2646 -0.0140 -0.2832
  378loPI   C5A 6043   1.328  18.254   8.172 -0.0649  0.1316 -0.1387
  378loPI   C6A 6044   1.387  18.450   7.772 -0.2003 -0.0336  0.0526
  378loPI   C1B 6045   0.288  17.876   9.708  0.0037 -0.0761  0.4355
  378loPI   C2B 6046   0.274  17.732   9.329  0.0949  0.0708  0.0674
  378loPI   C3B 6047   0.382  17.710   8.906  0.1910  0.0570  0.0242
  378loPI   C4B 6048   0.189  17.734   8.651  0.2509  0.0859 -0.0302
  379loPI    C1 6049  13.021  10.788  10.095 -0.0266  0.1817 -0.0959
  379loPI    C2 6050  13.375  10.606  10.128 -0.0766  0.0750 -0.1426
  379loPI    C3 6051  13.112  10.588  10.429 -0.0316  0.1787 -0.0963
  379loPI   PO4 6052  13.012  10.917   9.981  0.2041  0.0843  0.2256
  379loPI   GL1 6053  12.882  10.984   9.613 -0.1080 -0.1561 -0.2491
  379loPI   GL2 6054  12.638  11.175   9.643 -0.3565  0.2170  0.0293
  379loPI   C1A 6055  12.826  10.936   9.120  0.1948 -0.2870  0.2270
  379loPI   C2A 6056  12.988  11.097   8.659 -0.3084 -0.1227  0.0923
  379loPI   C3A 6057  12.846  11.542   8.412 -0.0937 -0.0733  0.0600
  379loPI   C4A 6058  12.568  11.608   8.129  0.0052  0.0457  0.2634
  379loPI   C5A 6059  12.131  11.545   7.931  0.1327 -0.0195 -0.0655
  379loPI   C6A 6060  11.653  11.718   7.817 -0.2177  0.2040 -0.0342
  379loPI   C1B 6061  12.403  11.144   9.288 -0.2584  0.1404 -0.0717
  379loPI   C2B 6062  12.489  11.222   8.802  0.0787 -0.1500 -0.0336
  379loPI   C3B 6063  12.471  11.203   8.387  0.2105  0.1857 -0.0871
  379loPI   C4B 6064  12.493  11.051   7.972 -0.0546 -0.0599 -0.1172
  380loPI    C1 6065  18.406   8.359  10.467  0.0786  0.0032 -0.1718
  380loPI    C2 6066  18.320   8.274  10.848  0.2150 -0.1213 -0.1682
  380loPI    C3 6067  18.294   8.651  10.717 -0.2709 -0.1426 -0.1516
  380loPI   PO4 6068  18.316   8.247  10.322  0.0479 -0.3507 -0.1690
  380loPI   GL1 6069  18.654   8.198   9.919  0.1685  0.0944 -0.3299
  380loPI   GL2 6070  18.995   8.139   9.799 -0.1112  0.0340 -0.2662
  380loPI   C1A 6071  18.605   8.309   9.501  0.0739  0.2785 -0.2985
  380loPI   C2A 6072  18.661   8.329   9.042  0.0195 -0.2837 -0.0798
  380loPI   C3A 6073  18.669   8.313   8.638 -0.2764  0.1763  0.1249
  380loPI   C4A 6074  18.719   8.711   8.331 -0.0645 -0.1003 -0.0984
  380loPI   C5A 6075  18.430   8.974   8.465  0.3625 -0.2533  0.3388
  380loPI   C6A 6076  18.054   8.989   8.721 -0.1183 -0.0190  0.0085
  380loPI   C1B 6077  19.281   8.309   9.563 -0.1219  0.0770  0.1822
  380loPI   C2B 6078  19.521   8.479   9.236  0.5108  0.0809  0.1988
  380loPI   C3B 6079  19.655   8.728   8.832 -0.1666  0.1215 -0.1855
  380loPI   C4B 6080  19.668   8.827   8.435 -0.1460  0.0765  0.2288
  381loPI    C1 6081   2.873  18.197  10.517 -0.0977 -0.4562 -0.1888
  381loPI    C2 6082   2.797  17.972  10.839 -0.4009  0.0948  0.1394
  381loPI    C3 6083   3.173  18.081  10.755 -0.3068 -0.1456  0.2398
  381loPI   PO4 6084   2.732  18.079  10.293  0.0582  0.1377  0.0366
  381loPI   GL1 6085   2.493  18.003   9.924 -0.0979 -0.1593  0.0342
  381loPI   GL2 6086   2.467  18.261   9.652  0.2128 -0.2503 -0.1365
  381loPI   C1A 6087   2.469  17.761   9.538  0.1123 -0.2944  0.4271
  381loPI   C2A 6088   2.550  17.604   9.115 -0.4393 -0.1185 -0.2570
  381loPI   C3A 6089   2.647  17.533   8.675 -0.0686 -0.1054  0.0989
  381loPI   C4A 6090   2.890  17.506   8.442  0.1328  0.1829  0.0037
  381loPI   C5A 6091   2.978  17.585   7.971 -0.1221  0.0491  0.0823
  381loPI   C6A 6092   3.237  17.480   7.551  0.1904  0.1075 -0.0521
  381loPI   C1B 6093   2.258  18.194   9.289  0.0840  0.0888  0.0717
  381loPI   C2B 6094   2.252  18.009   8.909  0.1175 -0.2227  0.1309
  381loPI   C3B 6095   2.513  18.084   8.528 -0.1981 -0.0753  0.3411
  381loPI   C4B 6096   2.688  17.943   8.153  0.0898 -0.1573  0.0879
  382loPI    C1 6097   6.700  11.914  10.389  0.0619 -0.0134  0.0522
  382loPI    C2 6098   6.361  12.057  10.232  0.0421 -0.0148  0.0938
  382loPI    C3 6099   6.599  12.297  10.446  0.0320 -0.0319  0.1243
  382loPI   PO4 6100   6.815  11.788  10.136 -0.5510  0.1316  0.0343
  382loPI   GL1 6101   7.163  11.849   9.872  0.0195  0.1047  0.0775
  382loPI   GL2 6102   7.376  12.027   9.653  0.0732 -0.0591 -0.0502
  382loPI   C1A 6103   7.028  11.786   9.404  0.0042 -0.0514 -0.2780
  382loPI   C2A 6104   6.820  11.466   9.267  0.2532 -0.1605 -0.1658
  382loPI   C3A 6105   6.648  11.366   8.783  0.0938  0.1706  0.1311
  382loPI   C4A 6106   6.722  11.415   8.354 -0.0097 -0.0983  0.0391
  382loPI   C5A 6107   6.493  11.343   7.998 -0.0630  0.0892 -0.0761
  382loPI   C6A 6108   6.520  11.283   7.558  0.4165 -0.6152  0.0135
  382loPI   C1B 6109   7.291  12.281   9.276  0.4207  0.3958 -0.1010
  382loPI   C2B 6110   7.403  12.065   8.954  0.2550  0.1371  0.2260
  382loPI   C3B 6111   7.376  11.995   8.511 -0.3287 -0.1486  0.2535
  382loPI   C4B 6112   7.707  12.170   8.245  0.0318  0.1689 -0.2377
  383loPI    C1 6113  15.601   4.061  10.081 -0.3195  0.1245 -0.0665
  383loPI    C2 6114  15.711   4.446  10.081 -0.0431  0.0482 -0.2046
  383loPI    C3 6115  15.755   4.224  10.412 -0.1442  0.1183 -0.1437
  383loPI   PO4 6116  15.377   4.110   9.961 -0.1050 -0.0585 -0.2985
  383loPI   GL1 6117  15.300   4.346   9.648 -0.0567 -0.0953  0.1651
  383loPI   GL2 6118  15.298   4.661   9.772  0.1268  0.0843  0.0869
  383loPI   C1A 6119  15.329   4.057   9.278  0.0523 -0.1294 -0.2475
  383loPI   C2A 6120  15.332   3.989   8.868  0.1056 -0.1256  0.1130
  383loPI   C3A 6121  15.245   3.486   8.670 -0.1830  0.0337 -0.1102
  383loPI   C4A 6122  15.276   3.301   8.255 -0.1268  0.1059 -0.2078
  383loPI   C5A 6123  15.503   3.181   7.869 -0.0024  0.1277  0.3543
  383loPI   C6A 6124  15.475   2.878   7.581  0.4126  0.0868  0.4424
  383loPI   C1B 6125  15.166   4.706   9.226 -0.1791 -0.1111 -0.0709
  383loPI   C2B 6126  14.966   4.941   8.773 -0.2032 -0.0916  0.1278
  383loPI   C3B 6127  14.717   5.321   8.653  0.1770 -0.0838 -0.1536
  383loPI   C4B 6128  14.495   5.621   8.646  0.1492  0.0083  0.1907
  384loPI    C1 6129   8.155   1.734  10.502 -0.1371  0.1490  0.0353
  384loPI    C2 6130   7.772   1.651  10.581 -0.1923  0.2803 -0.0896
  384loPI    C3 6131   7.929   1.999  10.699 -0.1240  0.2459 -0.0788
  384loPI   PO4 6132   8.319   1.442  10.391 -0.0614 -0.0328  0.0630
  384loPI   GL1 6133   8.630   1.315  10.115 -0.0834  0.2407 -0.2021
  384loPI   GL2 6134   8.967   1.348  10.056 -0.0631 -0.2231  0.3699
  384loPI   C1A 6135   8.569   1.042   9.709 -0.1060  0.0524 -0.3416
  384loPI   C2A 6136   8.516   1.054   9.299  0.1323 -0.1600 -0.1161
  384loPI   C3A 6137   8.460   1.054   8.870 -0.0961 -0.1505 -0.1872
  384loPI   C4A 6138   8.444   1.016   8.382  0.3250 -0.3292  0.0982
  384loPI   C5A 6139   8.415   1.241   8.039  0.2271 -0.2193  0.0269
  384loPI   C6A 6140   8.207   1.384   7.685 -0.0444  0.1092 -0.1240
  384loPI   C1B 6141   9.021   1.585   9.635 -0.0037  0.1240 -0.2005
  384loPI   C2B 6142   9.019   1.504   9.259  0.2082 -0.2495  0.0550
  384loPI   C3B 6143   8.790   1.453   8.873  0.1392 -0.1354  0.2807
  384loPI   C4B 6144   8.792   1.379   8.425  0.0325 -0.1884  0.0774
  385loPI    C1 6145   6.549  15.467  10.430  0.0454  0.1937  0.0056
  385loPI    C2 6146   6.486  15.339  10.804  0.1560  0.1541  0.0108
  385loPI    C3 6147   6.583  15.078  10.516 -0.0749  0.1641 -0.0780
  385loPI   PO4 6148   6.358  15.588  10.327  0.2789  0.0743 -0.2679
  385loPI   GL1 6149   6.139  15.771   9.969  0.0843  0.0133 -0.1175
  385loPI   GL2 6150   6.493  15.856   9.927 -0.0786  0.1434  0.0618
  385loPI   C1A 6151   6.127  15.935   9.559 -0.2914 -0.1580  0.1224
  385loPI   C2A 6152   6.417  16.058   9.276  0.1952 -0.1374 -0.0935
  385loPI   C3A 6153   6.440  15.831   8.893  0.0567 -0.3008  0.0040
  385loPI   C4A 6154   6.274  15.791   8.493  0.0918 -0.2200 -0.0184
  385loPI   C5A 6155   6.393  15.750   8.056  0.1926 -0.0129 -0.0227
  385loPI   C6A 6156   6.503  15.595   7.666  0.0850  0.1574 -0.0514
  385loPI   C1B 6157   6.782  15.831   9.700 -0.0830 -0.0948  0.3754
  385loPI   C2B 6158   6.843  15.831   9.211 -0.0376 -0.0735 -0.4513
  385loPI   C3B 6159   6.952  15.795   8.756  0.1256 -0.2118 -0.0257
  385loPI   C4B 6160   7.213  15.727   8.567  0.0109  0.1037  0.1032
  386loPI    C1 6161   4.299  15.128  10.698 -0.0532  0.3362  0.0783
  386loPI    C2 6162   4.506  15.077  11.037 -0.1206 -0.2009  0.0474
  386loPI    C3 6163   4.130  15.212  11.051 -0.1252 -0.2271  0.1874
  386loPI   PO4 6164   4.576  15.178  10.532 -0.0396 -0.3449  0.1860
  386loPI   GL1 6165   4.681  15.375  10.195 -0.3606 -0.1995 -0.0074
  386loPI   GL2 6166   4.449  15.220  10.061  0.0793 -0.5027 -0.1428
  386loPI   C1A 6167   4.867  15.479   9.770 -0.0751  0.0335 -0.1090
  386loPI   C2A 6168   5.000  15.393   9.400  0.3133  0.3040 -0.2797
  386loPI   C3A 6169   5.378  15.243   9.297  0.0349 -0.1532 -0.4360
  386loPI   C4A 6170   5.674  15.144   9.113  0.1205 -0.0797 -0.0352
  386loPI   C5A 6171   5.855  14.855   8.866 -0.2499 -0.2237 -0.2490
  386loPI   C6A 6172   5.996  14.537   9.088  0.1721 -0.2435 -0.1616
  386loPI   C1B 6173   4.558  15.088   9.603 -0.0792 -0.3164 -0.0320
  386loPI   C2B 6174   4.496  15.102   9.138 -0.1178 -0.1258  0.0875
  386loPI   C3B 6175   4.536  15.091   8.628  0.0781 -0.0780  0.1845
  386loPI   C4B 6176   4.837  15.260   8.354  0.0620 -0.0166  0.0884
  387loPI    C1 6177   9.730   2.907  10.763  0.2135  0.0983  0.2594
  387loPI    C2 6178   9.667   2.612  11.026 -0.0219  0.0022  0.0994
  387loPI    C3 6179   9.634   2.994  11.141 -0.0555 -0.0382  0.2250
  387loPI   PO4 6180   9.826   2.765  10.545 -0.1145  0.0596 -0.3214
  387loPI   GL1 6181   9.757   2.837  10.145 -0.1923 -0.4260  0.1075
  387loPI   GL2 6182   9.458   2.607  10.003 -0.0436  0.0135 -0.1957
  387loPI   C1A 6183  10.075   2.737   9.830 -0.1415 -0.2797  0.3039
  387loPI   C2A 6184  10.036   2.727   9.385  0.0747  0.2685 -0.1122
  387loPI   C3A 6185  10.096   2.762   8.933 -0.0882  0.4168  0.1654
  387loPI   C4A 6186  10.070   2.567   8.577 -0.1520  0.2675  0.1306
  387loPI   C5A 6187  10.120   2.087   8.688  0.1852  0.1478  0.2002
  387loPI   C6A 6188  10.074   1.961   9.129 -0.1397 -0.0386  0.3106
  387loPI   C1B 6189   9.569   2.734   9.589 -0.0500  0.0049  0.0195
  387loPI   C2B 6190   9.621   2.769   9.153 -0.2031  0.0401  0.3498
  387loPI   C3B 6191   9.468   2.735   8.692  0.0992 -0.0859 -0.0792
  387loPI   C4B 6192   9.629   2.645   8.285 -0.1339 -0.2235  0.1690
  388loPI    C1 6193  13.581   0.833  10.284  0.3092  0.0940  0.0002
  388loPI    C2 6194  13.898   1.072  10.326  0.0509  0.4144  0.1715
  388loPI    C3 6195  13.657   1.003  10.637  0.0041  0.0953  0.0679
  388loPI   PO4 6196  13.674   0.633  10.075  0.2557  0.1755  0.2183
  388loPI   GL1 6197  13.522   0.725   9.731 -0.0264  0.0516 -0.2298
  388loPI   GL2 6198  13.620   1.056   9.764 -0.1137  0.1853  0.0871
  388loPI   C1A 6199  13.225   0.499   9.523 -0.0303 -0.0087 -0.2892
  388loPI   C2A 6200  13.142   0.428   9.177 -0.1577  0.1765  0.1307
  388loPI   C3A 6201  13.019   0.592   8.752  0.1101 -0.1732 -0.1655
  388loPI   C4A 6202  13.017   0.885   8.631  0.0606 -0.2295  0.2070
  388loPI   C5A 6203  13.057   0.979   8.207  0.2860  0.1333  0.0773
  388loPI   C6A 6204  12.802   0.822   7.931 -0.3507  0.0793 -0.0381
  388loPI   C1B 6205  13.598   1.152   9.229 -0.2146  0.0429  0.1608
  388loPI   C2B 6206  13.858   1.084   8.771 -0.1595 -0.1622  0.1733
  388loPI   C3B 6207  14.082   1.049   8.383 -0.0606 -0.0890  0.1684
  388loPI   C4B 6208  14.370   1.314   8.185  0.3580  0.0266 -0.0930
  389loPI    C1 6209   0.395   7.445  10.375 -0.2059  0.1146  0.0275
  389loPI    C2 6210   0.320   7.686  10.686 -0.1860 -0.0201  0.1374
  389loPI    C3 6211   0.335   7.289  10.738 -0.1092 -0.0390 -0.0215
  389loPI   PO4 6212   0.682   7.661  10.274  0.0828  0.0515  0.0774
  389loPI   GL1 6213   0.791   7.923   9.920 -0.3540 -0.1180 -0.0021
  389loPI   GL2 6214   0.976   8.224  10.027 -0.1085  0.2117 -0.1204
  389loPI   C1A 6215   0.664   7.779   9.565 -0.2511  0.1480  0.0061
  389loPI   C2A 6216   0.610   7.866   9.093 -0.1122  0.0137 -0.0480
  389loPI   C3A 6217   0.436   7.951   8.721 -0.2580 -0.0884 -0.1095
  389loPI   C4A 6218   0.380   7.723   8.328 -0.0371  0.0617  0.0091
  389loPI   C5A 6219   0.291   7.501   7.859 -0.2018 -0.2833 -0.1274
  389loPI   C6A 6220   0.399   7.293   7.550  0.2403  0.1403 -0.2042
  389loPI   C1B 6221   1.303   8.315   9.588 -0.2545  0.0691 -0.0109
  389loPI   C2B 6222   1.425   8.458   9.237 -0.3026 -0.1656 -0.0727
  389loPI   C3B 6223   1.516   8.597   8.870  0.1164  0.0839 -0.1510
  389loPI   C4B 6224   1.366   8.478   8.456 -0.3679 -0.1168  0.2631
  390loPI    C1 6225   9.540   8.872  10.264 -0.0769  0.2608  0.0960
  390loPI    C2 6226   9.181   9.021  10.356 -0.2314 -0.0349 -0.0162
  390loPI    C3 6227   9.375   8.789  10.619 -0.2462 -0.0997 -0.0623
  390loPI   PO4 6228   9.510   8.769   9.951  0.0617  0.0126 -0.1427
  390loPI   GL1 6229   9.550   8.524   9.670 -0.1939  0.2257  0.2037
  390loPI   GL2 6230   9.569   8.214   9.575  0.6485  0.1059 -0.2112
  390loPI   C1A 6231   9.460   8.533   9.232  0.2868 -0.0309  0.0809
  390loPI   C2A 6232   9.273   8.748   8.812  0.1681 -0.2809  0.0509
  390loPI   C3A 6233   9.173   8.624   8.322 -0.0370  0.1535  0.2852
  390loPI   C4A 6234   9.202   8.647   7.896 -0.2681  0.1989 -0.0010
  390loPI   C5A 6235   9.524   8.687   7.533 -0.0298  0.1896  0.1861
  390loPI   C6A 6236  10.015   8.655   7.377  0.2321  0.1961  0.1149
  390loPI   C1B 6237   9.597   8.049   9.185 -0.0314 -0.1799  0.0400
  390loPI   C2B 6238   9.483   8.225   8.782 -0.0351  0.1644  0.4442
  390loPI   C3B 6239   9.322   8.121   8.354 -0.0669 -0.2461  0.1075
  390loPI   C4B 6240   9.235   8.110   7.921  0.0658 -0.0247  0.0637
  391loPI    C1 6241   1.795  15.970  10.151  0.0811 -0.1703 -0.1710
  391loPI    C2 6242   1.655  16.339  10.218  0.0838 -0.1641 -0.1987
  391loPI    C3 6243   1.877  16.156  10.496 -0.1573 -0.2578 -0.0651
  391loPI   PO4 6244   1.533  15.790  10.092  0.1210 -0.0439 -0.2806
  391loPI   GL1 6245   1.325  15.784   9.671 -0.1006  0.1039  0.0305
  391loPI   GL2 6246   1.491  16.158   9.732  0.1521 -0.2672 -0.1553
  391loPI   C1A 6247   1.515  15.904   9.274 -0.1629 -0.0334 -0.0075
  391loPI   C2A 6248   1.524  15.959   8.816 -0.0740  0.0206 -0.0514
  391loPI   C3A 6249   1.380  15.927   8.418  0.1805  0.4137  0.1134
  391loPI   C4A 6250   1.431  15.823   7.934  0.0108  0.3553 -0.0113
  391loPI   C5A 6251   1.707  15.718   7.718 -0.0184  0.4870  0.1122
  391loPI   C6A 6252   2.024  15.524   7.841 -0.0232  0.0525  0.3239
  391loPI   C1B 6253   1.670  16.441   9.453  0.0943  0.0057 -0.0364
  391loPI   C2B 6254   1.726  16.408   8.962 -0.0280 -0.0076  0.1714
  391loPI   C3B 6255   1.491  16.439   8.482  0.0716 -0.0198 -0.1943
  391loPI   C4B 6256   0.994  16.514   8.329  0.0973 -0.1637 -0.0541
  392loPI    C1 6257   6.105  17.567  10.762 -0.1114 -0.0695  0.1555
  392loPI    C2 6258   6.127  17.909  10.968  0.1532  0.1077 -0.1567
  392loPI    C3 6259   6.007  17.574  11.150 -0.0123  0.3423  0.1782
  392loPI   PO4 6260   6.236  17.679  10.475  0.0788 -0.0014  0.0162
  392loPI   GL1 6261   6.350  17.474  10.068  0.1678 -0.2612 -0.0027
  392loPI   GL2 6262   6.260  17.774   9.980  0.1714 -0.2243 -0.0045
  392loPI   C1A 6263   6.207  17.197   9.858 -0.2976  0.0321  0.1296
  392loPI   C2A 6264   6.101  17.045   9.484 -0.1841 -0.3103 -0.1454
  392loPI   C3A 6265   6.040  16.981   9.015  0.0222 -0.0242 -0.0790
  392loPI   C4A 6266   5.832  17.099   8.667 -0.1136  0.2594  0.2415
  392loPI   C5A 6267   5.654  17.161   8.161  0.0929 -0.0843 -0.1383
  392loPI   C6A 6268   5.804  17.052   7.755  0.1849 -0.1169  0.1416
  392loPI   C1B 6269   6.110  17.646   9.599  0.3026 -0.0052  0.0332
  392loPI   C2B 6270   6.058  17.515   9.253 -0.0131 -0.1183  0.2724
  392loPI   C3B 6271   5.881  17.595   8.723  0.1111  0.2956 -0.1811
  392loPI   C4B 6272   6.002  17.527   8.264 -0.0614  0.1767 -0.2065
  393loPI    C1 6273   9.742  11.673  10.558  0.1231  0.0003 -0.0036
  393loPI    C2 6274   9.779  12.069  10.602  0.3632 -0.0236  0.0226
  393loPI    C3 6275  10.000  11.821  10.825  0.1668 -0.1747  0.0525
  393loPI   PO4 6276   9.562  11.657  10.345 -0.0305  0.2314  0.0601
  393loPI   GL1 6277   9.390  11.743  10.002 -0.1867 -0.0745  0.2515
  393loPI   GL2 6278   9.593  11.579   9.771  0.0769  0.2573 -0.2361
  393loPI   C1A 6279   9.320  12.034   9.541 -0.3795  0.0504 -0.0634
  393loPI   C2A 6280   9.427  12.155   9.052  0.0309 -0.0128 -0.3005
  393loPI   C3A 6281   9.368  12.223   8.586 -0.0059  0.0973  0.1067
  393loPI   C4A 6282   9.505  12.384   8.376  0.2644  0.3895 -0.1473
  393loPI   C5A 6283   9.598  12.459   7.939 -0.1961 -0.0013 -0.1923
  393loPI   C6A 6284   9.917  12.472   7.607  0.0961 -0.1933  0.1118
  393loPI   C1B 6285   9.630  11.724   9.294 -0.0029  0.2359  0.0821
  393loPI   C2B 6286   9.653  11.610   8.876 -0.0125  0.0277 -0.0753
  393loPI   C3B 6287   9.685  11.650   8.475 -0.0151 -0.2618  0.1126
  393loPI   C4B 6288   9.855  11.615   7.988  0.2964  0.2347 -0.0169
  394loPI    C1 6289  14.186  17.332  10.396  0.0877  0.2753  0.1770
  394loPI    C2 6290  14.486  17.278  10.656  0.3149 -0.0385 -0.1397
  394loPI    C3 6291  14.246  16.972  10.560 -0.0262  0.1771  0.0065
  394loPI   PO4 6292  14.391  17.585  10.215 -0.2358  0.0301 -0.0288
  394loPI   GL1 6293  14.574  17.726   9.843 -0.1107  0.1652  0.2098
  394loPI   GL2 6294  14.594  18.042   9.809 -0.1055 -0.1841 -0.3085
  394loPI   C1A 6295  14.399  17.528   9.545 -0.2004  0.0343  0.3907
  394loPI   C2A 6296  14.388  17.369   9.142  0.3940  0.2197  0.0880
  394loPI   C3A 6297  14.139  17.375   8.852 -0.0802  0.1120  0.1472
  394loPI   C4A 6298  14.158  17.409   8.475 -0.1731  0.0025 -0.0819
  394loPI   C5A 6299  13.904  17.395   8.071 -0.3318 -0.1232 -0.2936
  394loPI   C6A 6300  14.069  17.375   7.635  0.0042 -0.2363 -0.4627
  394loPI   C1B 6301  14.902  18.047   9.469 -0.0107 -0.0495  0.1366
  394loPI   C2B 6302  15.174  18.411   9.370 -0.0019  0.2740 -0.0675
  394loPI   C3B 6303  15.344  18.423   8.965 -0.2635 -0.0283 -0.0927
  394loPI   C4B 6304  15.379  18.153   8.689  0.1856 -0.1223  0.1847
  395loPI    C1 6305   6.595  14.250  10.508  0.2123  0.0793  0.0590
  395loPI    C2 6306   6.769  13.908  10.396 -0.1255 -0.0698 -0.0243
  395loPI    C3 6307   6.861  14.074  10.748  0.3740 -0.0042 -0.1781
  395loPI   PO4 6308   6.354  14.170  10.248  0.0559  0.0519  0.2312
  395loPI   GL1 6309   6.259  13.944   9.875  0.0285 -0.3533  0.3878
  395loPI   GL2 6310   6.587  13.942   9.905 -0.0891  0.1768 -0.5235
  395loPI   C1A 6311   6.128  14.086   9.397  0.3874  0.1446 -0.0916
  395loPI   C2A 6312   6.093  14.116   8.833 -0.0838 -0.3443 -0.2877
  395loPI   C3A 6313   5.954  14.484   8.564  0.0381  0.1405 -0.2350
  395loPI   C4A 6314   5.844  14.761   8.265  0.0245  0.2378  0.1058
  395loPI   C5A 6315   5.452  14.711   8.011 -0.2092 -0.2179 -0.0192
  395loPI   C6A 6316   5.047  14.815   7.947 -0.0486 -0.2246 -0.0182
  395loPI   C1B 6317   6.583  14.132   9.531  0.0184  0.3048  0.2251
  395loPI   C2B 6318   6.457  14.285   9.138  0.1162 -0.2606 -0.4223
  395loPI   C3B 6319   6.426  14.610   8.818  0.1470 -0.3993  0.1042
  395loPI   C4B 6320   6.281  14.867   8.452 -0.0393  0.0913  0.1535
  396loPI    C1 6321   4.295   5.113  10.304  0.0713  0.2292 -0.1251
  396loPI    C2 6322   4.654   5.266  10.217  0.0529  0.2585 -0.1496
  396loPI    C3 6323   4.616   5.002  10.515  0.0840  0.3052 -0.1041
  396loPI   PO4 6324   4.205   5.070   9.965 -0.2717 -0.1033 -0.1475
  396loPI   GL1 6325   4.294   4.815   9.570 -0.0770  0.2321  0.0092
  396loPI   GL2 6326   3.931   4.888   9.453 -0.0857  0.1945  0.0149
  396loPI   C1A 6327   4.399   5.054   9.160  0.0504  0.1128  0.1395
  396loPI   C2A 6328   4.325   5.105   8.703 -0.0065  0.0705 -0.1500
  396loPI   C3A 6329   4.160   5.212   8.298 -0.0642 -0.1347 -0.0097
  396loPI   C4A 6330   3.775   5.462   8.253  0.5464 -0.5259 -0.0678
  396loPI   C5A 6331   3.573   5.566   8.642  0.3696  0.1225 -0.0929
  396loPI   C6A 6332   3.380   5.684   9.041  0.2266  0.0899 -0.1802
  396loPI   C1B 6333   3.861   5.171   9.154 -0.1603  0.3829 -0.0963
  396loPI   C2B 6334   3.819   5.118   8.651 -0.0229  0.2081  0.0705
  396loPI   C3B 6335   3.765   4.874   8.315  0.2353  0.0617  0.2617
  396loPI   C4B 6336   3.981   4.618   8.078  0.1416  0.3049 -0.0451
  397loPI    C1 6337  17.102  16.586  10.570 -0.1410 -0.1042 -0.2924
  397loPI    C2 6338  17.350  16.285  10.659 -0.1186 -0.0471 -0.1585
  397loPI    C3 6339  17.415  16.649  10.810 -0.4247 -0.0879  0.0813
  397loPI   PO4 6340  17.061  16.710  10.301  0.0274 -0.0689  0.3047
  397loPI   GL1 6341  16.847  16.570   9.846 -0.1330  0.3353  0.3252
  397loPI   GL2 6342  16.519  16.559   9.998  0.0954  0.2861 -0.0108
  397loPI   C1A 6343  17.196  16.400   9.665 -0.2404 -0.0876  0.0658
  397loPI   C2A 6344  17.344  16.098   9.383 -0.0737  0.2268 -0.0432
  397loPI   C3A 6345  17.271  16.049   8.929 -0.1841  0.1547 -0.2920
  397loPI   C4A 6346  17.462  15.933   8.602 -0.2504  0.0138  0.0342
  397loPI   C5A 6347  17.540  15.651   8.302  0.0132  0.1941  0.0131
  397loPI   C6A 6348  17.657  15.465   7.935  0.0911 -0.0544  0.1393
  397loPI   C1B 6349  16.339  16.497   9.563  0.2301  0.2055 -0.2762
  397loPI   C2B 6350  16.267  16.352   9.214 -0.1625  0.0663 -0.0164
  397loPI   C3B 6351  16.350  16.213   8.769 -0.0774  0.2930 -0.1590
  397loPI   C4B 6352  16.343  16.400   8.382  0.1766  0.1986  0.1377
  398loPI    C1 6353   6.352   5.021  10.188  0.0840  0.1143  0.3180
  398loPI    C2 6354   6.673   5.246  10.269  0.2179 -0.0871  0.3518
  398loPI    C3 6355   6.707   4.847  10.249  0.0819 -0.0794 -0.1776
  398loPI   PO4 6356   6.336   5.107   9.913  0.2745  0.1883 -0.1974
  398loPI   GL1 6357   6.454   5.194   9.458  0.1192 -0.2464  0.3561
  398loPI   GL2 6358   6.495   5.585   9.474  0.0438 -0.1691  0.2029
  398loPI   C1A 6359   6.507   5.086   9.062 -0.0465  0.0008  0.3584
  398loPI   C2A 6360   6.662   4.792   8.706  0.2023  0.0852  0.1299
  398loPI   C3A 6361   6.761   4.606   8.412  0.0118  0.1332 -0.1101
  398loPI   C4A 6362   6.802   4.530   8.046 -0.2702  0.0340  0.0312
  398loPI   C5A 6363   6.564   4.565   7.692 -0.0427  0.1326  0.0472
  398loPI   C6A 6364   6.141   4.342   7.442 -0.1126 -0.0205  0.3930
  398loPI   C1B 6365   6.538   5.575   9.005 -0.0223 -0.2404 -0.2003
  398loPI   C2B 6366   6.605   5.661   8.590 -0.1886  0.3574  0.0068
  398loPI   C3B 6367   6.469   5.564   8.321  0.0777 -0.1705  0.1621
  398loPI   C4B 6368   6.408   5.412   7.910 -0.1474  0.0432  0.0941
  399loPI    C1 6369   2.392   4.931  10.010  0.1008  0.0736 -0.1291
  399loPI    C2 6370   2.222   4.652   9.779 -0.0041 -0.2108  0.2811
  399loPI    C3 6371   2.473   4.544  10.071  0.2943  0.1582  0.1693
  399loPI   PO4 6372   2.481   5.086   9.889 -0.1731 -0.0193  0.1984
  399loPI   GL1 6373   2.572   5.193   9.584  0.0104  0.4221  0.2018
  399loPI   GL2 6374   2.755   5.475   9.614 -0.0536  0.2012  0.1167
  399loPI   C1A 6375   2.494   4.882   9.250 -0.1183 -0.1141  0.1078
  399loPI   C2A 6376   2.524   4.684   8.841  0.2069  0.1741  0.0485
  399loPI   C3A 6377   2.455   4.363   8.653  0.0607  0.0989  0.3050
  399loPI   C4A 6378   2.215   4.377   8.285 -0.0459 -0.2949 -0.0776
  399loPI   C5A 6379   2.156   4.379   7.843  0.0759 -0.2143 -0.0566
  399loPI   C6A 6380   2.330   4.343   7.378  0.0251 -0.2729 -0.2002
  399loPI   C1B 6381   2.916   5.329   9.153 -0.3050  0.0159 -0.1855
  399loPI   C2B 6382   2.844   5.187   8.763 -0.0510 -0.0853 -0.1511
  399loPI   C3B 6383   2.792   5.182   8.317  0.3037 -0.3381  0.1692
  399loPI   C4B 6384   2.627   5.350   7.871  0.2619 -0.1888  0.2318
  400loPI    C1 6385   5.754  13.234  10.054  0.3812  0.0417  0.0684
  400loPI    C2 6386   5.563  13.585  10.032 -0.1796 -0.2689 -0.2843
  400loPI    C3 6387   5.952  13.563   9.941 -0.1023  0.2774 -0.1243
  400loPI   PO4 6388   5.660  13.098   9.897  0.1022 -0.1468  0.1184
  400loPI   GL1 6389   5.472  13.373   9.623  0.0352 -0.1739  0.0563
  400loPI   GL2 6390   5.767  13.455   9.500  0.0123  0.1258  0.1269
  400loPI   C1A 6391   5.478  13.413   9.082  0.0171  0.1952  0.1028
  400loPI   C2A 6392   5.436  13.395   8.537  0.0555  0.1826  0.0255
  400loPI   C3A 6393   5.566  13.486   8.241  0.1064 -0.0836  0.0289
  400loPI   C4A 6394   5.706  13.853   7.872 -0.0734 -0.0778 -0.0965
  400loPI   C5A 6395   5.510  14.225   7.774 -0.2186 -0.1244 -0.0235
  400loPI   C6A 6396   5.256  14.503   7.593 -0.1094 -0.2206  0.2194
  400loPI   C1B 6397   5.713  13.804   9.185 -0.1923  0.1631  0.1588
  400loPI   C2B 6398   5.755  13.696   8.741 -0.0611  0.1497 -0.1698
  400loPI   C3B 6399   5.802  13.975   8.412 -0.5522  0.1615 -0.0035
  400loPI   C4B 6400   5.869  14.292   8.068  0.1592  0.2186  0.1406
  401loPI    C1 6401  13.079  12.491  10.178 -0.4363 -0.0303 -0.0462
  401loPI    C2 6402  12.951  12.745   9.897  0.2568  0.1402 -0.2258
  401loPI    C3 6403  13.127  12.885  10.228 -0.3070 -0.0729  0.1808
  401loPI   PO4 6404  13.228  12.315  10.015  0.0013 -0.0592 -0.0308
  401loPI   GL1 6405  13.330  12.170   9.702  0.2598  0.1486 -0.0268
  401loPI   GL2 6406  13.279  11.920   9.477 -0.2578  0.2715  0.0601
  401loPI   C1A 6407  13.603  12.378   9.303  0.0399 -0.1199 -0.0132
  401loPI   C2A 6408  13.768  12.592   9.042 -0.1864 -0.1415 -0.0903
  401loPI   C3A 6409  13.726  12.665   8.706  0.0342 -0.2795  0.0731
  401loPI   C4A 6410  13.703  12.480   8.386  0.0243  0.1973 -0.0673
  401loPI   C5A 6411  13.584  12.225   8.018  0.0971 -0.0172 -0.1250
  401loPI   C6A 6412  13.806  11.979   7.706 -0.0645  0.1575 -0.0842
  401loPI   C1B 6413  12.917  12.066   9.286  0.0066  0.2087  0.0297
  401loPI   C2B 6414  12.794  12.259   8.924 -0.0368  0.0899 -0.2619
  401loPI   C3B 6415  12.687  12.419   8.539  0.3112  0.1474 -0.0181
  401loPI   C4B 6416  12.466  12.732   8.353 -0.1430 -0.3707 -0.1973
  402loPI    C1 6417   7.964  16.850  10.495  0.0749 -0.1050 -0.2076
  402loPI    C2 6418   8.297  16.650  10.403  0.1399 -0.0081 -0.1847
  402loPI    C3 6419   8.089  16.551  10.730  0.1555 -0.0573 -0.1894
  402loPI   PO4 6420   7.987  17.119  10.452  0.0086  0.0493 -0.1112
  402loPI   GL1 6421   8.205  17.472  10.186  0.0258 -0.0128  0.1743
  402loPI   GL2 6422   7.925  17.636  10.325  0.0281  0.2117 -0.0469
  402loPI   C1A 6423   8.347  17.337   9.763  0.1506  0.0496 -0.0465
  402loPI   C2A 6424   8.426  17.281   9.327  0.0699  0.2165  0.1058
  402loPI   C3A 6425   8.333  17.275   8.979 -0.2288  0.0592  0.0909
  402loPI   C4A 6426   8.348  17.249   8.562 -0.3057 -0.2748  0.2010
  402loPI   C5A 6427   8.191  17.296   8.164  0.2594 -0.1551  0.0895
  402loPI   C6A 6428   8.237  17.658   7.908  0.0124 -0.1629  0.1280
  402loPI   C1B 6429   7.713  17.778   9.967  0.1717 -0.0041  0.0762
  402loPI   C2B 6430   7.792  17.816   9.564 -0.0223  0.1458  0.1265
  402loPI   C3B 6431   7.695  17.941   9.157 -0.3554  0.3945  0.1167
  402loPI   C4B 6432   7.669  17.928   8.761 -0.0500  0.3258  0.1423
  403loPI    C1 6433  13.604   7.341   9.953 -0.0207  0.0039  0.0299
  403loPI    C2 6434  13.417   7.607   9.719 -0.1234  0.0253  0.1353
  403loPI    C3 6435  13.204   7.347   9.936 -0.0209 -0.3254 -0.1729
  403loPI   PO4 6436  13.854   7.375   9.805  0.0996  0.1501 -0.3172
  403loPI   GL1 6437  13.950   7.209   9.404  0.0765  0.0569 -0.1439
  403loPI   GL2 6438  14.066   7.565   9.437 -0.0486  0.0436 -0.1650
  403loPI   C1A 6439  13.905   7.073   9.009  0.0584  0.0675  0.3154
  403loPI   C2A 6440  13.708   6.928   8.673  0.2039  0.0618  0.1808
  403loPI   C3A 6441  13.375   6.883   8.349  0.1458 -0.3819  0.1297
  403loPI   C4A 6442  13.237   6.545   8.041  0.3031 -0.0371 -0.0071
  403loPI   C5A 6443  13.375   6.475   7.638 -0.2525 -0.3553  0.1969
  403loPI   C6A 6444  13.390   6.187   7.376  0.0011  0.1495  0.0354
  403loPI   C1B 6445  14.165   7.463   9.077  0.0843 -0.2073  0.1727
  403loPI   C2B 6446  14.238   7.288   8.659  0.1944  0.1742 -0.4108
  403loPI   C3B 6447  14.104   7.041   8.321  0.0124 -0.0082  0.1741
  403loPI   C4B 6448  14.195   6.856   7.951  0.0682 -0.3519 -0.0697
  404loPI    C1 6449   5.010   3.178  10.312  0.1359 -0.2625  0.0440
  404loPI    C2 6450   5.182   3.238  10.668  0.1263 -0.0713  0.0176
  404loPI    C3 6451   4.859   3.449  10.564  0.1774 -0.0679 -0.1373
  404loPI   PO4 6452   5.166   3.151  10.073  0.0099 -0.4359 -0.1235
  404loPI   GL1 6453   5.067   3.071   9.681 -0.1563  0.4496 -0.2490
  404loPI   GL2 6454   4.760   2.828   9.736 -0.0074  0.0439 -0.0240
  404loPI   C1A 6455   5.060   2.923   9.270  0.0845  0.2042  0.1207
  404loPI   C2A 6456   5.066   2.663   8.940  0.1660 -0.0915 -0.1119
  404loPI   C3A 6457   5.131   2.664   8.451  0.1212 -0.1890  0.1250
  404loPI   C4A 6458   5.184   2.601   7.983 -0.3112  0.0527 -0.1158
  404loPI   C5A 6459   5.425   2.528   7.537  0.3754 -0.2858 -0.3629
  404loPI   C6A 6460   5.637   2.866   7.270 -0.1707  0.0628 -0.0324
  404loPI   C1B 6461   4.593   2.642   9.428  0.2245 -0.0274  0.1022
  404loPI   C2B 6462   4.631   2.394   9.105 -0.1135  0.3450  0.0591
  404loPI   C3B 6463   4.918   2.212   8.803 -0.1534 -0.2176 -0.2109
  404loPI   C4B 6464   5.146   1.817   8.748  0.1411 -0.5022  0.2392
  405loPI    C1 6465  14.451   1.688  10.424 -0.0190 -0.0203  0.0936
  405loPI    C2 6466  14.204   1.688  10.739 -0.0680  0.1728  0.0565
  405loPI    C3 6467  14.600   1.704  10.795 -0.0606 -0.1485  0.1165
  405loPI   PO4 6468  14.292   1.490  10.296  0.0679 -0.2272  0.2039
  405loPI   GL1 6469  13.968   1.491   9.918 -0.0220  0.4116  0.2337
  405loPI   GL2 6470  13.702   1.501  10.044 -0.1768 -0.0109  0.0438
  405loPI   C1A 6471  14.086   1.344   9.481  0.1244 -0.0843  0.0683
  405loPI   C2A 6472  14.283   1.232   9.145 -0.0841 -0.0248 -0.0463
  405loPI   C3A 6473  14.395   1.221   8.696  0.4202  0.2255 -0.3856
  405loPI   C4A 6474  14.492   0.793   8.481  0.0253 -0.0853  0.3616
  405loPI   C5A 6475  14.846   0.588   8.561  0.0976 -0.0016  0.1878
  405loPI   C6A 6476  15.005   0.573   8.915 -0.1179 -0.0159 -0.1190
  405loPI   C1B 6477  13.631   1.559   9.570 -0.1785  0.1980  0.0588
  405loPI   C2B 6478  13.739   1.743   9.294 -0.1910  0.1475  0.0859
  405loPI   C3B 6479  13.758   1.561   8.898  0.0984 -0.0240 -0.2694
  405loPI   C4B 6480  13.972   1.558   8.502 -0.0171  0.0772 -0.2012
  406loPI    C1 6481  10.645  14.995  10.585  0.0656 -0.0304  0.2649
  406loPI    C2 6482  10.427  14.752  10.354 -0.0304  0.0882  0.2298
  406loPI    C3 6483  10.511  14.647  10.731  0.1872 -0.1389  0.1218
  406loPI   PO4 6484  10.859  15.083  10.333 -0.1360  0.1751  0.1352
  406loPI   GL1 6485  10.943  15.041   9.910  0.1994 -0.3115 -0.0917
  406loPI   GL2 6486  11.008  15.450   9.885 -0.2613  0.0983 -0.0752
  406loPI   C1A 6487  11.084  14.835   9.516  0.0691  0.1497  0.0364
  406loPI   C2A 6488  10.836  14.659   9.262 -0.0042  0.0815  0.3035
  406loPI   C3A 6489  10.582  14.751   8.887 -0.1732 -0.4963  0.0032
  406loPI   C4A 6490  10.606  14.945   8.461  0.0111 -0.2668 -0.1998
  406loPI   C5A 6491  10.653  15.072   8.086 -0.1179 -0.0706 -0.0702
  406loPI   C6A 6492  10.906  15.240   7.729  0.1965  0.2218  0.1838
  406loPI   C1B 6493  11.187  15.487   9.462 -0.1511  0.4524  0.0008
  406loPI   C2B 6494  11.205  15.784   9.121  0.1314 -0.0833  0.1517
  406loPI   C3B 6495  11.169  15.737   8.673  0.3261 -0.2028 -0.0021
  406loPI   C4B 6496  11.022  15.935   8.330  0.3379  0.0463  0.0745
  407loPI    C1 6497  17.525   4.965   9.990 -0.0064 -0.2836 -0.0838
  407loPI    C2 6498  17.180   4.943  10.190 -0.0170 -0.0563 -0.0738
  407loPI    C3 6499  17.191   4.854   9.801 -0.0682 -0.1506 -0.0541
  407loPI   PO4 6500  17.672   5.285  10.041 -0.1631 -0.2692 -0.2613
  407loPI   GL1 6501  17.732   5.501   9.662  0.0055 -0.0166  0.3288
  407loPI   GL2 6502  17.491   5.655   9.597 -0.1516  0.4952  0.0684
  407loPI   C1A 6503  17.696   5.513   9.188 -0.1948 -0.0383 -0.0861
  407loPI   C2A 6504  17.944   5.394   8.877  0.0943 -0.0241 -0.2009
  407loPI   C3A 6505  18.052   5.577   8.411  0.3716 -0.1056 -0.1369
  407loPI   C4A 6506  17.793   5.620   8.025 -0.3793  0.0129 -0.3152
  407loPI   C5A 6507  17.324   5.675   7.835 -0.3540 -0.0808 -0.0912
  407loPI   C6A 6508  17.078   5.726   7.443  0.0682 -0.1336  0.1535
  407loPI   C1B 6509  17.456   6.155   9.507 -0.0456  0.2063  0.1351
  407loPI   C2B 6510  17.247   6.239   9.278 -0.2717 -0.3213 -0.3187
  407loPI   C3B 6511  17.138   6.244   8.919  0.0464  0.0847  0.1328
  407loPI   C4B 6512  17.245   6.384   8.574 -0.0389  0.1108 -0.1719
  408loPI    C1 6513   9.373   5.540  10.101  0.0853  0.2003 -0.2867
  408loPI    C2 6514   9.156   5.870  10.164 -0.0050  0.1052 -0.0896
  408loPI    C3 6515   9.374   5.834   9.830 -0.1435  0.2820 -0.2011
  408loPI   PO4 6516   9.142   5.374  10.030  0.1076 -0.0874  0.5986
  408loPI   GL1 6517   8.913   5.072   9.694  0.1121  0.0727 -0.1213
  408loPI   GL2 6518   9.253   4.941   9.667 -0.1451  0.2081 -0.0710
  408loPI   C1A 6519   8.901   4.947   9.268 -0.1775 -0.1171  0.0411
  408loPI   C2A 6520   8.973   4.859   8.888  0.1745 -0.1216  0.1761
  408loPI   C3A 6521   9.090   4.927   8.406  0.1294  0.2198 -0.3438
  408loPI   C4A 6522   9.228   5.034   8.025  0.2532 -0.1078  0.1301
  408loPI   C5A 6523   9.634   5.309   7.883 -0.1494 -0.1140 -0.1719
  408loPI   C6A 6524   9.829   5.588   7.621  0.2947  0.0676 -0.0574
  408loPI   C1B 6525   9.451   4.887   9.344 -0.0198  0.0614 -0.1444
  408loPI   C2B 6526   9.455   4.746   8.937  0.0384  0.1306  0.0209
  408loPI   C3B 6527   9.574   4.695   8.580 -0.2251  0.0479  0.0911
  408loPI   C4B 6528   9.430   4.622   8.179 -0.1391  0.2025  0.0667
  409loPI    C1 6529   5.652   8.889  10.048  0.0673  0.1552  0.1576
  409loPI    C2 6530   5.371   8.771  10.307  0.0631 -0.2181 -0.0104
  409loPI    C3 6531   5.697   8.961  10.438 -0.2165  0.1312  0.1974
  409loPI   PO4 6532   5.461   9.023   9.780  0.2404  0.0594  0.0010
  409loPI   GL1 6533   5.361   8.849   9.328  0.2020 -0.5553  0.2189
  409loPI   GL2 6534   5.580   8.980   9.311 -0.1272  0.1954 -0.2702
  409loPI   C1A 6535   5.077   8.840   8.964 -0.1015  0.0710  0.0682
  409loPI   C2A 6536   5.237   8.876   8.613 -0.0469  0.2086 -0.1381
  409loPI   C3A 6537   5.300   8.988   8.145  0.2691  0.1652  0.1988
  409loPI   C4A 6538   5.164   8.885   7.787  0.0829 -0.3228  0.0528
  409loPI   C5A 6539   4.990   8.715   7.302 -0.3030 -0.2981 -0.1515
  409loPI   C6A 6540   4.699   8.408   7.274  0.0153  0.1674 -0.1985
  409loPI   C1B 6541   5.662   8.914   8.821  0.0958  0.0257 -0.1014
  409loPI   C2B 6542   5.748   8.986   8.414 -0.2465  0.0039  0.0490
  409loPI   C3B 6543   5.775   8.919   8.076 -0.0686  0.0406 -0.1717
  409loPI   C4B 6544   5.665   9.107   7.770 -0.0391 -0.3477 -0.0650
  410loPI    C1 6545   4.491  16.951  11.008 -0.2238 -0.0184 -0.0357
  410loPI    C2 6546   4.765  16.971  11.298 -0.2148 -0.0421 -0.0426
  410loPI    C3 6547   4.432  17.191  11.322 -0.0351  0.2550 -0.2043
  410loPI   PO4 6548   4.613  16.975  10.733 -0.3758  0.1139  0.0736
  410loPI   GL1 6549   4.451  17.195  10.358 -0.1212 -0.1185  0.2665
  410loPI   GL2 6550   4.195  17.023  10.096 -0.2186 -0.0505 -0.0974
  410loPI   C1A 6551   4.679  17.311   9.927 -0.3359  0.2416 -0.0068
  410loPI   C2A 6552   4.784  17.056   9.405 -0.2564  0.0793 -0.1116
  410loPI   C3A 6553   4.934  17.080   8.926 -0.0539  0.0791  0.1154
  410loPI   C4A 6554   4.839  17.283   8.508 -0.0615 -0.0162 -0.0207
  410loPI   C5A 6555   4.553  17.598   8.400  0.2941 -0.1569 -0.1844
  410loPI   C6A 6556   4.515  17.941   8.027 -0.0815 -0.1446  0.1573
  410loPI   C1B 6557   4.144  17.260   9.827  0.2141  0.0297 -0.0915
  410loPI   C2B 6558   4.413  17.540   9.544  0.0130 -0.0843  0.0960
  410loPI   C3B 6559   4.188  17.878   9.163  0.0403  0.1511  0.2117
  410loPI   C4B 6560   3.770  17.933   9.033 -0.1570 -0.5073  0.1820
  411loPI    C1 6561   5.981  11.352   9.843 -0.1684 -0.1918 -0.1082
  411loPI    C2 6562   5.901  11.645  10.104 -0.1241 -0.0860 -0.2123
  411loPI    C3 6563   5.807  11.690   9.718 -0.0099 -0.1606 -0.2494
  411loPI   PO4 6564   5.850  11.124   9.930 -0.1064 -0.0634 -0.2246
  411loPI   GL1 6565   5.658  10.875   9.507  0.0058  0.2725  0.0862
  411loPI   GL2 6566   5.601  11.221   9.460 -0.2518  0.2893 -0.0099
  411loPI   C1A 6567   5.804  10.684   9.056  0.1596 -0.0022 -0.3205
  411loPI   C2A 6568   5.811  10.472   8.704 -0.0311 -0.2954 -0.0714
  411loPI   C3A 6569   5.886  10.384   8.330  0.2632 -0.2124 -0.0474
  411loPI   C4A 6570   5.889  10.559   7.937  0.0128 -0.1210 -0.1059
  411loPI   C5A 6571   5.590  10.982   7.846 -0.0067 -0.2967  0.0151
  411loPI   C6A 6572   5.243  11.029   7.569  0.0933 -0.0484 -0.0439
  411loPI   C1B 6573   5.406  11.041   9.110 -0.0318  0.1686 -0.0713
  411loPI   C2B 6574   5.435  10.860   8.626 -0.0594  0.0509  0.2855
  411loPI   C3B 6575   5.781  10.953   8.274 -0.0718  0.1646  0.0091
  411loPI   C4B 6576   6.023  11.166   7.921  0.0745 -0.1696  0.0646
  412loPI    C1 6577   2.396  17.835  10.635  0.0804 -0.0816  0.0424
  412loPI    C2 6578   2.190  17.980  10.324  0.1322 -0.1264 -0.0131
  412loPI    C3 6579   2.358  18.230  10.587  0.1534 -0.0871 -0.0640
  412loPI   PO4 6580   2.448  17.600  10.485  0.0928 -0.1878 -0.1428
  412loPI   GL1 6581   2.664  17.575  10.100 -0.0352 -0.0090 -0.2163
  412loPI   GL2 6582   2.306  17.573  10.010 -0.0712 -0.2920 -0.2910
  412loPI   C1A 6583   2.735  17.295   9.791  0.1441  0.0929 -0.0134
  412loPI   C2A 6584   2.564  17.158   9.370  0.2509  0.0553 -0.1415
  412loPI   C3A 6585   2.447  17.114   9.020  0.3387 -0.2332 -0.0435
  412loPI   C4A 6586   2.363  17.055   8.545 -0.0455 -0.1096  0.3553
  412loPI   C5A 6587   2.375  16.821   8.116 -0.3079 -0.0353 -0.2872
  412loPI   C6A 6588   2.168  16.472   7.872 -0.0177  0.3304  0.3947
  412loPI   C1B 6589   2.205  17.339   9.690 -0.2048 -0.0700  0.2571
  412loPI   C2B 6590   2.104  17.377   9.239 -0.2946 -0.1758 -0.0692
  412loPI   C3B 6591   2.169  17.511   8.801 -0.1586  0.0312 -0.1515
  412loPI   C4B 6592   2.176  17.737   8.457 -0.2560 -0.5224 -0.0589
  413loPI    C1 6593   4.122  13.506  10.448 -0.0310 -0.0471  0.0451
  413loPI    C2 6594   4.323  13.215  10.635  0.1319  0.0492  0.0214
  413loPI    C3 6595   3.935  13.271  10.712  0.1213 -0.1171  0.0917
  413loPI   PO4 6596   4.210  13.454  10.204 -0.1275  0.1626 -0.2048
  413loPI   GL1 6597   4.187  13.561   9.896 -0.4029  0.2434 -0.0405
  413loPI   GL2 6598   4.097  13.349   9.748  0.4147 -0.1001 -0.0411
  413loPI   C1A 6599   4.305  13.803   9.528 -0.0678 -0.0887  0.1044
  413loPI   C2A 6600   4.133  13.875   9.124  0.2066  0.0219  0.1996
  413loPI   C3A 6601   3.756  13.930   8.816 -0.3742 -0.2772  0.0216
  413loPI   C4A 6602   3.683  13.969   8.370 -0.1498 -0.0849  0.3917
  413loPI   C5A 6603   3.993  13.964   8.120  0.0095 -0.1218  0.3287
  413loPI   C6A 6604   4.188  13.855   7.811  0.1409  0.3028 -0.0918
  413loPI   C1B 6605   4.073  13.404   9.340  0.0025  0.0219  0.1391
  413loPI   C2B 6606   4.012  13.490   8.832  0.1222  0.0368  0.2694
  413loPI   C3B 6607   4.167  13.776   8.560 -0.2062 -0.0720 -0.2659
  413loPI   C4B 6608   4.156  14.194   8.535  0.0194 -0.1136  0.0954
  414loPI    C1 6609   1.834   4.851  10.285  0.1400  0.0198 -0.0008
  414loPI    C2 6610   2.193   4.786  10.451 -0.0295  0.0502  0.3875
  414loPI    C3 6611   1.859   4.698  10.654 -0.2448 -0.0484  0.0012
  414loPI   PO4 6612   1.825   4.727  10.086  0.1440 -0.3351 -0.0365
  414loPI   GL1 6613   1.642   4.663   9.668  0.0397 -0.1489 -0.0395
  414loPI   GL2 6614   1.413   4.967   9.695 -0.0602 -0.1634 -0.2667
  414loPI   C1A 6615   1.499   4.841   9.241 -0.0539  0.0954 -0.3794
  414loPI   C2A 6616   1.201   5.105   9.000  0.0428 -0.0695  0.1876
  414loPI   C3A 6617   1.207   5.175   8.672  0.2390  0.0663  0.0666
  414loPI   C4A 6618   1.186   5.298   8.288  0.0260 -0.0891  0.7039
  414loPI   C5A 6619   1.385   5.620   7.946  0.0548  0.0096 -0.3047
  414loPI   C6A 6620   1.091   5.885   7.670 -0.2015  0.0060 -0.3944
  414loPI   C1B 6621   1.149   5.162   9.486 -0.0600  0.3298  0.3966
  414loPI   C2B 6622   0.800   5.049   9.278  0.0155 -0.0635  0.1823
  414loPI   C3B 6623   0.735   5.016   8.848 -0.0336 -0.0778 -0.1057
  414loPI   C4B 6624   0.368   5.162   8.566  0.0643 -0.4007 -0.2041
  415loPI    C1 6625  14.193  14.517  10.808  0.2731 -0.3857 -0.1135
  415loPI    C2 6626  14.530  14.440  11.010  0.2864 -0.2218 -0.0713
  415loPI    C3 6627  14.222  14.616  11.194  0.2673 -0.1485 -0.1724
  415loPI   PO4 6628  14.314  14.538  10.458 -0.1684 -0.1787  0.3722
  415loPI   GL1 6629  14.131  14.544  10.061 -0.1554  0.1082  0.1550
  415loPI   GL2 6630  14.012  14.816   9.871 -0.0889 -0.4422  0.1744
  415loPI   C1A 6631  14.234  14.339   9.655 -0.0276 -0.0626 -0.4313
  415loPI   C2A 6632  14.220  14.144   9.208  0.1134  0.2319  0.1309
  415loPI   C3A 6633  14.268  14.037   8.858  0.1170  0.0015  0.1999
  415loPI   C4A 6634  14.135  14.023   8.377  0.0957  0.2487  0.1875
  415loPI   C5A 6635  14.055  14.070   7.961  0.0452 -0.0180  0.1612
  415loPI   C6A 6636  14.190  14.003   7.686 -0.0703 -0.1169  0.1314
  415loPI   C1B 6637  13.961  14.813   9.442  0.0679  0.3190  0.0813
  415loPI   C2B 6638  13.820  14.932   8.980  0.1274  0.2484  0.0696
  415loPI   C3B 6639  13.852  14.808   8.579 -0.0488  0.0197 -0.3361
  415loPI   C4B 6640  13.908  15.044   8.249  0.1358 -0.1590 -0.0931
  416loPI    C1 6641  12.622   4.818  10.425  0.1771 -0.0436 -0.1449
  416loPI    C2 6642  12.802   4.671  10.750  0.2300  0.2118 -0.0562
  416loPI    C3 6643  12.406   4.633  10.706  0.2420  0.0519 -0.0309
  416loPI   PO4 6644  12.661   4.665  10.068 -0.1307  0.3065  0.1465
  416loPI   GL1 6645  12.762   4.821   9.621  0.1803  0.0960  0.2503
  416loPI   GL2 6646  12.879   4.595   9.616  0.3097 -0.2303  0.1842
  416loPI   C1A 6647  12.561   4.844   9.246  0.0405  0.3736 -0.1636
  416loPI   C2A 6648  12.538   4.631   8.956 -0.0763  0.0699 -0.2272
  416loPI   C3A 6649  12.374   4.489   8.712 -0.0532  0.2462 -0.1485
  416loPI   C4A 6650  12.566   4.262   8.314 -0.3377 -0.1571 -0.1703
  416loPI   C5A 6651  12.542   3.902   8.088 -0.1187 -0.1559 -0.1192
  416loPI   C6A 6652  12.564   3.416   7.933 -0.0180  0.2823  0.3827
  416loPI   C1B 6653  12.982   4.476   9.165  0.0866  0.1201  0.2086
  416loPI   C2B 6654  12.928   4.297   8.777  0.0275 -0.1456 -0.0661
  416loPI   C3B 6655  13.052   4.202   8.341 -0.1475 -0.2965  0.1856
  416loPI   C4B 6656  13.081   4.242   8.003  0.1443  0.1248 -0.2110
  417loPI    C1 6657  12.380  10.412  10.423 -0.3480 -0.2367  0.1874
  417loPI    C2 6658  12.375  10.122  10.148 -0.2914 -0.1923  0.1393
  417loPI    C3 6659  12.523  10.049  10.512 -0.0074 -0.1430  0.0356
  417loPI   PO4 6660  12.618  10.608  10.347 -0.2736  0.0982  0.2435
  417loPI   GL1 6661  12.588  10.644   9.899  0.1441 -0.1780 -0.0670
  417loPI   GL2 6662  12.285  10.661   9.946  0.0824  0.2718  0.3625
  417loPI   C1A 6663  12.528  10.678   9.462  0.2125  0.1556 -0.0444
  417loPI   C2A 6664  12.614  10.548   8.996  0.2483  0.1474  0.1458
  417loPI   C3A 6665  12.540  10.697   8.628 -0.1223 -0.0581 -0.3947
  417loPI   C4A 6666  12.265  10.668   8.257 -0.1419 -0.0461  0.1008
  417loPI   C5A 6667  11.963  10.838   7.918  0.1959  0.0151 -0.3281
  417loPI   C6A 6668  11.771  11.163   7.802 -0.2003  0.0445  0.0491
  417loPI   C1B 6669  12.060  10.764   9.551 -0.1402  0.0315  0.0921
  417loPI   C2B 6670  12.109  10.790   9.068  0.1296  0.3136  0.0661
  417loPI   C3B 6671  12.098  10.933   8.658 -0.0771 -0.0977 -0.0299
  417loPI   C4B 6672  11.993  11.333   8.359  0.0177 -0.1572 -0.1722
  418loPI    C1 6673   8.005  11.713  10.207 -0.0416 -0.0707  0.0504
  418loPI    C2 6674   7.779  11.414  10.346  0.0710 -0.1303  0.1062
  418loPI    C3 6675   7.946  11.673  10.601  0.0299 -0.0603  0.0622
  418loPI   PO4 6676   8.154  11.562  10.046  0.0223 -0.1410  0.0315
  418loPI   GL1 6677   8.202  11.389   9.625  0.3543 -0.2818  0.1409
  418loPI   GL2 6678   8.002  11.226   9.761  0.0407 -0.0930  0.0222
  418loPI   C1A 6679   8.178  11.376   9.181  0.1396  0.1210  0.0509
  418loPI   C2A 6680   8.194  11.408   8.722 -0.2413 -0.2264 -0.0223
  418loPI   C3A 6681   8.291  11.419   8.297  0.3218 -0.2808  0.0542
  418loPI   C4A 6682   8.382  11.585   7.889 -0.1904 -0.0824  0.0317
  418loPI   C5A 6683   8.734  11.405   7.576 -0.5171 -0.0933 -0.1685
  418loPI   C6A 6684   9.104  11.220   7.644 -0.0247 -0.2008  0.1974
  418loPI   C1B 6685   7.692  11.143   9.350 -0.0546  0.1651 -0.2384
  418loPI   C2B 6686   7.825  11.142   8.935 -0.0849 -0.2408  0.1935
  418loPI   C3B 6687   7.728  11.146   8.440 -0.0323 -0.1088 -0.1430
  418loPI   C4B 6688   7.921  11.321   7.983 -0.0246 -0.0555 -0.1545
  419loPI    C1 6689  16.420   2.747   9.865  0.3143 -0.1664 -0.0879
  419loPI    C2 6690  16.380   2.883  10.239  0.0600 -0.1624 -0.1142
  419loPI    C3 6691  16.643   3.054   9.990 -0.1900  0.2274 -0.1196
  419loPI   PO4 6692  16.400   2.565   9.775 -0.0009 -0.2806  0.0336
  419loPI   GL1 6693  16.511   2.261   9.380 -0.0690 -0.2330  0.2521
  419loPI   GL2 6694  16.354   2.595   9.214 -0.0561  0.2124  0.1781
  419loPI   C1A 6695  16.627   1.946   9.067 -0.1775 -0.0090  0.2622
  419loPI   C2A 6696  16.399   1.637   8.988 -0.0519 -0.4376  0.3777
  419loPI   C3A 6697  16.076   1.432   8.584  0.0413 -0.2275 -0.2782
  419loPI   C4A 6698  16.038   1.411   8.103  0.1299 -0.0038  0.1402
  419loPI   C5A 6699  16.335   1.504   7.781 -0.3165 -0.1855 -0.2000
  419loPI   C6A 6700  16.723   1.810   7.912  0.1568  0.1821  0.0899
  419loPI   C1B 6701  16.443   2.351   8.704  0.2244  0.0468 -0.0304
  419loPI   C2B 6702  16.497   2.111   8.362  0.1879  0.1411  0.1279
  419loPI   C3B 6703  16.414   1.685   8.316 -0.1632  0.1668  0.1968
  419loPI   C4B 6704  16.672   1.399   8.237 -0.2331  0.0705  0.4874
  420loPI    C1 6705   3.428   8.229   9.943  0.0638 -0.2621  0.1421
  420loPI    C2 6706   3.580   7.885  10.078  0.1271 -0.2422  0.1218
  420loPI    C3 6707   3.825   8.178   9.959  0.0724 -0.2996 -0.1381
  420loPI   PO4 6708   3.257   8.199   9.861  0.1935  0.1017 -0.0316
  420loPI   GL1 6709   3.259   8.212   9.482  0.1184  0.1730  0.3772
  420loPI   GL2 6710   3.198   8.616   9.477  0.0312  0.2858 -0.0951
  420loPI   C1A 6711   2.966   8.119   9.093 -0.0541  0.1501 -0.0485
  420loPI   C2A 6712   2.805   8.182   8.720 -0.2590 -0.0662 -0.2957
  420loPI   C3A 6713   2.416   8.367   8.524 -0.3322 -0.3221  0.1042
  420loPI   C4A 6714   2.341   8.711   8.361 -0.1653  0.0552 -0.1861
  420loPI   C5A 6715   2.577   9.020   8.101 -0.2706  0.0491  0.0859
  420loPI   C6A 6716   2.913   9.213   7.810 -0.0644 -0.4543  0.2773
  420loPI   C1B 6717   3.323   8.504   9.090  0.0659 -0.1256  0.0159
  420loPI   C2B 6718   3.372   8.290   8.613 -0.0152  0.2468 -0.3548
  420loPI   C3B 6719   3.347   8.393   8.145 -0.1905  0.2381 -0.2049
  420loPI   C4B 6720   3.519   8.331   7.765 -0.1971 -0.2995 -0.0067
  421loPI    C1 6721   1.470  13.746  10.253  0.3830 -0.2288  0.0724
  421loPI    C2 6722   1.379  13.644  10.629  0.0030  0.1728  0.0976
  421loPI    C3 6723   1.572  13.987  10.555  0.0794  0.0942 -0.0744
  421loPI   PO4 6724   1.511  13.585  10.136 -0.0474 -0.0920 -0.2185
  421loPI   GL1 6725   1.660  13.523   9.832  0.0275 -0.1340  0.1088
  421loPI   GL2 6726   1.811  13.286   9.605  0.3288 -0.1255 -0.1722
  421loPI   C1A 6727   1.636  13.731   9.419 -0.0734 -0.2509  0.0345
  421loPI   C2A 6728   1.652  13.719   8.959  0.2332  0.1070 -0.0605
  421loPI   C3A 6729   1.765  13.871   8.619 -0.1125  0.0800  0.1535
  421loPI   C4A 6730   1.999  13.947   8.370 -0.0274 -0.1021  0.2217
  421loPI   C5A 6731   2.031  14.359   8.084 -0.3072 -0.1420 -0.0406
  421loPI   C6A 6732   2.267  14.521   7.775 -0.0927  0.0381 -0.2542
  421loPI   C1B 6733   1.921  13.279   9.134 -0.1033  0.0543 -0.0991
  421loPI   C2B 6734   1.796  13.341   8.705 -0.0462 -0.0626 -0.0172
  421loPI   C3B 6735   2.092  13.397   8.345  0.1669 -0.1389  0.2495
  421loPI   C4B 6736   2.277  13.541   8.131  0.0712 -0.1191  0.0323
  422loPI    C1 6737   0.097   6.202  10.049 -0.0217 -0.1597 -0.1689
  422loPI    C2 6738   0.126   5.912  10.323 -0.0461  0.1181  0.1326
  422loPI    C3 6739  -0.225   5.983  10.143 -0.1102  0.1447  0.2663
  422loPI   PO4 6740   0.245   6.191   9.909 -0.2331  0.2739  0.0218
  422loPI   GL1 6741   0.482   6.078   9.615  0.1631  0.0597 -0.0107
  422loPI   GL2 6742   0.617   6.340   9.433  0.1342  0.2209 -0.0600
  422loPI   C1A 6743   0.398   5.914   9.196 -0.1400  0.0251 -0.0855
  422loPI   C2A 6744   0.161   6.121   8.906  0.2820  0.0652  0.0068
  422loPI   C3A 6745   0.157   6.096   8.505  0.0267 -0.1783 -0.0400
  422loPI   C4A 6746   0.207   6.041   8.028 -0.1653  0.1088 -0.3319
  422loPI   C5A 6747   0.437   5.756   7.774  0.0039  0.1964  0.1425
  422loPI   C6A 6748   0.334   5.311   7.576 -0.1423 -0.1562 -0.1043
  422loPI   C1B 6749   0.496   6.518   9.066 -0.1978 -0.0037  0.2681
  422loPI   C2B 6750   0.316   6.555   8.641 -0.0226  0.0349  0.3273
  422loPI   C3B 6751   0.179   6.540   8.253  0.3110  0.0682  0.1809
  422loPI   C4B 6752  -0.203   6.306   8.139  0.2717 -0.1510  0.0345
  423loPI    C1 6753  12.568  11.550  10.145 -0.1643 -0.2925 -0.0267
  423loPI    C2 6754  12.335  11.381  10.423 -0.2060 -0.0492  0.0894
  423loPI    C3 6755  12.706  11.496  10.517 -0.1193 -0.2245 -0.0333
  423loPI   PO4 6756  12.522  11.535   9.947  0.0924 -0.2414 -0.0193
  423loPI   GL1 6757  12.238  11.581   9.621  0.2634 -0.1533  0.1173
  423loPI   GL2 6758  12.531  11.645   9.478  0.1384  0.2873  0.1033
  423loPI   C1A 6759  12.129  11.525   9.182  0.2225  0.1435  0.0377
  423loPI   C2A 6760  12.084  11.595   8.757 -0.1800  0.0756 -0.1673
  423loPI   C3A 6761  12.002  11.840   8.365  0.2024  0.3373  0.1830
  423loPI   C4A 6762  11.886  12.084   8.058  0.0516 -0.0801  0.2712
  423loPI   C5A 6763  11.928  12.080   7.601 -0.2506  0.1389 -0.1902
  423loPI   C6A 6764  11.949  11.968   7.089 -0.3473 -0.2096  0.1616
  423loPI   C1B 6765  12.555  11.635   8.996 -0.2194 -0.0251  0.0023
  423loPI   C2B 6766  12.511  11.909   8.639  0.2511 -0.1346  0.1213
  423loPI   C3B 6767  12.812  12.020   8.285 -0.1220 -0.4107  0.6371
  423loPI   C4B 6768  12.926  12.118   7.953  0.2939 -0.0296  0.0663
  424loPI    C1 6769   7.713  12.805  10.060 -0.0292  0.0329 -0.0392
  424loPI    C2 6770   7.746  12.848  10.456 -0.0490  0.1872 -0.0538
  424loPI    C3 6771   7.857  13.145  10.212  0.1526  0.0170 -0.1726
  424loPI   PO4 6772   7.580  12.479  10.051  0.0627  0.0052  0.1904
  424loPI   GL1 6773   7.289  12.547   9.725 -0.2110  0.0125  0.0008
  424loPI   GL2 6774   7.533  12.640   9.562  0.0204  0.2735 -0.3466
  424loPI   C1A 6775   7.082  12.907   9.404 -0.0742 -0.3255  0.2645
  424loPI   C2A 6776   7.029  13.073   8.925  0.0452  0.1269  0.4028
  424loPI   C3A 6777   6.880  12.905   8.434 -0.1569  0.1925 -0.0346
  424loPI   C4A 6778   6.798  12.743   8.073 -0.1299 -0.0109  0.2957
  424loPI   C5A 6779   6.643  12.338   7.917 -0.1282 -0.1144 -0.1856
  424loPI   C6A 6780   6.308  12.183   8.156 -0.1594  0.0686 -0.4168
  424loPI   C1B 6781   7.714  12.443   9.297  0.0407  0.0207 -0.1034
  424loPI   C2B 6782   7.854  12.261   8.955 -0.3826  0.1092  0.2029
  424loPI   C3B 6783   8.069  12.356   8.516 -0.1113 -0.2904  0.0215
  424loPI   C4B 6784   8.382  12.597   8.238  0.0780 -0.0991  0.0893
  425loPI    C1 6785  12.316  13.939  10.565  0.1646  0.0047 -0.0882
  425loPI    C2 6786  12.454  13.600  10.727 -0.2628 -0.0560  0.1666
  425loPI    C3 6787  12.371  13.913  10.961 -0.4048  0.0317  0.0012
  425loPI   PO4 6788  12.189  13.873  10.415  0.0183  0.1732  0.1634
  425loPI   GL1 6789  12.145  14.025  10.015  0.1131  0.0453 -0.0499
  425loPI   GL2 6790  12.205  14.338   9.855  0.0842  0.1322 -0.0239
  425loPI   C1A 6791  12.129  13.859   9.607 -0.2404  0.3371  0.2448
  425loPI   C2A 6792  12.191  14.202   9.224 -0.2201  0.0938 -0.0947
  425loPI   C3A 6793  12.155  14.241   8.728 -0.1609  0.1340  0.2658
  425loPI   C4A 6794  11.986  14.361   8.325  0.1240 -0.4214 -0.1422
  425loPI   C5A 6795  11.772  14.122   8.120 -0.2318  0.0533 -0.0474
  425loPI   C6A 6796  11.608  13.971   7.629 -0.0136 -0.1406 -0.5232
  425loPI   C1B 6797  12.358  14.651   9.462  0.1494 -0.0400  0.2530
  425loPI   C2B 6798  12.326  14.998   9.072 -0.1330 -0.1596 -0.0573
  425loPI   C3B 6799  12.335  15.210   8.676 -0.0258 -0.0492  0.2372
  425loPI   C4B 6800  12.534  15.216   8.273 -0.0838  0.3311  0.2876
  426loPI    C1 6801  10.357   9.455  10.320  0.2925 -0.0124  0.5193
  426loPI    C2 6802  10.147   9.328  10.636 -0.1744 -0.2937  0.1110
  426loPI    C3 6803  10.403   9.080  10.453 -0.3625 -0.3363 -0.0986
  426loPI   PO4 6804  10.206   9.598  10.066 -0.2660 -0.0518 -0.0198
  426loPI   GL1 6805   9.991   9.531   9.667 -0.1592 -0.0058  0.1472
  426loPI   GL2 6806   9.737   9.605   9.463 -0.1072 -0.0492 -0.0367
  426loPI   C1A 6807  10.183   9.860   9.344  0.0621  0.5335  0.2586
  426loPI   C2A 6808  10.285  10.084   8.966  0.0075 -0.0290 -0.2115
  426loPI   C3A 6809  10.555  10.390   8.685 -0.0520  0.1776  0.0131
  426loPI   C4A 6810  10.825  10.486   8.338  0.1357 -0.0214  0.2157
  426loPI   C5A 6811  10.791  10.860   8.124  0.1121 -0.1625 -0.2545
  426loPI   C6A 6812  10.694  10.999   7.730 -0.2760  0.2475  0.1444
  426loPI   C1B 6813   9.789   9.700   8.955 -0.2250  0.0624 -0.2981
  426loPI   C2B 6814   9.597   9.740   8.601 -0.0316 -0.2418  0.1351
  426loPI   C3B 6815   9.620   9.772   8.137 -0.0867  0.4172 -0.0936
  426loPI   C4B 6816   9.745   9.703   7.688 -0.0612 -0.1385 -0.1604
  427loPI    C1 6817  10.714  12.317  10.161 -0.0604 -0.1548  0.0362
  427loPI    C2 6818  10.694  12.160  10.528  0.0670 -0.0782  0.0766
  427loPI    C3 6819  10.938  12.468  10.456 -0.2122  0.1321  0.0092
  427loPI   PO4 6820  10.476  12.264  10.034  0.3611 -0.1122 -0.1723
  427loPI   GL1 6821  10.339  12.397   9.625  0.0834  0.0050 -0.0866
  427loPI   GL2 6822  10.042  12.394   9.754 -0.1592  0.1960  0.1267
  427loPI   C1A 6823  10.370  12.421   9.164  0.0795  0.2696 -0.0003
  427loPI   C2A 6824  10.228  12.439   8.858 -0.0051 -0.0973  0.0056
  427loPI   C3A 6825  10.300  12.331   8.429 -0.0544  0.1668 -0.1027
  427loPI   C4A 6826  10.382  12.131   8.018 -0.0406  0.2950 -0.0967
  427loPI   C5A 6827  10.330  11.751   7.764 -0.2510 -0.0924 -0.1687
  427loPI   C6A 6828  10.385  11.438   7.494  0.1655  0.0293  0.1017
  427loPI   C1B 6829   9.912  12.218   9.273 -0.0267 -0.1618 -0.2802
  427loPI   C2B 6830   9.939  12.010   9.016 -0.0408 -0.1867  0.1276
  427loPI   C3B 6831   9.882  12.053   8.685 -0.2141 -0.2165 -0.0351
  427loPI   C4B 6832   9.872  12.043   8.223 -0.2102  0.3353 -0.2723
  428loPI    C1 6833  13.141   5.020  10.283 -0.0750  0.1065  0.0238
  428loPI    C2 6834  12.940   5.187  10.586 -0.0687 -0.0062  0.0910
  428loPI    C3 6835  13.246   4.941  10.661  0.0433  0.1004 -0.0097
  428loPI   PO4 6836  13.023   5.189  10.076  0.0444  0.0172  0.1038
  428loPI   GL1 6837  13.030   5.436   9.719  0.3084  0.1450 -0.0969
  428loPI   GL2 6838  12.712   5.444   9.491 -0.0960  0.0185 -0.0712
  428loPI   C1A 6839  13.246   5.356   9.395 -0.1923 -0.0811 -0.0374
  428loPI   C2A 6840  13.100   5.441   8.982 -0.1710  0.2182 -0.0114
  428loPI   C3A 6841  13.233   5.366   8.613  0.3102  0.1159  0.1055
  428loPI   C4A 6842  13.179   5.063   8.301 -0.0388 -0.1871 -0.1661
  428loPI   C5A 6843  13.021   5.220   7.975  0.0339  0.1955 -0.1886
  428loPI   C6A 6844  12.725   5.426   7.695 -0.1044  0.1861  0.1515
  428loPI   C1B 6845  12.567   5.367   9.226  0.0356  0.2966 -0.0546
  428loPI   C2B 6846  12.609   5.190   8.897  0.0419  0.0496  0.3775
  428loPI   C3B 6847  12.705   5.106   8.454 -0.0520  0.0247 -0.1178
  428loPI   C4B 6848  12.868   4.664   8.241  0.0965 -0.0067 -0.0222
  429loPI    C1 6849   6.927   6.916   9.628  0.0223 -0.0748 -0.1279
  429loPI    C2 6850   6.897   6.883  10.025  0.0923  0.3008 -0.0882
  429loPI    C3 6851   7.174   6.673   9.828  0.0287  0.0798  0.0549
  429loPI   PO4 6852   6.864   7.128   9.560  0.0125 -0.2922 -0.2674
  429loPI   GL1 6853   6.630   7.345   9.234  0.2316 -0.0499  0.3476
  429loPI   GL2 6854   6.421   7.067   9.254  0.0058 -0.0252 -0.0608
  429loPI   C1A 6855   6.633   7.675   9.080  0.1505  0.0930 -0.2402
  429loPI   C2A 6856   6.785   7.694   8.717 -0.0187  0.0519  0.1933
  429loPI   C3A 6857   6.777   7.914   8.295  0.0047  0.1982 -0.1469
  429loPI   C4A 6858   7.075   7.952   7.989  0.2955  0.1142  0.0622
  429loPI   C5A 6859   7.078   7.617   7.720 -0.0522  0.3545  0.1174
  429loPI   C6A 6860   7.424   7.547   7.456 -0.1163  0.1595 -0.0497
  429loPI   C1B 6861   6.337   6.973   8.830 -0.0444  0.1142 -0.1917
  429loPI   C2B 6862   6.297   7.024   8.303 -0.0222  0.0598 -0.3179
  429loPI   C3B 6863   6.233   7.183   7.880 -0.2236  0.2544  0.0429
  429loPI   C4B 6864   6.317   7.047   7.493 -0.0973 -0.0680  0.0631
  430loPI    C1 6865  11.590  13.098  10.312  0.0697  0.0941 -0.0892
  430loPI    C2 6866  11.580  13.475  10.446  0.0089  0.0598  0.0037
  430loPI    C3 6867  11.338  13.199  10.606  0.1692 -0.0561  0.0492
  430loPI   PO4 6868  11.586  13.160  10.045 -0.0975  0.3204  0.0233
  430loPI   GL1 6869  11.404  12.920   9.780 -0.1358  0.1671 -0.0061
  430loPI   GL2 6870  11.212  13.099   9.796 -0.1895  0.0381 -0.0353
  430loPI   C1A 6871  11.610  12.974   9.318 -0.0806 -0.3790 -0.0684
  430loPI   C2A 6872  11.572  12.919   8.929  0.0580  0.1326 -0.1118
  430loPI   C3A 6873  11.550  12.746   8.550 -0.0198 -0.0760  0.0185
  430loPI   C4A 6874  11.838  12.514   8.284  0.1115  0.1138  0.1111
  430loPI   C5A 6875  11.764  12.549   7.817  0.1925  0.3324  0.2115
  430loPI   C6A 6876  11.437  12.952   7.793  0.1445  0.0598 -0.0643
  430loPI   C1B 6877  11.300  13.334   9.495  0.1313  0.1340  0.2696
  430loPI   C2B 6878  11.457  13.411   9.068 -0.2331 -0.3811  0.0374
  430loPI   C3B 6879  11.596  13.356   8.693  0.0870 -0.0823 -0.0857
  430loPI   C4B 6880  11.471  13.239   8.313  0.0054 -0.3641 -0.0330
  431loPI    C1 6881   8.054  14.813  10.793  0.1446  0.2109  0.0821
  431loPI    C2 6882   8.445  14.881  10.847  0.1888 -0.0094  0.0479
  431loPI    C3 6883   8.221  14.748  11.151  0.1589  0.0332  0.0445
  431loPI   PO4 6884   7.991  14.640  10.528  0.2499 -0.0933 -0.0979
  431loPI   GL1 6885   7.931  14.717  10.108 -0.2077  0.1109 -0.0658
  431loPI   GL2 6886   7.739  14.466  10.055 -0.0704  0.2894 -0.0016
  431loPI   C1A 6887   8.061  15.009   9.754  0.1920  0.0119 -0.0324
  431loPI   C2A 6888   8.036  15.007   9.316 -0.0510 -0.1040  0.0098
  431loPI   C3A 6889   8.136  15.244   8.846 -0.0894  0.0072  0.2841
  431loPI   C4A 6890   8.161  15.435   8.409 -0.2056  0.2001  0.0064
  431loPI   C5A 6891   8.020  15.287   8.031 -0.0696  0.0839 -0.1553
  431loPI   C6A 6892   7.622  15.229   7.925 -0.0705  0.0264 -0.1274
  431loPI   C1B 6893   7.759  14.665   9.628  0.1756 -0.0308 -0.0153
  431loPI   C2B 6894   7.648  14.634   9.218  0.1587  0.3939  0.1111
  431loPI   C3B 6895   7.263  14.807   8.965  0.0378 -0.1008 -0.1003
  431loPI   C4B 6896   7.242  14.676   8.582 -0.0024 -0.1650  0.1747
  432loPI    C1 6897   3.308  15.854  10.584 -0.1323  0.0939 -0.2216
  432loPI    C2 6898   3.311  16.177  10.819 -0.0755  0.0372 -0.1438
  432loPI    C3 6899   3.627  15.933  10.812 -0.0572  0.0651 -0.3166
  432loPI   PO4 6900   3.224  15.944  10.313 -0.2145 -0.0398  0.1486
  432loPI   GL1 6901   2.978  15.829   9.911  0.0852 -0.1669 -0.0757
  432loPI   GL2 6902   2.831  15.996   9.979 -0.1234  0.1492  0.0021
  432loPI   C1A 6903   3.140  15.942   9.434 -0.1469  0.0072 -0.0473
  432loPI   C2A 6904   3.081  15.816   8.960 -0.0373 -0.1806 -0.1785
  432loPI   C3A 6905   3.009  15.777   8.486 -0.4683 -0.0146 -0.0728
  432loPI   C4A 6906   2.800  15.886   8.163  0.3157  0.0901  0.0263
  432loPI   C5A 6907   2.369  15.981   7.877 -0.2504 -0.0410 -0.0405
  432loPI   C6A 6908   2.141  15.953   7.616 -0.1353  0.2746  0.0559
  432loPI   C1B 6909   2.653  16.205   9.694 -0.0943  0.1118  0.0540
  432loPI   C2B 6910   2.649  16.027   9.248 -0.1340 -0.0717  0.1862
  432loPI   C3B 6911   2.537  15.773   8.897  0.0540 -0.1633 -0.1936
  432loPI   C4B 6912   2.388  15.819   8.488  0.1687  0.1854  0.1312
  433loPI    C1 6913   4.508   2.905  10.301 -0.1878  0.0802  0.2204
  433loPI    C2 6914   4.284   3.056  10.005  0.3505  0.2387 -0.1210
  433loPI    C3 6915   4.351   3.272  10.336 -0.0952  0.1382  0.0419
  433loPI   PO4 6916   4.670   2.769  10.197  0.0409 -0.1442  0.2994
  433loPI   GL1 6917   4.757   2.391  10.106 -0.1927 -0.2127  0.1071
  433loPI   GL2 6918   4.563   2.251   9.812  0.3014  0.0118 -0.0098
  433loPI   C1A 6919   5.143   2.309   9.868  0.3113 -0.0115  0.0452
  433loPI   C2A 6920   5.310   2.006   9.594  0.0565 -0.0393 -0.2126
  433loPI   C3A 6921   5.471   1.847   9.175 -0.0900  0.1778 -0.2083
  433loPI   C4A 6922   5.669   1.896   8.793  0.3157 -0.0028  0.1082
  433loPI   C5A 6923   5.723   1.778   8.456 -0.1440 -0.1847  0.0860
  433loPI   C6A 6924   5.748   1.741   8.040  0.0641  0.0921 -0.4519
  433loPI   C1B 6925   4.375   2.161   9.448  0.2244  0.0568  0.1495
  433loPI   C2B 6926   4.289   2.026   9.016 -0.2524  0.2057  0.0211
  433loPI   C3B 6927   4.559   1.877   8.653 -0.0975 -0.0242 -0.3261
  433loPI   C4B 6928   4.622   1.810   8.117 -0.2819 -0.0886 -0.2460
  434loPI    C1 6929   9.817  14.646  10.383  0.0891 -0.1071  0.0298
  434loPI    C2 6930   9.483  14.866  10.372  0.0894 -0.1079 -0.0002
  434loPI    C3 6931   9.597  14.692  10.714 -0.0491 -0.2739 -0.0370
  434loPI   PO4 6932   9.910  14.758  10.159  0.1867  0.1312  0.0029
  434loPI   GL1 6933   9.940  14.979   9.809  0.1056  0.2649  0.0390
  434loPI   GL2 6934  10.052  15.295   9.739  0.1438 -0.0533 -0.0187
  434loPI   C1A 6935   9.908  14.724   9.443  0.0915 -0.0278  0.3245
  434loPI   C2A 6936  10.103  14.697   9.000  0.1553  0.1162  0.1354
  434loPI   C3A 6937  10.141  14.871   8.627  0.0155  0.2087 -0.0081
  434loPI   C4A 6938  10.039  15.109   8.249 -0.2904 -0.1526 -0.0219
  434loPI   C5A 6939   9.652  15.326   8.057 -0.0934 -0.0138 -0.1479
  434loPI   C6A 6940   9.755  15.800   8.073  0.0074 -0.0057  0.0391
  434loPI   C1B 6941  10.122  15.179   9.287  0.0403  0.1816 -0.0843
  434loPI   C2B 6942  10.393  15.227   8.852  0.0232 -0.3805 -0.0160
  434loPI   C3B 6943  10.385  15.372   8.458 -0.2624 -0.0065 -0.2397
  434loPI   C4B 6944  10.501  15.768   8.159 -0.3993  0.1022  0.0974
  435loPI    C1 6945   8.186   9.624  10.130  0.1013 -0.0439 -0.0188
  435loPI    C2 6946   7.912   9.583  10.419 -0.0522  0.0256 -0.1531
  435loPI    C3 6947   8.224   9.334  10.403 -0.0841 -0.0274  0.0264
  435loPI   PO4 6948   8.095   9.655   9.968 -0.1007 -0.2525  0.1754
  435loPI   GL1 6949   8.030   9.996   9.761  0.2491 -0.0970 -0.0046
  435loPI   GL2 6950   8.322  10.157   9.516  0.1746 -0.3334 -0.0081
  435loPI   C1A 6951   7.887   9.975   9.367  0.0771  0.2549 -0.0871
  435loPI   C2A 6952   7.816   9.981   8.966  0.2698  0.3576  0.3980
  435loPI   C3A 6953   7.857  10.012   8.507 -0.2491 -0.0515  0.0383
  435loPI   C4A 6954   7.906  10.122   8.110 -0.0245  0.2722 -0.0347
  435loPI   C5A 6955   7.796  10.353   7.802 -0.0060 -0.2511 -0.2058
  435loPI   C6A 6956   7.865  10.819   7.638  0.1421 -0.2152 -0.2839
  435loPI   C1B 6957   8.242  10.371   9.116  0.0034  0.1259 -0.0251
  435loPI   C2B 6958   8.221  10.329   8.680 -0.1088  0.0852  0.1014
  435loPI   C3B 6959   8.322  10.509   8.247  0.1780 -0.1624  0.1690
  435loPI   C4B 6960   8.347  10.612   7.794 -0.1746 -0.3042  0.3433
  436loPI    C1 6961  17.327  13.069  10.482 -0.1068  0.1590  0.1825
  436loPI    C2 6962  17.486  12.962  10.131 -0.1241 -0.0598  0.2396
  436loPI    C3 6963  17.724  13.043  10.441 -0.1039  0.2550  0.1454
  436loPI   PO4 6964  17.152  13.162  10.459  0.0206 -0.2210 -0.2155
  436loPI   GL1 6965  17.092  13.166   9.999 -0.0168 -0.2077  0.0206
  436loPI   GL2 6966  17.001  12.898   9.999 -0.1709  0.0390  0.0614
  436loPI   C1A 6967  17.384  13.437   9.658  0.0494 -0.3067 -0.0790
  436loPI   C2A 6968  17.274  13.562   9.346  0.2217 -0.1089  0.2177
  436loPI   C3A 6969  17.164  13.387   8.940  0.1065  0.3190 -0.0794
  436loPI   C4A 6970  17.298  13.345   8.498 -0.0413 -0.0675 -0.1368
  436loPI   C5A 6971  17.590  13.417   8.110 -0.2623 -0.2312  0.0320
  436loPI   C6A 6972  17.956  13.401   7.902  0.1773  0.3348  0.0645
  436loPI   C1B 6973  16.605  12.944   9.855 -0.0964 -0.0363  0.2064
  436loPI   C2B 6974  16.421  12.973   9.403 -0.4668  0.0627 -0.1378
  436loPI   C3B 6975  16.518  13.017   9.031  0.0606  0.0300 -0.2334
  436loPI   C4B 6976  16.691  12.650   8.676  0.4554  0.0191  0.0178
  437loPI    C1 6977  13.353   1.760  10.626 -0.0770  0.2026 -0.2216
  437loPI    C2 6978  13.002   1.569  10.638 -0.0623  0.1842 -0.0489
  437loPI    C3 6979  13.323   1.408  10.814 -0.0083  0.2851 -0.0538
  437loPI   PO4 6980  13.403   1.806  10.387  0.0679 -0.1238 -0.0799
  437loPI   GL1 6981  13.477   1.954  10.009 -0.0712  0.0837  0.0453
  437loPI   GL2 6982  13.751   2.020   9.788 -0.1423  0.0286  0.2393
  437loPI   C1A 6983  13.211   1.874   9.575  0.1613  0.1402  0.2046
  437loPI   C2A 6984  13.255   1.859   9.182  0.1287 -0.1082  0.0672
  437loPI   C3A 6985  13.315   1.774   8.703 -0.2927  0.1726  0.4024
  437loPI   C4A 6986  13.284   1.629   8.171 -0.1075  0.0720  0.1155
  437loPI   C5A 6987  13.134   1.353   7.902  0.2696 -0.4666  0.0395
  437loPI   C6A 6988  12.874   1.214   7.621 -0.0290 -0.2607 -0.1913
  437loPI   C1B 6989  13.509   2.256   9.574  0.0687 -0.0468 -0.1336
  437loPI   C2B 6990  13.418   2.338   9.204  0.3405  0.4133 -0.2880
  437loPI   C3B 6991  13.321   2.255   8.815  0.2122  0.0417 -0.2043
  437loPI   C4B 6992  13.347   2.164   8.446 -0.1381  0.1217 -0.2915
  438loPI    C1 6993  16.020  15.370  10.850 -0.1043 -0.1545  0.0432
  438loPI    C2 6994  15.713  15.555  11.028 -0.0969  0.0211 -0.1233
  438loPI    C3 6995  16.085  15.610  11.163 -0.1205 -0.0629 -0.0231
  438loPI   PO4 6996  16.092  15.423  10.532 -0.2377  0.2427 -0.2416
  438loPI   GL1 6997  16.171  15.633  10.125 -0.2418 -0.0077  0.1813
  438loPI   GL2 6998  16.479  15.630   9.997 -0.0633  0.0234 -0.1586
  438loPI   C1A 6999  16.062  15.482   9.688  0.0230 -0.0561  0.1178
  438loPI   C2A 7000  16.189  15.261   9.327  0.1620 -0.0542 -0.1560
  438loPI   C3A 7001  16.204  15.178   8.928 -0.0944 -0.2580 -0.0835
  438loPI   C4A 7002  16.452  14.812   8.746  0.1087 -0.2207 -0.1602
  438loPI   C5A 7003  16.761  14.645   8.432  0.0141  0.1597 -0.2100
  438loPI   C6A 7004  17.000  14.698   8.051  0.1314 -0.4524  0.1902
  438loPI   C1B 7005  16.604  15.448   9.594  0.2456 -0.2363  0.0716
  438loPI   C2B 7006  16.639  15.398   9.095 -0.0484  0.0257 -0.2925
  438loPI   C3B 7007  16.597  15.374   8.630 -0.1129 -0.1847 -0.1402
  438loPI   C4B 7008  16.506  15.184   8.278 -0.2024  0.0583  0.3553
  439loPI    C1 7009  16.897  18.553  10.409  0.1212 -0.0339 -0.0613
  439loPI    C2 7010  17.130  18.632  10.724 -0.1118  0.1099  0.0784
  439loPI    C3 7011  16.771  18.463  10.778 -0.1028  0.0243 -0.1216
  439loPI   PO4 7012  16.974  18.425  10.256  0.1412 -0.0253  0.1122
  439loPI   GL1 7013  17.199  18.293   9.892  0.0407  0.1137 -0.0949
  439loPI   GL2 7014  17.110  18.012   9.758  0.0038 -0.2081  0.3237
  439loPI   C1A 7015  17.228  18.501   9.548  0.2224 -0.1236 -0.0643
  439loPI   C2A 7016  17.306  18.393   9.246 -0.2827  0.2096  0.1770
  439loPI   C3A 7017  17.541  18.277   8.822  0.0040 -0.1359  0.0028
  439loPI   C4A 7018  17.551  18.115   8.375  0.1112  0.0503 -0.2425
  439loPI   C5A 7019  17.567  18.114   8.020  0.3579  0.1701  0.0652
  439loPI   C6A 7020  17.794  17.976   7.608 -0.0285  0.2055 -0.0146
  439loPI   C1B 7021  17.000  17.935   9.406  0.5189 -0.1000 -0.1476
  439loPI   C2B 7022  17.091  18.121   8.937  0.2286 -0.0386 -0.1596
  439loPI   C3B 7023  17.154  18.351   8.542  0.1555 -0.1375  0.1448
  439loPI   C4B 7024  17.112  18.482   8.241  0.1478 -0.1494  0.2211
  440loPI    C1 7025   1.766   0.758  10.179 -0.0653 -0.1054  0.1029
  440loPI    C2 7026   1.992   0.801  10.507  0.0010 -0.1170  0.0589
  440loPI    C3 7027   1.859   0.439  10.402  0.1795 -0.1500 -0.0586
  440loPI   PO4 7028   1.853   0.921   9.949  0.0301  0.3950  0.0362
  440loPI   GL1 7029   2.191   0.879   9.634  0.0084  0.3927 -0.1811
  440loPI   GL2 7030   2.385   0.631   9.596  0.1221 -0.3138 -0.1737
  440loPI   C1A 7031   2.432   1.048   9.302 -0.1414 -0.3582 -0.4575
  440loPI   C2A 7032   2.393   1.326   9.063 -0.0577  0.1617  0.0465
  440loPI   C3A 7033   2.106   1.322   8.701  0.1104 -0.0211 -0.0270
  440loPI   C4A 7034   1.989   1.387   8.277  0.1341  0.1988 -0.1241
  440loPI   C5A 7035   2.093   1.438   7.841 -0.1431 -0.0669 -0.1769
  440loPI   C6A 7036   1.970   1.447   7.350  0.0851  0.0148  0.0567
  440loPI   C1B 7037   2.552   0.412   9.227  0.0737 -0.0651  0.0346
  440loPI   C2B 7038   2.814   0.417   8.906  0.0803 -0.1374 -0.1783
  440loPI   C3B 7039   2.658   0.539   8.403 -0.0188  0.1252 -0.1271
  440loPI   C4B 7040   2.266   0.584   8.222  0.0985 -0.0219  0.1290
  441loPI    C1 7041  14.572   7.062  10.131 -0.3163  0.1415  0.2097
  441loPI    C2 7042  14.629   6.732  10.349 -0.0991 -0.0103 -0.0694
  441loPI    C3 7043  14.701   7.092  10.508  0.0351 -0.1167  0.1150
  441loPI   PO4 7044  14.750   6.999   9.881 -0.0046 -0.0530 -0.1347
  441loPI   GL1 7045  14.804   6.843   9.488 -0.1668 -0.0394 -0.1419
  441loPI   GL2 7046  14.490   6.906   9.463 -0.2569  0.0923  0.2433
  441loPI   C1A 7047  14.724   6.661   9.014 -0.3135  0.2800 -0.0345
  441loPI   C2A 7048  14.728   6.492   8.690 -0.1534  0.1913  0.2642
  441loPI   C3A 7049  14.483   6.155   8.504 -0.2078  0.1551 -0.1373
  441loPI   C4A 7050  14.608   5.807   8.125 -0.0231  0.4661 -0.1181
  441loPI   C5A 7051  14.531   5.319   8.214 -0.0589 -0.0248 -0.0944
  441loPI   C6A 7052  14.807   4.952   8.243  0.2317 -0.0126 -0.2079
  441loPI   C1B 7053  14.456   7.079   9.079 -0.0899 -0.0659  0.0746
  441loPI   C2B 7054  14.732   7.049   8.636  0.1234  0.0430  0.0153
  441loPI   C3B 7055  15.048   7.139   8.525 -0.2230 -0.1685  0.2377
  441loPI   C4B 7056  15.440   7.090   8.381 -0.1572  0.2862 -0.0548
  442loPI    C1 7057  12.657  14.298  10.368  0.1983  0.1282 -0.2164
  442loPI    C2 7058  12.484  14.385  10.718  0.2556 -0.0477 -0.1432
  442loPI    C3 7059  12.843  14.536  10.630  0.1966  0.0785 -0.1701
  442loPI   PO4 7060  12.536  14.279  10.190 -0.0955 -0.2396 -0.1852
  442loPI   GL1 7061  12.620  14.013   9.834  0.0351 -0.1638 -0.1984
  442loPI   GL2 7062  12.980  13.795   9.887 -0.2240 -0.4976  0.0982
  442loPI   C1A 7063  12.591  14.265   9.455 -0.0681 -0.0159 -0.0058
  442loPI   C2A 7064  12.510  14.487   9.011 -0.1867 -0.2168  0.0507
  442loPI   C3A 7065  12.390  14.702   8.561  0.0021 -0.2802  0.0452
  442loPI   C4A 7066  12.041  14.892   8.258 -0.1858  0.4759  0.2068
  442loPI   C5A 7067  11.737  14.813   8.033  0.2381 -0.0696  0.0824
  442loPI   C6A 7068  11.479  14.500   8.085  0.1651  0.2212  0.2298
  442loPI   C1B 7069  12.886  13.760   9.468  0.0007 -0.5111  0.1871
  442loPI   C2B 7070  12.869  13.881   9.050 -0.2433 -0.1428 -0.0488
  442loPI   C3B 7071  12.739  14.142   8.676  0.0456  0.0965  0.1495
  442loPI   C4B 7072  12.500  14.231   8.346 -0.2301 -0.1992 -0.0109
  443loPI    C1 7073   2.280   8.218  10.102 -0.1145 -0.2349  0.0083
  443loPI    C2 7074   1.942   8.337  10.279 -0.1509 -0.2732 -0.0352
  443loPI    C3 7075   2.236   8.178  10.498 -0.0033  0.1195  0.0599
  443loPI   PO4 7076   2.364   8.324   9.964  0.0523  0.1472  0.3151
  443loPI   GL1 7077   2.220   8.396   9.614  0.2799 -0.1696 -0.0590
  443loPI   GL2 7078   2.212   8.644   9.554 -0.2287 -0.0605  0.3185
  443loPI   C1A 7079   2.021   8.241   9.282 -0.1021 -0.1529  0.1285
  443loPI   C2A 7080   1.707   8.100   8.898 -0.0341 -0.0996  0.1266
  443loPI   C3A 7081   1.490   8.010   8.518 -0.0467 -0.1112 -0.1264
  443loPI   C4A 7082   1.213   8.121   8.166  0.0499 -0.0933  0.0583
  443loPI   C5A 7083   1.130   8.127   7.792  0.0388  0.1741 -0.2163
  443loPI   C6A 7084   0.903   8.232   7.384 -0.0236  0.0185  0.1179
  443loPI   C1B 7085   2.234   8.896   9.196 -0.1096  0.2385 -0.1740
  443loPI   C2B 7086   2.328   9.054   8.842 -0.3179  0.1807  0.0303
  443loPI   C3B 7087   2.541   9.268   8.530  0.0941 -0.0015  0.1444
  443loPI   C4B 7088   2.976   9.339   8.275 -0.2597 -0.3397  0.1358
  444loPI    C1 7089   8.482  15.668  10.592 -0.0691 -0.1830 -0.0344
  444loPI    C2 7090   8.528  15.335  10.809 -0.1246 -0.1612  0.0109
  444loPI    C3 7091   8.330  15.647  10.961 -0.0869 -0.1136 -0.0378
  444loPI   PO4 7092   8.456  15.562  10.278 -0.1844  0.0488 -0.2092
  444loPI   GL1 7093   8.404  15.360   9.937 -0.0015  0.0410  0.0720
  444loPI   GL2 7094   8.731  15.285   9.863  0.2736 -0.0707  0.1682
  444loPI   C1A 7095   8.409  15.417   9.484 -0.2530  0.1695  0.0075
  444loPI   C2A 7096   8.463  15.521   9.127 -0.0364  0.0205 -0.0723
  444loPI   C3A 7097   8.593  15.500   8.684 -0.0764  0.1112 -0.0985
  444loPI   C4A 7098   8.752  15.498   8.293  0.0500 -0.1307  0.0175
  444loPI   C5A 7099   8.567  15.326   7.938 -0.2934 -0.2961  0.0427
  444loPI   C6A 7100   8.250  15.597   7.739  0.0548  0.1177 -0.1580
  444loPI   C1B 7101   8.863  15.267   9.451 -0.1535 -0.3192 -0.1058
  444loPI   C2B 7102   8.938  15.370   9.049 -0.2030 -0.0264  0.2153
  444loPI   C3B 7103   9.064  15.372   8.619 -0.4401  0.2266  0.0076
  444loPI   C4B 7104   9.288  15.656   8.301 -0.0390 -0.1542  0.2152
  445loPI    C1 7105   1.744   2.181  10.678  0.2655  0.4674  0.0283
  445loPI    C2 7106   1.389   2.363  10.704 -0.1321 -0.2888  0.1593
  445loPI    C3 7107   1.684   2.464  10.954 -0.3598  0.1162  0.2729
  445loPI   PO4 7108   1.798   2.167  10.368 -0.1303 -0.1686  0.2682
  445loPI   GL1 7109   1.908   2.278   9.859  0.1253 -0.0619 -0.0623
  445loPI   GL2 7110   2.018   1.986   9.704  0.0310  0.2198 -0.1511
  445loPI   C1A 7111   1.494   2.256   9.576 -0.1999  0.0463  0.2771
  445loPI   C2A 7112   1.228   2.126   9.237  0.1240 -0.3223 -0.1654
  445loPI   C3A 7113   1.053   2.045   8.851  0.1373 -0.5244 -0.3440
  445loPI   C4A 7114   0.791   2.025   8.484 -0.0340  0.0240 -0.2851
  445loPI   C5A 7115   0.777   2.073   8.046  0.0137  0.3251  0.0251
  445loPI   C6A 7116   0.991   2.278   7.765 -0.1876 -0.0860  0.1184
  445loPI   C1B 7117   1.834   2.017   9.315 -0.0269 -0.0458 -0.3232
  445loPI   C2B 7118   1.710   2.253   9.024  0.6282 -0.0910 -0.1578
  445loPI   C3B 7119   1.447   2.226   8.626 -0.1478 -0.1186  0.3771
  445loPI   C4B 7120   1.248   2.110   8.233  0.2311  0.1195  0.0272
  446loPI    C1 7121  11.636  14.409  10.777  0.0318 -0.0865 -0.1408
  446loPI    C2 7122  11.997  14.260  10.865  0.1145  0.1556 -0.0618
  446loPI    C3 7123  11.688  14.196  11.112  0.0903 -0.0920 -0.1532
  446loPI   PO4 7124  11.695  14.577  10.595  0.0176 -0.0270  0.1932
  446loPI   GL1 7125  11.626  14.489  10.172  0.0667  0.1185  0.3148
  446loPI   GL2 7126  11.849  14.616  10.075 -0.0351 -0.1635 -0.0306
  446loPI   C1A 7127  11.714  14.121   9.872  0.2673  0.3955 -0.2422
  446loPI   C2A 7128  11.658  13.892   9.518 -0.2560 -0.0143  0.2211
  446loPI   C3A 7129  11.770  13.943   9.082  0.2158  0.0539  0.2186
  446loPI   C4A 7130  11.729  14.007   8.680 -0.0754  0.3647 -0.0510
  446loPI   C5A 7131  11.445  13.784   8.357 -0.3227  0.2997 -0.1622
  446loPI   C6A 7132  11.009  13.676   8.122 -0.1228  0.0726  0.1261
  446loPI   C1B 7133  11.739  14.574   9.681  0.0973  0.0965  0.1734
  446loPI   C2B 7134  11.841  14.584   9.235 -0.0495  0.0781 -0.0081
  446loPI   C3B 7135  11.922  14.679   8.812  0.2911  0.1679 -0.3048
  446loPI   C4B 7136  11.629  14.816   8.590  0.0471  0.2447  0.2166
  447loPI    C1 7137   1.690  12.780  10.455 -0.2263 -0.0331  0.1419
  447loPI    C2 7138   1.682  13.126  10.655  0.0030  0.1219 -0.1098
  447loPI    C3 7139   1.991  12.875  10.700 -0.1406 -0.0312  0.0368
  447loPI   PO4 7140   1.476  12.788  10.321 -0.1652  0.1901 -0.0576
  447loPI   GL1 7141   1.227  12.882  10.035  0.1904 -0.2035 -0.1139
  447loPI   GL2 7142   1.284  13.148   9.881  0.1936  0.2799  0.1847
  447loPI   C1A 7143   1.224  12.773   9.556  0.3151  0.0972  0.0188
  447loPI   C2A 7144   0.969  12.614   9.256 -0.0523  0.0398 -0.0318
  447loPI   C3A 7145   0.784  12.739   8.818  0.0489  0.0076  0.2019
  447loPI   C4A 7146   0.585  12.860   8.382 -0.0212  0.0506  0.1466
  447loPI   C5A 7147   0.650  12.664   7.977 -0.2526 -0.2059 -0.0572
  447loPI   C6A 7148   0.804  12.285   7.870 -0.1993  0.1067  0.1197
  447loPI   C1B 7149   1.369  13.190   9.435 -0.2936 -0.0157  0.1022
  447loPI   C2B 7150   1.220  12.963   8.889  0.3550 -0.0901  0.0962
  447loPI   C3B 7151   1.031  13.045   8.537 -0.0591  0.1116 -0.0816
  447loPI   C4B 7152   0.938  13.061   8.044 -0.1382  0.1396  0.1415
  448loPI    C1 7153  13.079   3.484  10.027  0.0479  0.1384  0.2136
  448loPI    C2 7154  13.223   3.415  10.393  0.2291 -0.1925  0.0844
  448loPI    C3 7155  12.883   3.240  10.276  0.1179 -0.0076  0.1273
  448loPI   PO4 7156  13.232   3.718  10.009  0.1565  0.4285 -0.2808
  448loPI   GL1 7157  13.550   3.718   9.740 -0.1157  0.1204  0.2689
  448loPI   GL2 7158  13.495   4.039   9.710  0.2006  0.0493 -0.1867
  448loPI   C1A 7159  13.379   3.623   9.311 -0.0601  0.1890  0.2631
  448loPI   C2A 7160  13.398   3.465   8.876 -0.0314 -0.2788  0.0490
  448loPI   C3A 7161  13.189   3.384   8.522 -0.4596 -0.0989 -0.0900
  448loPI   C4A 7162  13.207   3.720   8.185  0.1509  0.0974  0.0435
  448loPI   C5A 7163  12.952   3.663   7.810  0.1499  0.3112 -0.1038
  448loPI   C6A 7164  12.880   3.555   7.511 -0.3554  0.1012  0.2176
  448loPI   C1B 7165  13.326   4.361   9.534  0.0037  0.3072  0.4499
  448loPI   C2B 7166  13.313   4.835   9.497  0.2833 -0.3757 -0.0141
  448loPI   C3B 7167  13.006   5.009   9.147 -0.0423  0.0385 -0.1109
  448loPI   C4B 7168  12.996   4.884   8.792  0.1473  0.0861 -0.1574
  449loPI    C1 7169   6.260   9.719  10.381  0.0956 -0.0172 -0.0791
  449loPI    C2 7170   6.528  10.013  10.425  0.0074  0.0552 -0.0194
  449loPI    C3 7171   6.651   9.637  10.360  0.1341  0.0220  0.3891
  449loPI   PO4 7172   6.125   9.841  10.111 -0.2408  0.2388 -0.1309
  449loPI   GL1 7173   6.174   9.892   9.689 -0.0272 -0.0544 -0.0818
  449loPI   GL2 7174   5.756   9.863   9.711 -0.0200 -0.0580  0.1382
  449loPI   C1A 7175   6.116  10.063   9.281 -0.1174  0.1226  0.1623
  449loPI   C2A 7176   6.181  10.183   8.822  0.0736 -0.0392  0.3317
  449loPI   C3A 7177   6.401  10.296   8.383  0.0007  0.1394  0.0439
  449loPI   C4A 7178   6.506  10.262   7.941 -0.1760 -0.1693  0.0489
  449loPI   C5A 7179   6.194  10.340   7.513  0.2223  0.1623  0.0270
  449loPI   C6A 7180   5.775  10.147   7.454  0.2030 -0.0169  0.0798
  449loPI   C1B 7181   5.752   9.733   9.294  0.1772 -0.0410 -0.2366
  449loPI   C2B 7182   5.791   9.455   9.038 -0.2638 -0.1353 -0.0514
  449loPI   C3B 7183   5.737   9.450   8.601 -0.0315 -0.0170 -0.0064
  449loPI   C4B 7184   5.637   9.417   8.156  0.0620 -0.2895 -0.0461
  450loPI    C1 7185   6.730   2.348  10.501  0.1565  0.0040  0.0065
  450loPI    C2 7186   6.438   2.230  10.748  0.0175 -0.0372 -0.1758
  450loPI    C3 7187   6.782   2.370  10.898 -0.0928  0.0069  0.0403
  450loPI   PO4 7188   6.592   2.414  10.326  0.2463 -0.1220  0.0016
  450loPI   GL1 7189   6.408   2.263   9.954  0.2044  0.4316  0.0068
  450loPI   GL2 7190   6.155   2.426   9.925  0.1140  0.1942  0.0994
  450loPI   C1A 7191   6.762   2.096   9.623 -0.2523  0.0413  0.0406
  450loPI   C2A 7192   6.900   2.038   9.130  0.0670 -0.1932 -0.2415
  450loPI   C3A 7193   7.025   2.068   8.773 -0.0504  0.2395 -0.0046
  450loPI   C4A 7194   7.291   1.975   8.408 -0.0677 -0.0755 -0.1978
  450loPI   C5A 7195   7.696   2.007   8.247  0.1519 -0.2380 -0.0057
  450loPI   C6A 7196   8.013   2.161   7.998 -0.2883 -0.1359 -0.2271
  450loPI   C1B 7197   6.129   2.251   9.462  0.0026 -0.0326  0.0898
  450loPI   C2B 7198   6.010   2.209   9.139 -0.0706 -0.2326  0.3684
  450loPI   C3B 7199   6.140   2.146   8.745 -0.0526  0.2221  0.1875
  450loPI   C4B 7200   6.116   2.181   8.391 -0.0517 -0.3240  0.0129
  451loPI    C1 7201  17.156   3.506  10.256  0.0807  0.0501 -0.1193
  451loPI    C2 7202  17.353   3.173  10.356  0.0161  0.0623  0.0510
  451loPI    C3 7203  17.331   3.478  10.614 -0.1716  0.0853  0.0089
  451loPI   PO4 7204  17.022   3.376  10.079 -0.2824  0.1908  0.0721
  451loPI   GL1 7205  16.837   3.449   9.764 -0.0969 -0.0949  0.1557
  451loPI   GL2 7206  17.078   3.445   9.515  0.2459  0.0647  0.1048
  451loPI   C1A 7207  16.638   3.591   9.322  0.1939 -0.0616 -0.2147
  451loPI   C2A 7208  16.574   3.583   8.881 -0.1657 -0.0462 -0.1291
  451loPI   C3A 7209  16.554   3.720   8.509  0.2429  0.2885 -0.2497
  451loPI   C4A 7210  16.896   3.729   8.266  0.1175 -0.1280 -0.2115
  451loPI   C5A 7211  17.207   3.723   7.965 -0.0061  0.0943  0.0373
  451loPI   C6A 7212  17.689   3.614   8.004  0.1182  0.0245 -0.0541
  451loPI   C1B 7213  17.061   3.606   9.065 -0.0436 -0.0130  0.2651
  451loPI   C2B 7214  17.177   3.731   8.688 -0.3216  0.0265  0.2373
  451loPI   C3B 7215  17.486   3.897   8.362  0.1922 -0.1880  0.2674
  451loPI   C4B 7216  17.584   4.147   7.970 -0.0244  0.2542 -0.0699
  452loPI    C1 7217   8.033   7.767   9.968 -0.1515  0.3659 -0.0613
  452loPI    C2 7218   8.168   7.699  10.339  0.1267  0.1700 -0.1949
  452loPI    C3 7219   7.776   7.752  10.274  0.0628  0.0878  0.1097
  452loPI   PO4 7220   8.275   7.932   9.845 -0.1731 -0.1562  0.2005
  452loPI   GL1 7221   8.476   7.994   9.476 -0.0435 -0.0425 -0.0726
  452loPI   GL2 7222   8.296   7.656   9.378  0.1885  0.3257  0.3010
  452loPI   C1A 7223   8.580   8.144   9.072  0.1235  0.0568 -0.2638
  452loPI   C2A 7224   8.396   8.190   8.651 -0.1056 -0.0854  0.1079
  452loPI   C3A 7225   8.310   8.397   8.361 -0.0642 -0.0547 -0.0576
  452loPI   C4A 7226   8.284   8.642   8.103 -0.2756 -0.3148  0.0961
  452loPI   C5A 7227   8.098   8.693   7.779 -0.1048  0.4275  0.0788
  452loPI   C6A 7228   7.606   8.716   7.663 -0.2041  0.0136 -0.1766
  452loPI   C1B 7229   8.329   7.670   9.048  0.2398  0.0690  0.2126
  452loPI   C2B 7230   8.269   7.658   8.665  0.0894 -0.2691 -0.0263
  452loPI   C3B 7231   8.218   7.931   8.243 -0.4016 -0.1107  0.0902
  452loPI   C4B 7232   8.048   8.157   7.948 -0.1227 -0.4348  0.1857
  453loPI    C1 7233   1.368   3.403  10.008  0.0903 -0.0333 -0.1042
  453loPI    C2 7234   1.650   3.120  10.013  0.0801 -0.0416  0.0375
  453loPI    C3 7235   1.319   3.069   9.794  0.0922 -0.1257  0.0386
  453loPI   PO4 7236   1.547   3.663   9.949  0.1567 -0.1003 -0.2892
  453loPI   GL1 7237   1.375   3.866   9.637  0.1012  0.0887 -0.0109
  453loPI   GL2 7238   1.238   3.576   9.522 -0.3266  0.3189 -0.1246
  453loPI   C1A 7239   1.637   3.886   9.256 -0.0449  0.1859 -0.0653
  453loPI   C2A 7240   1.713   3.811   8.831 -0.3625 -0.0349  0.1078
  453loPI   C3A 7241   1.608   3.830   8.333 -0.0948  0.0418  0.0868
  453loPI   C4A 7242   1.299   3.818   8.091 -0.1631 -0.0980 -0.0923
  453loPI   C5A 7243   1.068   3.686   7.761 -0.3236 -0.3684 -0.0582
  453loPI   C6A 7244   1.091   3.791   7.345  0.1092  0.0549  0.1761
  453loPI   C1B 7245   1.260   3.573   9.049  0.0812 -0.0406  0.2820
  453loPI   C2B 7246   1.294   3.498   8.668 -0.0709 -0.2099  0.1308
  453loPI   C3B 7247   1.421   3.375   8.285  0.1791 -0.2584  0.2285
  453loPI   C4B 7248   1.539   3.450   7.791  0.1820 -0.0985 -0.1241
  454loPI    C1 7249  13.320  15.304  10.532  0.2341 -0.0369  0.1197
  454loPI    C2 7250  13.237  14.926  10.433  0.3114 -0.0331  0.0391
  454loPI    C3 7251  13.428  15.005  10.775  0.1883 -0.0577  0.1147
  454loPI   PO4 7252  13.154  15.486  10.352  0.0081  0.0014 -0.3265
  454loPI   GL1 7253  13.339  15.521   9.977  0.1037  0.2101  0.1727
  454loPI   GL2 7254  13.621  15.258   9.867 -0.2331  0.0810 -0.0775
  454loPI   C1A 7255  13.312  15.625   9.483 -0.0908  0.0380 -0.3001
  454loPI   C2A 7256  13.571  15.870   9.134 -0.1209  0.1358 -0.0996
  454loPI   C3A 7257  13.718  15.879   8.699 -0.5075 -0.0932  0.1599
  454loPI   C4A 7258  13.652  15.930   8.211 -0.0997 -0.1569 -0.0569
  454loPI   C5A 7259  13.446  16.039   7.873 -0.0698 -0.0861 -0.0550
  454loPI   C6A 7260  13.225  16.356   7.559 -0.1541 -0.3757 -0.0642
  454loPI   C1B 7261  13.465  15.111   9.329  0.4892  0.1190  0.3751
  454loPI   C2B 7262  13.230  15.122   8.961  0.1066  0.0913  0.2720
  454loPI   C3B 7263  12.898  15.136   8.614 -0.1081  0.1353 -0.2231
  454loPI   C4B 7264  12.992  15.194   8.153  0.0458  0.0358  0.2982
  455loPI    C1 7265  15.914   8.527  10.608  0.0793  0.0868 -0.0788
  455loPI    C2 7266  15.713   8.800  10.822  0.0479  0.0873 -0.1088
  455loPI    C3 7267  15.925   8.516  11.008 -0.0621  0.0261 -0.0761
  455loPI   PO4 7268  15.888   8.525  10.321 -0.4403  0.1561  0.0010
  455loPI   GL1 7269  15.871   8.752   9.897 -0.0909 -0.0065  0.0596
  455loPI   GL2 7270  15.907   8.411   9.815  0.0330 -0.1943 -0.2574
  455loPI   C1A 7271  15.901   9.065   9.612 -0.3250  0.1597 -0.0120
  455loPI   C2A 7272  15.849   9.170   9.184  0.0730  0.1306  0.3586
  455loPI   C3A 7273  15.911   9.203   8.790  0.1169 -0.1455 -0.4185
  455loPI   C4A 7274  15.747   9.256   8.413  0.1237 -0.1356 -0.2801
  455loPI   C5A 7275  15.949   9.264   7.945  0.2885  0.0939  0.3580
  455loPI   C6A 7276  15.955   9.009   7.555 -0.0498 -0.2378 -0.2629
  455loPI   C1B 7277  15.848   8.588   9.267 -0.1786  0.0351  0.2423
  455loPI   C2B 7278  15.951   8.694   8.874  0.4180 -0.0765 -0.3807
  455loPI   C3B 7279  15.841   8.733   8.556  0.0236 -0.0417  0.0808
  455loPI   C4B 7280  15.813   8.685   8.118  0.3963 -0.3291 -0.1894
  456loPI    C1 7281  16.805  10.075  10.992 -0.4778 -0.1477 -0.2758
  456loPI    C2 7282  16.661  10.196  11.345 -0.2373 -0.0127 -0.2213
  456loPI    C3 7283  16.699   9.806  11.267 -0.0582 -0.0415  0.0001
  456loPI   PO4 7284  16.692  10.306  10.810 -0.0640  0.3272 -0.1456
  456loPI   GL1 7285  16.590  10.141  10.331 -0.0539  0.3048 -0.0058
  456loPI   GL2 7286  16.614   9.780  10.294  0.1301 -0.4121 -0.3971
  456loPI   C1A 7287  16.615  10.186   9.883 -0.0767  0.0250  0.0609
  456loPI   C2A 7288  16.767  10.046   9.581 -0.0594 -0.1261  0.0090
  456loPI   C3A 7289  16.774   9.936   9.219  0.2024 -0.3259 -0.1629
  456loPI   C4A 7290  16.877   9.891   8.785  0.0956  0.0666 -0.2262
  456loPI   C5A 7291  17.160   9.594   8.542  0.0862 -0.1284  0.0173
  456loPI   C6A 7292  17.188   9.551   7.988 -0.1255 -0.0935 -0.1974
  456loPI   C1B 7293  16.694   9.608   9.925  0.2025  0.1565 -0.0189
  456loPI   C2B 7294  16.711   9.526   9.451  0.1580  0.0474  0.0583
  456loPI   C3B 7295  16.899   9.436   9.123 -0.0468 -0.0553  0.2944
  456loPI   C4B 7296  17.032   9.093   9.009  0.0370  0.0332 -0.1776
  457loPI    C1 7297   3.002   5.894  10.059  0.1268 -0.1606  0.0284
  457loPI    C2 7298   2.854   6.166  10.313 -0.0089  0.0404 -0.2596
  457loPI    C3 7299   3.235   6.048  10.345  0.0468  0.2527 -0.1217
  457loPI   PO4 7300   2.854   5.958   9.848  0.3327 -0.1769 -0.1689
  457loPI   GL1 7301   2.689   6.132   9.455  0.2369 -0.1454  0.0220
  457loPI   GL2 7302   2.420   6.405   9.436  0.2077 -0.1697  0.0462
  457loPI   C1A 7303   2.791   5.860   9.119 -0.0952 -0.1124 -0.1720
  457loPI   C2A 7304   2.846   5.723   8.827 -0.2407 -0.0099  0.0919
  457loPI   C3A 7305   3.045   5.552   8.544  0.0138 -0.1592  0.3388
  457loPI   C4A 7306   3.155   5.485   8.105 -0.1691  0.0705 -0.3408
  457loPI   C5A 7307   3.108   5.536   7.697  0.2241 -0.1009 -0.0252
  457loPI   C6A 7308   3.425   5.677   7.362  0.2245 -0.0215 -0.1157
  457loPI   C1B 7309   2.621   6.394   9.060  0.2198 -0.1250  0.0423
  457loPI   C2B 7310   2.766   6.260   8.749  0.1407  0.1128 -0.1737
  457loPI   C3B 7311   2.809   5.994   8.454 -0.0942  0.1272 -0.2095
  457loPI   C4B 7312   2.865   5.878   8.055 -0.1214 -0.0039 -0.0931
  458loPI    C1 7313  12.365   6.121  10.733  0.0652  0.0175 -0.1128
  458loPI    C2 7314  12.689   6.228  10.943 -0.0000 -0.1991  0.1024
  458loPI    C3 7315  12.382   6.048  11.126 -0.1459 -0.2040 -0.1427
  458loPI   PO4 7316  12.445   5.972  10.485  0.1974 -0.2776  0.1307
  458loPI   GL1 7317  12.384   6.010  10.035 -0.2339  0.0392  0.2366
  458loPI   GL2 7318  12.245   6.122   9.696  0.0762  0.1836  0.0415
  458loPI   C1A 7319  12.659   5.938   9.592 -0.2272  0.0025 -0.0097
  458loPI   C2A 7320  12.679   5.836   9.182 -0.2695  0.1625 -0.0167
  458loPI   C3A 7321  12.754   5.634   8.688 -0.2318  0.2154  0.2205
  458loPI   C4A 7322  12.873   5.557   8.304  0.0128 -0.1869 -0.1257
  458loPI   C5A 7323  13.070   5.732   7.997 -0.3104 -0.1051  0.1341
  458loPI   C6A 7324  13.002   6.078   7.866 -0.1252  0.2243 -0.1389
  458loPI   C1B 7325  12.346   6.284   9.213 -0.1327  0.1641  0.1552
  458loPI   C2B 7326  12.263   6.230   8.791  0.1111  0.0294 -0.3051
  458loPI   C3B 7327  12.209   6.400   8.367 -0.1080  0.2752  0.1668
  458loPI   C4B 7328  12.027   6.751   8.044  0.0282  0.1213 -0.0011
  459loPI    C1 7329  16.092  18.461  10.153  0.1149  0.2820  0.1284
  459loPI    C2 7330  16.192  18.515   9.769  0.1031  0.1359  0.1041
  459loPI    C3 7331  16.473  18.420  10.037  0.0484 -0.1760  0.0542
  459loPI   PO4 7332  15.822  18.342  10.139 -0.3494  0.0172  0.1537
  459loPI   GL1 7333  15.845  18.045   9.740 -0.1087 -0.1378  0.0320
  459loPI   GL2 7334  15.860  17.713   9.893 -0.3053  0.1406  0.0641
  459loPI   C1A 7335  16.060  17.832   9.341  0.0838 -0.2338  0.2799
  459loPI   C2A 7336  16.184  17.664   8.919 -0.1279 -0.1420  0.1097
  459loPI   C3A 7337  16.317  17.740   8.431 -0.2407 -0.0603  0.2872
  459loPI   C4A 7338  16.247  17.944   7.992  0.0312  0.1695 -0.0542
  459loPI   C5A 7339  16.220  18.355   7.879 -0.0071  0.1153 -0.0665
  459loPI   C6A 7340  16.416  18.683   7.953  0.0864  0.0471 -0.2440
  459loPI   C1B 7341  16.016  17.384   9.627  0.0377 -0.0012 -0.1815
  459loPI   C2B 7342  16.155  17.293   9.204  0.0818 -0.2765 -0.1244
  459loPI   C3B 7343  16.182  17.132   8.887 -0.0176 -0.0152 -0.2236
  459loPI   C4B 7344  16.462  17.204   8.602  0.0113  0.1446 -0.2739
  460loPI    C1 7345  14.532   8.798  10.209  0.0875  0.0017  0.1312
  460loPI    C2 7346  14.395   9.172  10.168 -0.0962 -0.0927 -0.1403
  460loPI    C3 7347  14.215   8.920  10.421  0.0756  0.0236  0.1009
  460loPI   PO4 7348  14.566   8.696  10.037  0.2707  0.1772  0.0040
  460loPI   GL1 7349  14.399   8.659   9.610 -0.4249 -0.1951  0.3402
  460loPI   GL2 7350  14.518   8.375   9.443 -0.0661  0.2229 -0.0893
  460loPI   C1A 7351  14.478   8.860   9.260 -0.0893  0.1624  0.0161
  460loPI   C2A 7352  14.585   8.777   8.855  0.0019  0.2863  0.2129
  460loPI   C3A 7353  14.354   8.655   8.504  0.1519 -0.1801  0.2333
  460loPI   C4A 7354  14.072   8.773   8.195  0.2264 -0.0017 -0.0017
  460loPI   C5A 7355  14.079   8.602   7.725 -0.0707  0.0182 -0.0030
  460loPI   C6A 7356  13.968   8.323   7.452  0.3615  0.0752 -0.3043
  460loPI   C1B 7357  14.362   8.344   9.117 -0.2060 -0.4919  0.0867
  460loPI   C2B 7358  14.425   8.219   8.747  0.0023 -0.0231 -0.0381
  460loPI   C3B 7359  14.553   8.092   8.252 -0.1286  0.0541 -0.1946
  460loPI   C4B 7360  14.451   7.818   7.833 -0.1854 -0.2471 -0.0154
  461loPI    C1 7361   2.413   5.928  10.129  0.0655 -0.1287  0.1126
  461loPI    C2 7362   2.542   5.556  10.058 -0.2452 -0.2220  0.0251
  461loPI    C3 7363   2.288   5.626  10.359 -0.1032 -0.0620  0.1095
  461loPI   PO4 7364   2.353   6.035   9.979  0.0891  0.3829  0.5707
  461loPI   GL1 7365   2.081   6.010   9.622  0.0408 -0.0129 -0.1739
  461loPI   GL2 7366   1.784   5.862   9.534 -0.1451  0.2512 -0.0645
  461loPI   C1A 7367   2.189   6.010   9.278 -0.1493 -0.0057  0.2262
  461loPI   C2A 7368   2.363   5.862   8.888 -0.2840  0.1230  0.0631
  461loPI   C3A 7369   2.426   5.594   8.455  0.2715  0.0972 -0.0002
  461loPI   C4A 7370   2.230   5.386   8.162  0.1478 -0.1739  0.0118
  461loPI   C5A 7371   2.237   5.049   7.814  0.4008  0.0134 -0.0096
  461loPI   C6A 7372   2.096   4.800   7.458 -0.0065  0.1414 -0.0337
  461loPI   C1B 7373   1.853   5.727   9.080 -0.0997 -0.1683 -0.0864
  461loPI   C2B 7374   1.908   5.688   8.625  0.0476  0.1496  0.1935
  461loPI   C3B 7375   1.792   5.847   8.251 -0.0671  0.0481 -0.3325
  461loPI   C4B 7376   1.970   5.654   7.866 -0.1530  0.1506  0.1766
  462loPI    C1 7377  12.466   0.766  10.556  0.2170 -0.2106 -0.1860
  462loPI    C2 7378  12.714   0.575  10.805  0.1584 -0.0888 -0.0327
  462loPI    C3 7379  12.366   0.719  10.940  0.0712 -0.1275 -0.2130
  462loPI   PO4 7380  12.645   0.733  10.315 -0.0624 -0.0971 -0.0582
  462loPI   GL1 7381  12.976   0.651   9.992  0.1026 -0.0350  0.1583
  462loPI   GL2 7382  13.124   0.852  10.080 -0.0623  0.3007 -0.2921
  462loPI   C1A 7383  12.677   0.546   9.624  0.0962 -0.2078  0.1299
  462loPI   C2A 7384  12.694   0.598   9.204  0.0989  0.0459 -0.1528
  462loPI   C3A 7385  12.534   0.557   8.810  0.0702  0.2666  0.1485
  462loPI   C4A 7386  12.588   0.624   8.419  0.0316 -0.1610 -0.3881
  462loPI   C5A 7387  12.945   0.403   8.292 -0.1477 -0.0802  0.0866
  462loPI   C6A 7388  12.807   0.166   7.990 -0.0404  0.0677  0.1391
  462loPI   C1B 7389  13.130   0.959   9.651 -0.0953  0.2454  0.3507
  462loPI   C2B 7390  13.132   0.924   9.163 -0.3041  0.0080 -0.1697
  462loPI   C3B 7391  13.332   1.229   8.858 -0.1716  0.1743 -0.1837
  462loPI   C4B 7392  13.495   1.308   8.529  0.0147 -0.1346  0.2698
  463loPI    C1 7393  16.581   0.369  10.388 -0.3516  0.1409 -0.0255
  463loPI    C2 7394  16.376   0.051  10.518  0.0072 -0.0131  0.1796
  463loPI    C3 7395  16.285   0.417  10.653 -0.2642 -0.0519  0.1088
  463loPI   PO4 7396  16.619   0.305  10.175  0.0182 -0.0849  0.0548
  463loPI   GL1 7397  16.488   0.463   9.797 -0.3746 -0.1642 -0.0900
  463loPI   GL2 7398  16.224   0.639   9.745  0.0098 -0.0852 -0.2308
  463loPI   C1A 7399  16.438   0.219   9.477 -0.4283  0.0453 -0.2332
  463loPI   C2A 7400  16.328   0.159   9.115 -0.4512  0.0230 -0.1985
  463loPI   C3A 7401  16.211   0.155   8.671  0.5428 -0.1595 -0.5686
  463loPI   C4A 7402  16.252   0.462   8.301  0.2713  0.0620  0.0377
  463loPI   C5A 7403  16.060   0.497   7.906  0.1460 -0.0351  0.1477
  463loPI   C6A 7404  15.934   0.653   7.525  0.0827  0.1072  0.0244
  463loPI   C1B 7405  16.248   0.724   9.263 -0.0780 -0.0169 -0.0332
  463loPI   C2B 7406  16.404   1.114   9.084  0.0201 -0.0664  0.1315
  463loPI   C3B 7407  16.690   1.305   8.722 -0.2527  0.3048 -0.2147
  463loPI   C4B 7408  16.834   1.713   8.670  0.0033  0.0064 -0.1204
  464loPI    C1 7409  10.101   4.328  10.416  0.2447 -0.2887 -0.1118
  464loPI    C2 7410  10.172   4.159  10.771 -0.3139 -0.2351  0.0336
  464loPI    C3 7411   9.825   4.347  10.705 -0.0965  0.0124 -0.4470
  464loPI   PO4 7412  10.378   4.429  10.390  0.0218  0.4132  0.1204
  464loPI   GL1 7413  10.579   4.427  10.054 -0.2469 -0.0306  0.2975
  464loPI   GL2 7414  10.888   4.202  10.130  0.3117 -0.2297  0.3999
  464loPI   C1A 7415  10.564   4.186   9.728  0.3366 -0.0145  0.1769
  464loPI   C2A 7416  10.592   4.064   9.319  0.0030  0.1622  0.1409
  464loPI   C3A 7417  10.615   3.930   8.908 -0.1745 -0.1057 -0.0357
  464loPI   C4A 7418  10.579   3.919   8.518 -0.0954  0.3260  0.1843
  464loPI   C5A 7419  10.626   3.740   8.115  0.0898  0.2504  0.3613
  464loPI   C6A 7420  10.683   3.713   7.691 -0.1989 -0.0685  0.1300
  464loPI   C1B 7421  11.015   3.893   9.765  0.0287  0.1328 -0.3302
  464loPI   C2B 7422  11.215   3.799   9.306  0.0600 -0.0278 -0.1186
  464loPI   C3B 7423  11.167   3.835   8.984  0.3103  0.2664 -0.0905
  464loPI   C4B 7424  11.195   3.774   8.558 -0.0978  0.2897 -0.1083
  465loPI    C1 7425  15.189   7.881  10.176  0.3099  0.2955  0.1222
  465loPI    C2 7426  14.827   7.951  10.330  0.2407  0.2873 -0.0355
  465loPI    C3 7427  15.149   7.959  10.567  0.0966 -0.0841  0.1813
  465loPI   PO4 7428  15.140   8.002   9.939 -0.1557  0.0965 -0.5287
  465loPI   GL1 7429  15.576   8.028   9.750  0.0592 -0.0833 -0.0239
  465loPI   GL2 7430  15.335   7.893   9.501  0.0424 -0.1805  0.0453
  465loPI   C1A 7431  15.835   8.109   9.444 -0.1423 -0.0935  0.0829
  465loPI   C2A 7432  15.963   8.180   9.035  0.1217 -0.0147  0.0878
  465loPI   C3A 7433  16.032   8.279   8.593 -0.1583  0.0414  0.2587
  465loPI   C4A 7434  16.322   8.450   8.206  0.5313  0.1328  0.1432
  465loPI   C5A 7435  16.537   8.462   7.834 -0.2082 -0.3044 -0.2717
  465loPI   C6A 7436  16.882   8.601   7.601  0.0837 -0.1586  0.2647
  465loPI   C1B 7437  15.467   7.861   9.068  0.0611  0.2192  0.1541
  465loPI   C2B 7438  15.573   7.882   8.616  0.1141 -0.2098  0.1281
  465loPI   C3B 7439  15.823   7.825   8.284 -0.1011 -0.0681  0.0535
  465loPI   C4B 7440  16.220   7.921   8.117  0.1215 -0.0635 -0.0399
  466loPI    C1 7441  18.366   3.959  10.166  0.0079 -0.2241  0.2241
  466loPI    C2 7442  18.670   4.104   9.950 -0.1682 -0.1434  0.0271
  466loPI    C3 7443  18.585   4.263  10.307 -0.1372  0.0040 -0.0301
  466loPI   PO4 7444  18.206   3.904   9.902 -0.4114  0.2710  0.1254
  466loPI   GL1 7445  18.338   4.201   9.525 -0.0570  0.1058  0.2919
  466loPI   GL2 7446  17.996   4.269   9.507  0.2478  0.1366 -0.0502
  466loPI   C1A 7447  18.409   4.051   9.120  0.1402  0.0705 -0.0415
  466loPI   C2A 7448  18.445   3.775   8.795 -0.1511 -0.0740 -0.0835
  466loPI   C3A 7449  18.518   3.688   8.305  0.0813  0.2623 -0.2600
  466loPI   C4A 7450  18.743   3.910   8.120 -0.0378  0.1188 -0.0128
  466loPI   C5A 7451  18.550   4.320   7.940  0.2378  0.2714  0.4143
  466loPI   C6A 7452  18.575   4.593   7.560 -0.2730 -0.0514 -0.3055
  466loPI   C1B 7453  17.728   4.492   9.153 -0.0828 -0.0330  0.1517
  466loPI   C2B 7454  17.484   4.897   9.024  0.0189  0.0253 -0.2633
  466loPI   C3B 7455  17.508   5.231   8.755 -0.1901  0.1203 -0.1723
  466loPI   C4B 7456  17.564   5.381   8.399 -0.0075 -0.0977  0.0020
  467loPI    C1 7457  15.852  18.618  10.651  0.1718  0.0298  0.0475
  467loPI    C2 7458  15.661  18.267  10.628 -0.0101  0.1191  0.1677
  467loPI    C3 7459  16.059  18.276  10.670  0.0180 -0.0693 -0.0364
  467loPI   PO4 7460  15.720  18.727  10.417 -0.3440  0.0155  0.2313
  467loPI   GL1 7461  15.509  18.843  10.125  0.0084 -0.1161  0.2621
  467loPI   GL2 7462  15.741  18.775   9.880 -0.2155  0.0805  0.0331
  467loPI   C1A 7463  15.409  18.928   9.552 -0.4168  0.0483 -0.0259
  467loPI   C2A 7464  15.353  18.941   9.125  0.0287 -0.3341  0.0816
  467loPI   C3A 7465  15.190  18.784   8.670 -0.0190 -0.0740  0.1348
  467loPI   C4A 7466  14.994  18.515   8.410 -0.1911  0.0476 -0.0408
  467loPI   C5A 7467  14.765  18.367   8.041  0.1321 -0.2421  0.2395
  467loPI   C6A 7468  14.433  18.215   7.815 -0.0696  0.0314 -0.0031
  467loPI   C1B 7469  15.906  18.880   9.449 -0.3339 -0.1115  0.4053
  467loPI   C2B 7470  15.845  18.687   9.044  0.2153 -0.1960  0.0933
  467loPI   C3B 7471  15.716  18.615   8.643 -0.1053 -0.2584  0.1075
  467loPI   C4B 7472  15.895  18.688   8.069  0.0961  0.0748  0.1565
  468loPI    C1 7473   4.658   1.012  10.699  0.0647  0.3176 -0.0406
  468loPI    C2 7474   4.383   1.135  10.962 -0.0082 -0.0506  0.0608
  468loPI    C3 7475   4.734   1.324  10.937 -0.1690  0.2612  0.1123
  468loPI   PO4 7476   4.510   1.062  10.412 -0.4305  0.1211 -0.2168
  468loPI   GL1 7477   4.366   1.111  10.036  0.1949 -0.2259  0.2739
  468loPI   GL2 7478   4.200   1.108   9.804  0.0950 -0.1901 -0.0096
  468loPI   C1A 7479   4.628   0.862   9.805  0.2777 -0.0225 -0.0539
  468loPI   C2A 7480   4.657   0.710   9.412 -0.1479  0.1943  0.3710
  468loPI   C3A 7481   4.671   0.779   8.924  0.1763  0.0102 -0.0985
  468loPI   C4A 7482   4.589   1.015   8.564  0.0152  0.3017  0.3093
  468loPI   C5A 7483   4.712   1.038   8.153  0.0201  0.0876  0.2141
  468loPI   C6A 7484   4.506   1.105   7.745  0.1284  0.1431 -0.0858
  468loPI   C1B 7485   4.308   1.080   9.374 -0.3150  0.0686 -0.1077
  468loPI   C2B 7486   4.193   0.950   8.949  0.0979 -0.2814 -0.0613
  468loPI   C3B 7487   4.085   0.968   8.550 -0.3016  0.0356 -0.0405
  468loPI   C4B 7488   3.970   1.000   8.118  0.1121 -0.1093  0.1585
  469loPI    C1 7489   3.501  17.712  10.761  0.0278  0.1951 -0.1439
  469loPI    C2 7490   3.895  17.772  10.797  0.0100  0.2247  0.0077
  469loPI    C3 7491   3.666  17.747  11.123 -0.0959  0.0829 -0.0761
  469loPI   PO4 7492   3.546  17.527  10.536  0.2735 -0.0139 -0.1595
  469loPI   GL1 7493   3.478  17.641  10.153 -0.2175 -0.1174  0.1487
  469loPI   GL2 7494   3.181  17.841  10.019 -0.1367 -0.2869 -0.0169
  469loPI   C1A 7495   3.771  17.665   9.882 -0.3609  0.1093 -0.1527
  469loPI   C2A 7496   3.851  17.587   9.466 -0.0529  0.3977 -0.2948
  469loPI   C3A 7497   3.885  17.418   9.091 -0.0292  0.3220 -0.0360
  469loPI   C4A 7498   4.117  17.607   8.712 -0.0505  0.0557 -0.0810
  469loPI   C5A 7499   4.086  17.886   8.323 -0.0999 -0.0570 -0.1927
  469loPI   C6A 7500   4.036  17.769   7.888 -0.0334  0.1632  0.0408
  469loPI   C1B 7501   3.104  17.606   9.793  0.0193 -0.0171 -0.2954
  469loPI   C2B 7502   2.949  17.522   9.357  0.0886 -0.1626  0.3482
  469loPI   C3B 7503   2.980  17.373   9.003 -0.0350  0.0114  0.0413
  469loPI   C4B 7504   3.242  17.155   8.649 -0.2031 -0.3475 -0.1489
  470loPI    C1 7505   5.151   1.022  10.665  0.1541 -0.0141  0.0007
  470loPI    C2 7506   5.148   0.697  10.898  0.2290 -0.0120  0.0051
  470loPI    C3 7507   5.154   1.061  11.063  0.1056 -0.0075  0.0003
  470loPI   PO4 7508   5.379   0.986  10.441  0.0238 -0.0297 -0.0713
  470loPI   GL1 7509   5.453   1.136  10.103  0.2646  0.0762 -0.0542
  470loPI   GL2 7510   5.266   0.854   9.935 -0.1031 -0.0760  0.1858
  470loPI   C1A 7511   5.740   1.158   9.719  0.1495  0.3912 -0.1882
  470loPI   C2A 7512   5.825   1.309   9.386  0.0507  0.1237 -0.0392
  470loPI   C3A 7513   5.686   1.348   8.857 -0.0554  0.2843 -0.0293
  470loPI   C4A 7514   5.379   1.417   8.562  0.1439  0.3183  0.0835
  470loPI   C5A 7515   5.259   1.716   8.242  0.2751 -0.2209 -0.2048
  470loPI   C6A 7516   5.026   2.193   8.223 -0.2986 -0.0710  0.1583
  470loPI   C1B 7517   5.135   1.168   9.621 -0.0081  0.0131  0.0110
  470loPI   C2B 7518   5.287   1.285   9.159  0.0350  0.0098  0.0059
  470loPI   C3B 7519   5.093   1.064   8.743  0.1102  0.1921  0.3012
  470loPI   C4B 7520   5.208   0.940   8.215  0.0653  0.2099  0.0921
  471loPI    C1 7521  14.629   5.912  10.050 -0.1695  0.0352  0.1433
  471loPI    C2 7522  14.671   5.553   9.879 -0.0012  0.0253  0.2040
  471loPI    C3 7523  14.720   5.594  10.274  0.1126  0.1383  0.1787
  471loPI   PO4 7524  14.763   6.139   9.887 -0.3749  0.2359 -0.1155
  471loPI   GL1 7525  14.921   6.309   9.501  0.0079  0.1168  0.0747
  471loPI   GL2 7526  14.528   6.405   9.402  0.0186  0.0453  0.0785
  471loPI   C1A 7527  15.144   6.440   9.200 -0.1583  0.0836  0.0395
  471loPI   C2A 7528  15.138   6.262   8.733 -0.1910 -0.0043 -0.6036
  471loPI   C3A 7529  14.940   6.175   8.281  0.2025  0.1142 -0.2641
  471loPI   C4A 7530  15.010   5.875   7.894 -0.3014 -0.2693 -0.0348
  471loPI   C5A 7531  14.772   5.523   7.581 -0.1772 -0.0975 -0.0621
  471loPI   C6A 7532  14.963   5.195   7.386 -0.0127  0.2203 -0.0474
  471loPI   C1B 7533  14.413   6.200   8.984  0.2539  0.1695  0.2207
  471loPI   C2B 7534  14.071   5.933   8.767 -0.0388 -0.1078  0.0246
  471loPI   C3B 7535  13.707   6.061   8.514  0.0778 -0.2600  0.1358
  471loPI   C4B 7536  13.591   6.461   8.454  0.4096  0.0921  0.2152
  472loPI    C1 7537  15.869   6.147  10.066  0.0354  0.1901  0.1181
  472loPI    C2 7538  15.610   5.866  10.184 -0.1166  0.3011  0.0522
  472loPI    C3 7539  15.998   5.777  10.146 -0.1664  0.0953  0.0131
  472loPI   PO4 7540  15.798   6.271   9.819  0.0583 -0.2558 -0.0542
  472loPI   GL1 7541  15.826   6.316   9.395 -0.0043  0.0091  0.2398
  472loPI   GL2 7542  15.491   6.146   9.305 -0.0341  0.0182  0.0579
  472loPI   C1A 7543  16.200   6.275   9.052 -0.1017  0.0271 -0.1761
  472loPI   C2A 7544  16.103   6.483   8.647 -0.2589 -0.0812 -0.5143
  472loPI   C3A 7545  16.185   6.508   8.301 -0.0340 -0.0403  0.3323
  472loPI   C4A 7546  16.094   6.565   7.841  0.0208 -0.0497  0.2334
  472loPI   C5A 7547  15.889   6.317   7.588 -0.2399  0.1921  0.0708
  472loPI   C6A 7548  15.997   6.355   7.085  0.1406  0.2179  0.3590
  472loPI   C1B 7549  15.685   6.188   8.917 -0.0741  0.0264  0.3120
  472loPI   C2B 7550  15.799   6.198   8.446  0.3517  0.0799 -0.1585
  472loPI   C3B 7551  15.792   6.131   8.054 -0.0018 -0.0316  0.0897
  472loPI   C4B 7552  15.765   5.661   7.938 -0.0476  0.4026 -0.0371
  473loPI    C1 7553   4.994   8.252   9.994  0.1294 -0.0838 -0.0567
  473loPI    C2 7554   4.672   8.482   9.937  0.0921 -0.0518  0.2642
  473loPI    C3 7555   4.639   8.084   9.915  0.1627 -0.0338 -0.3210
  473loPI   PO4 7556   5.141   8.349   9.762  0.0185 -0.1266  0.1430
  473loPI   GL1 7557   4.999   8.467   9.306  0.2657 -0.2021  0.3325
  473loPI   GL2 7558   4.885   8.063   9.455  0.0683  0.0696  0.1594
  473loPI   C1A 7559   4.946   8.363   8.926 -0.1764 -0.0744  0.2330
  473loPI   C2A 7560   4.916   8.422   8.478  0.1629 -0.1177 -0.1332
  473loPI   C3A 7561   5.033   8.516   8.096  0.0087 -0.3358  0.0585
  473loPI   C4A 7562   5.100   8.363   7.728 -0.2952 -0.2767  0.0406
  473loPI   C5A 7563   5.017   8.078   7.332  0.1505 -0.2019 -0.0811
  473loPI   C6A 7564   5.200   7.694   7.287  0.2111 -0.3129  0.0173
  473loPI   C1B 7565   4.783   7.882   9.035 -0.2166  0.1868 -0.0075
  473loPI   C2B 7566   4.748   7.956   8.657 -0.2600  0.2076 -0.1654
  473loPI   C3B 7567   4.876   8.013   8.221  0.2154  0.0774 -0.0448
  473loPI   C4B 7568   4.951   7.808   7.740 -0.1375  0.0439  0.0335
  474POPI    C1 7569  10.151   1.331  10.401  0.1319 -0.0074  0.0265
  474POPI    C2 7570   9.837   1.083  10.391 -0.0722  0.2289  0.3528
  474POPI    C3 7571  10.205   0.939  10.452 -0.1175 -0.0462  0.0091
  474POPI   PO4 7572  10.179   1.484  10.182 -0.0027  0.1146 -0.0298
  474POPI   GL1 7573  10.320   1.530   9.774 -0.1092  0.1637 -0.1435
  474POPI   GL2 7574  10.533   1.360   9.520 -0.1608 -0.1183 -0.3306
  474POPI   C1A 7575  10.032   1.807   9.660 -0.0337  0.0494  0.0513
  474POPI   D2A 7576   9.693   1.745   9.367  0.0740  0.0269  0.0632
  474POPI   C3A 7577   9.628   1.727   8.979  0.0258  0.2600 -0.0022
  474POPI   C4A 7578   9.504   1.684   8.571 -0.3681  0.1892 -0.0169
  474POPI   C1B 7579  10.452   1.135   9.163 -0.0263  0.0669 -0.0936
  474POPI   C2B 7580  10.421   1.185   8.724  0.0067  0.1592  0.1556
  474POPI   C3B 7581  10.246   1.231   8.353  0.2199  0.1288  0.3168
  474POPI   C4B 7582  10.384   1.289   7.987  0.1303  0.2085 -0.1817
  475POPI    C1 7583  13.182  11.379  10.223 -0.1346 -0.1330 -0.3772
  475POPI    C2 7584  13.019  11.094  10.451  0.0148  0.0813  0.0066
  475POPI    C3 7585  13.413  11.162  10.468 -0.0218  0.3207 -0.0688
  475POPI   PO4 7586  13.027  11.402  10.052  0.1360 -0.1154 -0.1065
  475POPI   GL1 7587  13.038  11.453   9.715 -0.0638  0.1052 -0.1407
  475POPI   GL2 7588  13.303  11.371   9.562  0.1281 -0.0925  0.2028
  475POPI   C1A 7589  12.969  11.466   9.230  0.0289 -0.1598  0.1361
  475POPI   D2A 7590  13.072  11.703   8.887  0.0385  0.0219  0.1069
  475POPI   C3A 7591  13.334  12.042   8.972 -0.0552  0.3429 -0.0715
  475POPI   C4A 7592  13.740  12.122   8.742 -0.1716 -0.1348  0.0731
  475POPI   C1B 7593  13.509  11.578   9.236  0.0648  0.0644  0.0039
  475POPI   C2B 7594  13.895  11.688   8.989  0.1572 -0.0215 -0.0674
  475POPI   C3B 7595  14.088  11.814   8.543 -0.1619  0.0184 -0.3983
  475POPI   C4B 7596  14.036  11.994   8.182  0.4422  0.0864  0.2268
  476POPI    C1 7597  16.003  10.521  10.788  0.5455  0.1536  0.2568
  476POPI    C2 7598  15.948  10.745  11.115  0.0153  0.1768  0.1608
  476POPI    C3 7599  15.917  10.347  11.138  0.0142  0.1761  0.1457
  476POPI   PO4 7600  15.875  10.602  10.581  0.2714  0.0087  0.0123
  476POPI   GL1 7601  15.806  10.713  10.183 -0.0622 -0.2210 -0.0176
  476POPI   GL2 7602  15.966  10.870   9.971 -0.2247  0.0842 -0.1769
  476POPI   C1A 7603  15.468  10.673   9.842  0.2700  0.1045  0.0676
  476POPI   D2A 7604  15.089  10.861   9.652 -0.0848 -0.0331 -0.0508
  476POPI   C3A 7605  15.157  10.945   9.243 -0.3004 -0.0452 -0.0807
  476POPI   C4A 7606  15.361  11.063   8.841 -0.1225 -0.0381  0.0719
  476POPI   C1B 7607  15.740  10.984   9.522 -0.2143  0.4044 -0.0316
  476POPI   C2B 7608  15.703  10.942   9.137  0.0390  0.3538  0.4004
  476POPI   C3B 7609  15.837  10.855   8.690  0.1093  0.0017 -0.1665
  476POPI   C4B 7610  15.851  10.740   8.268  0.3922 -0.0576 -0.0248
  477POPI    C1 7611  18.470  10.873  10.732  0.2524  0.1085 -0.0079
  477POPI    C2 7612  18.243  11.150  10.910  0.1909 -0.0893  0.2272
  477POPI    C3 7613  18.641  11.164  10.946  0.2182  0.2210 -0.1325
  477POPI   PO4 7614  18.337  10.751  10.431  0.0739  0.0384 -0.0063
  477POPI   GL1 7615  18.688  10.429  10.153  0.0981  0.0467 -0.0516
  477POPI   GL2 7616  18.837  10.131  10.092 -0.1890  0.1213  0.2197
  477POPI   C1A 7617  18.710  10.657   9.740  0.1160  0.0908 -0.1709
  477POPI   D2A 7618  18.462  11.112   9.541  0.0062  0.1060  0.0343
  477POPI   C3A 7619  18.324  10.923   9.335 -0.0191  0.0676  0.2005
  477POPI   C4A 7620  18.096  11.039   8.979  0.2214  0.1339  0.2417
  477POPI   C1B 7621  18.483   9.834  10.082  0.0562  0.1554 -0.0979
  477POPI   C2B 7622  18.287   9.567   9.737 -0.2246 -0.2848  0.1653
  477POPI   C3B 7623  18.385   9.374   9.397  0.1941 -0.0602  0.2508
  477POPI   C4B 7624  18.116   9.339   9.104  0.1207  0.1688 -0.3149
  478POPI    C1 7625   3.351  12.644  10.198  0.0511  0.0664  0.1292
  478POPI    C2 7626   3.236  12.376  10.472 -0.2114  0.0236 -0.0199
  478POPI    C3 7627   3.116  12.757  10.501 -0.2063  0.0278 -0.0526
  478POPI   PO4 7628   3.284  12.589   9.869 -0.1398  0.0994 -0.0046
  478POPI   GL1 7629   3.229  12.186   9.622  0.1251 -0.0112 -0.4360
  478POPI   GL2 7630   3.285  11.824   9.570  0.0776  0.0574 -0.0417
  478POPI   C1A 7631   3.315  12.445   9.270  0.2076 -0.2903  0.0954
  478POPI   D2A 7632   3.287  12.680   8.894  0.0468 -0.0345 -0.1377
  478POPI   C3A 7633   3.160  12.673   8.521  0.0258 -0.1770  0.0818
  478POPI   C4A 7634   2.866  12.516   8.191 -0.0542 -0.0830 -0.0279
  478POPI   C1B 7635   3.411  11.712   9.196  0.0459  0.0393 -0.1377
  478POPI   C2B 7636   3.264  11.665   8.854 -0.2720  0.0235  0.2926
  478POPI   C3B 7637   3.002  11.634   8.460  0.1556 -0.0500 -0.1078
  478POPI   C4B 7638   2.781  12.036   8.199  0.1670  0.0218 -0.3458
  479POPI    C1 7639   2.354  14.347  10.297  0.0298 -0.0607  0.0537
  479POPI    C2 7640   2.714  14.521  10.298  0.0738 -0.1513  0.0377
  479POPI    C3 7641   2.586  14.324  10.622  0.0414 -0.1247  0.0410
  479POPI   PO4 7642   2.182  14.434  10.020 -0.1710 -0.0212 -0.0493
  479POPI   GL1 7643   2.166  14.113   9.737 -0.1180  0.0388  0.4585
  479POPI   GL2 7644   2.149  13.758   9.662 -0.2553 -0.1108 -0.0397
  479POPI   C1A 7645   1.806  14.232   9.524  0.2207 -0.1862  0.0233
  479POPI   D2A 7646   1.676  14.211   9.113 -0.0029 -0.1193 -0.0851
  479POPI   C3A 7647   1.757  14.337   8.766 -0.5840  0.1255 -0.0212
  479POPI   C4A 7648   1.573  14.312   8.426  0.0834  0.1049 -0.0439
  479POPI   C1B 7649   2.170  13.866   9.308  0.2172  0.1155  0.1351
  479POPI   C2B 7650   2.185  14.042   8.890 -0.0179  0.0015 -0.0862
  479POPI   C3B 7651   2.368  14.306   8.501 -0.1306 -0.0072  0.0788
  479POPI   C4B 7652   2.761  14.634   8.490 -0.0139 -0.1098  0.0363
  480POPI    C1 7653  14.628  15.375  10.462  0.0516 -0.0292 -0.0384
  480POPI    C2 7654  14.428  15.634  10.693  0.0529 -0.0575 -0.0052
  480POPI    C3 7655  14.690  15.382  10.858  0.1052 -0.0305 -0.0467
  480POPI   PO4 7656  14.528  15.427  10.191  0.0560  0.5252 -0.2493
  480POPI   GL1 7657  14.290  15.574   9.823 -0.3006  0.0111 -0.0854
  480POPI   GL2 7658  14.115  15.258   9.880 -0.1121 -0.2134  0.0447
  480POPI   C1A 7659  14.264  15.734   9.363  0.1848 -0.0027  0.1825
  480POPI   D2A 7660  14.373  15.901   9.068 -0.1038 -0.0879 -0.4254
  480POPI   C3A 7661  14.186  15.849   8.546 -0.1965 -0.1434  0.1500
  480POPI   C4A 7662  14.176  16.108   8.247  0.1949  0.0291  0.2761
  480POPI   C1B 7663  14.221  15.205   9.482  0.1900  0.2777  0.1483
  480POPI   C2B 7664  14.217  15.343   9.078 -0.0720 -0.1897  0.0140
  480POPI   C3B 7665  14.014  15.346   8.655  0.0255  0.3344 -0.0857
  480POPI   C4B 7666  13.949  15.512   8.290  0.0995 -0.3499 -0.0422
  481POPI    C1 7667  17.423   1.609  10.326  0.1844 -0.0836  0.0325
  481POPI    C2 7668  17.342   1.607  10.718 -0.1537 -0.1160 -0.0347
  481POPI    C3 7669  17.171   1.879  10.479  0.1353 -0.0274 -0.1451
  481POPI   PO4 7670  17.430   1.429  10.187  0.1855 -0.2787 -0.0768
  481POPI   GL1 7671  17.150   1.494   9.833 -0.1916 -0.1930 -0.2973
  481POPI   GL2 7672  16.976   1.858   9.808  0.0380  0.0089 -0.0190
  481POPI   C1A 7673  17.329   1.243   9.473  0.0223  0.0397  0.1348
  481POPI   D2A 7674  17.556   1.405   9.187 -0.1703 -0.0235 -0.2122
  481POPI   C3A 7675  17.623   1.100   8.685 -0.0332  0.0361 -0.1914
  481POPI   C4A 7676  17.795   0.902   8.167 -0.1678  0.1800 -0.0954
  481POPI   C1B 7677  16.972   1.770   9.430  0.0506 -0.0257  0.2458
  481POPI   C2B 7678  17.165   1.668   9.079 -0.1398  0.1976 -0.2602
  481POPI   C3B 7679  17.190   1.338   8.754 -0.0178  0.0626  0.0799
  481POPI   C4B 7680  17.138   1.182   8.428 -0.0116 -0.0591  0.0040
  482POPI    C1 7681   6.598   1.091  10.706 -0.2537  0.0649  0.0884
  482POPI    C2 7682   6.800   0.896  10.991 -0.1251 -0.0247 -0.0625
  482POPI    C3 7683   6.400   0.906  11.001 -0.1260 -0.1407  0.0472
  482POPI   PO4 7684   6.962   1.115  10.495  0.1680  0.0770  0.0024
  482POPI   GL1 7685   7.240   1.242  10.210 -0.0826  0.2078 -0.4438
  482POPI   GL2 7686   7.142   1.378   9.965 -0.1137  0.0803  0.1837
  482POPI   C1A 7687   7.618   1.279  10.138 -0.0167 -0.0898 -0.1611
  482POPI   D2A 7688   8.053   1.452   9.947 -0.1815  0.1212 -0.0707
  482POPI   C3A 7689   7.950   1.748   9.592  0.0844 -0.2152 -0.5877
  482POPI   C4A 7690   7.905   1.694   9.183 -0.1123  0.2036 -0.1788
  482POPI   C1B 7691   7.022   1.172   9.468 -0.2231 -0.0793 -0.0016
  482POPI   C2B 7692   7.078   1.048   9.053 -0.0693 -0.0563 -0.0849
  482POPI   C3B 7693   7.210   0.809   8.643 -0.3995  0.3774  0.0585
  482POPI   C4B 7694   7.309   0.948   8.335 -0.0014 -0.0441  0.1917
  483POPI    C1 7695   7.782   0.524  10.928 -0.6216  0.0011 -0.0646
  483POPI    C2 7696   7.679   0.887  11.059 -0.0617  0.0886  0.1578
  483POPI    C3 7697   7.735   0.589  11.320  0.2705  0.0549  0.0527
  483POPI   PO4 7698   7.916   0.481  10.559 -0.2521  0.1381 -0.0387
  483POPI   GL1 7699   7.839   0.797  10.205 -0.2361 -0.2770  0.1323
  483POPI   GL2 7700   7.505   0.745  10.218 -0.2003  0.0294  0.1558
  483POPI   C1A 7701   7.850   1.001   9.792 -0.1609 -0.3422  0.3985
  483POPI   D2A 7702   8.068   1.209   9.534 -0.1169 -0.0899  0.0524
  483POPI   C3A 7703   7.992   1.238   9.118  0.3435  0.0506  0.1537
  483POPI   C4A 7704   7.964   1.023   8.685 -0.0267  0.1736 -0.0982
  483POPI   C1B 7705   7.377   0.936   9.815  0.0079  0.3145  0.1038
  483POPI   C2B 7706   7.246   0.708   9.424  0.1442  0.0732  0.0902
  483POPI   C3B 7707   7.123   0.506   9.056 -0.1081 -0.0129 -0.0812
  483POPI   C4B 7708   6.902   0.368   8.605  0.0331  0.0721  0.1159
  484POPI    C1 7709   6.573   7.576   9.682 -0.3356  0.0348  0.0849
  484POPI    C2 7710   6.793   7.406   9.970 -0.1274 -0.1284 -0.1661
  484POPI    C3 7711   6.690   7.792   9.998  0.0889 -0.0819  0.0124
  484POPI   PO4 7712   6.373   7.347   9.674 -0.0712 -0.3219  0.0572
  484POPI   GL1 7713   5.953   7.324   9.451 -0.2530  0.0357  0.0743
  484POPI   GL2 7714   5.654   7.489   9.335  0.1780 -0.2273 -0.0011
  484POPI   C1A 7715   6.164   7.419   9.033 -0.0191 -0.3253 -0.0376
  484POPI   D2A 7716   6.296   7.519   8.631  0.1782 -0.4605 -0.0378
  484POPI   C3A 7717   6.091   7.531   8.322 -0.3196 -0.1893 -0.0989
  484POPI   C4A 7718   6.010   7.623   7.780 -0.2306 -0.2049 -0.1753
  484POPI   C1B 7719   5.628   7.672   8.941 -0.2129  0.0632  0.2543
  484POPI   C2B 7720   5.489   7.612   8.483 -0.1570 -0.2748  0.1010
  484POPI   C3B 7721   5.579   7.579   8.085  0.5548  0.0767 -0.0777
  484POPI   C4B 7722   5.378   7.533   7.690 -0.0590  0.1226  0.0432
  485POPI    C1 7723   4.233  12.266  10.318 -0.1969 -0.2560  0.0510
  485POPI    C2 7724   3.990  12.252  10.635  0.0701 -0.3052  0.2575
  485POPI    C3 7725   4.360  12.398  10.673 -0.0339  0.0815 -0.1281
  485POPI   PO4 7726   4.041  12.019  10.092  0.0799  0.0559 -0.0134
  485POPI   GL1 7727   3.772  12.271   9.692  0.0839  0.1784  0.3426
  485POPI   GL2 7728   3.735  12.536   9.484  0.0586  0.0047 -0.1782
  485POPI   C1A 7729   3.781  12.086   9.217  0.1139 -0.1773  0.0779
  485POPI   D2A 7730   3.590  12.019   8.844 -0.1712  0.0089  0.0864
  485POPI   C3A 7731   3.244  12.176   8.854  0.1182 -0.0887  0.0264
  485POPI   C4A 7732   2.956  12.270   8.620 -0.2162  0.0963  0.3446
  485POPI   C1B 7733   3.757  12.682   9.077 -0.2005 -0.0301 -0.0312
  485POPI   C2B 7734   3.721  12.626   8.664 -0.2401 -0.1588 -0.0515
  485POPI   C3B 7735   3.886  12.395   8.351  0.1908 -0.1551 -0.0945
  485POPI   C4B 7736   4.266  12.539   8.153 -0.1061  0.2715 -0.1428
  486POPI    C1 7737  13.397   7.758  10.206  0.2260  0.1032 -0.0516
  486POPI    C2 7738  13.160   7.917  10.486 -0.0381 -0.1504 -0.1259
  486POPI    C3 7739  13.510   7.752  10.589 -0.0227 -0.0271  0.0219
  486POPI   PO4 7740  13.409   7.967  10.065 -0.2246 -0.2660  0.0521
  486POPI   GL1 7741  13.224   8.085   9.628  0.0874 -0.1918  0.0672
  486POPI   GL2 7742  13.521   8.166   9.563 -0.0274 -0.0409  0.1971
  486POPI   C1A 7743  13.085   8.169   9.234  0.3428  0.0658  0.1546
  486POPI   D2A 7744  13.015   8.272   8.866  0.0496 -0.0605 -0.0943
  486POPI   C3A 7745  13.311   8.427   8.554  0.3413 -0.1651  0.0758
  486POPI   C4A 7746  13.626   8.592   8.443  0.1544  0.0759  0.2269
  486POPI   C1B 7747  13.586   8.271   9.082  0.2417  0.1868 -0.1435
  486POPI   C2B 7748  13.639   8.032   8.637 -0.1826  0.1688 -0.2643
  486POPI   C3B 7749  13.624   8.068   8.283  0.1769  0.2272  0.0951
  486POPI   C4B 7750  13.445   7.781   8.015 -0.1978 -0.0396  0.2978
  487POPI    C1 7751  11.286   0.254  10.318 -0.1437  0.0983  0.0164
  487POPI    C2 7752  11.083  -0.028  10.119  0.4704 -0.3276 -0.0350
  487POPI    C3 7753  11.218  -0.101  10.489  0.4768 -0.0272  0.0252
  487POPI   PO4 7754  11.389   0.476  10.061  0.2997 -0.2461 -0.0727
  487POPI   GL1 7755  11.150   0.338   9.636 -0.2481 -0.0091  0.0589
  487POPI   GL2 7756  11.439   0.118   9.743 -0.0578 -0.0336  0.0736
  487POPI   C1A 7757  11.051   0.252   9.210 -0.1307 -0.0805  0.2574
  487POPI   D2A 7758  10.913   0.390   8.858  0.1412  0.1269 -0.4135
  487POPI   C3A 7759  10.915   0.302   8.397  0.0318 -0.0059 -0.1111
  487POPI   C4A 7760  10.856   0.358   7.956  0.2319  0.2893 -0.0876
  487POPI   C1B 7761  11.308  -0.168   9.404  0.4686  0.0598  0.2635
  487POPI   C2B 7762  11.288  -0.228   8.904  0.0121  0.0848 -0.1081
  487POPI   C3B 7763  11.236  -0.241   8.571  0.0203  0.0962  0.2887
  487POPI   C4B 7764  11.104  -0.368   8.240 -0.3085 -0.1988  0.4341
  488POPI    C1 7765   3.556   7.617   9.653 -0.0694 -0.1897 -0.2694
  488POPI    C2 7766   3.685   7.401   9.964  0.2608  0.0194 -0.2564
  488POPI    C3 7767   3.300   7.386   9.856  0.2009 -0.2717 -0.0151
  488POPI   PO4 7768   3.680   7.837   9.569 -0.1920  0.1876 -0.1960
  488POPI   GL1 7769   3.646   7.897   9.182 -0.0086  0.1777 -0.3118
  488POPI   GL2 7770   3.334   7.814   9.193 -0.1585 -0.0678 -0.3430
  488POPI   C1A 7771   3.779   8.272   9.048 -0.2632  0.2715 -0.1453
  488POPI   D2A 7772   3.947   8.432   8.647 -0.2379 -0.3227 -0.3194
  488POPI   C3A 7773   3.841   8.336   8.154  0.1646  0.1064 -0.0164
  488POPI   C4A 7774   4.037   8.142   7.779  0.0528  0.1802 -0.1941
  488POPI   C1B 7775   3.563   7.819   8.738 -0.1271 -0.1099 -0.0969
  488POPI   C2B 7776   3.484   7.943   8.257  0.1913 -0.0491  0.0695
  488POPI   C3B 7777   3.134   7.842   8.003 -0.0011 -0.1058 -0.0063
  488POPI   C4B 7778   2.903   7.529   7.728 -0.0959  0.0020 -0.0414
  489POPI    C1 7779   0.688  13.285  10.790  0.0085  0.2195  0.0057
  489POPI    C2 7780   0.983  13.533  10.898  0.0265  0.2087 -0.0186
  489POPI    C3 7781   0.780  13.331  11.177  0.1887  0.0479 -0.0154
  489POPI   PO4 7782   0.747  13.186  10.568  0.7177 -0.2862 -0.0497
  489POPI   GL1 7783   0.918  13.310  10.111 -0.1358 -0.0593 -0.1466
  489POPI   GL2 7784   1.033  13.580  10.004 -0.0380 -0.0987 -0.1238
  489POPI   C1A 7785   0.832  13.232   9.677  0.0813 -0.2182 -0.1206
  489POPI   D2A 7786   0.911  13.182   9.220  0.0409  0.3202 -0.1981
  489POPI   C3A 7787   0.794  13.348   8.886 -0.1080 -0.0089 -0.0992
  489POPI   C4A 7788   0.550  13.333   8.480 -0.3743 -0.1810 -0.1460
  489POPI   C1B 7789   1.188  13.641   9.619  0.0522  0.0925 -0.0743
  489POPI   C2B 7790   1.241  13.611   9.163  0.2741  0.0944  0.3159
  489POPI   C3B 7791   1.253  13.445   8.727  0.2275 -0.1459  0.0852
  489POPI   C4B 7792   1.127  13.460   8.235 -0.0684  0.1342 -0.3176
  490POPI    C1 7793  17.799  16.235  10.898 -0.0339  0.0825  0.0850
  490POPI    C2 7794  18.047  16.036  11.140 -0.0744 -0.0160  0.0457
  490POPI    C3 7795  18.048  16.436  11.138  0.0143 -0.0156  0.1177
  490POPI   PO4 7796  17.853  16.125  10.552  0.3301  0.0994 -0.0758
  490POPI   GL1 7797  18.086  16.237  10.057 -0.0277 -0.0975  0.0280
  490POPI   GL2 7798  17.748  16.107   9.968  0.1734  0.2196 -0.2046
  490POPI   C1A 7799  18.204  16.011   9.761 -0.1200 -0.1074  0.2709
  490POPI   D2A 7800  18.331  15.975   9.386 -0.0162 -0.3506  0.0774
  490POPI   C3A 7801  18.217  15.901   8.990  0.2403 -0.2082 -0.0552
  490POPI   C4A 7802  18.220  16.058   8.600  0.1736 -0.1491  0.2827
  490POPI   C1B 7803  17.766  16.271   9.609 -0.2390 -0.0498  0.2005
  490POPI   C2B 7804  17.796  16.094   9.167  0.0379 -0.0867 -0.1160
  490POPI   C3B 7805  17.760  16.295   8.817 -0.2791  0.0313 -0.0030
  490POPI   C4B 7806  17.382  16.428   8.584 -0.3036 -0.0007 -0.0382
  491POPI    C1 7807  18.023   3.443  10.005  0.2479 -0.2730  0.0514
  491POPI    C2 7808  17.903   3.222  10.316 -0.1625 -0.2451 -0.0810
  491POPI    C3 7809  17.710   3.560  10.225  0.1265 -0.1096 -0.2040
  491POPI   PO4 7810  18.005   3.269   9.709 -0.1114  0.0505 -0.2345
  491POPI   GL1 7811  18.044   3.202   9.284 -0.1234 -0.0075 -0.0184
  491POPI   GL2 7812  18.093   2.838   9.297  0.0069 -0.1954  0.0485
  491POPI   C1A 7813  18.068   3.333   8.799  0.1910  0.0759  0.2743
  491POPI   D2A 7814  18.176   3.196   8.312 -0.1998  0.2691 -0.0207
  491POPI   C3A 7815  18.131   3.485   7.993 -0.0033 -0.1944  0.1942
  491POPI   C4A 7816  18.415   3.730   7.756 -0.1383  0.2559 -0.0518
  491POPI   C1B 7817  17.883   2.851   8.917 -0.0451  0.4081 -0.2607
  491POPI   C2B 7818  17.762   2.865   8.523  0.1122  0.2045  0.1571
  491POPI   C3B 7819  17.524   2.702   8.189 -0.1033  0.0409  0.0986
  491POPI   C4B 7820  17.228   2.618   7.892 -0.0200 -0.2232  0.3617
  492POPI    C1 7821   7.610   7.560   9.788 -0.0938 -0.1049  0.0165
  492POPI    C2 7822   7.918   7.432   9.567 -0.1392 -0.1385 -0.0275
  492POPI    C3 7823   7.862   7.287   9.936 -0.1107 -0.1430 -0.0250
  492POPI   PO4 7824   7.564   7.785   9.646  0.0377  0.1679  0.1993
  492POPI   GL1 7825   7.517   7.903   9.200 -0.0289 -0.2292  0.0038
  492POPI   GL2 7826   7.642   7.664   9.168  0.0948 -0.0616  0.0731
  492POPI   C1A 7827   7.339   7.907   8.778 -0.0355 -0.0365 -0.5154
  492POPI   D2A 7828   7.410   7.811   8.368  0.0742  0.3030  0.1059
  492POPI   C3A 7829   7.191   7.526   8.207  0.1947 -0.2428 -0.0160
  492POPI   C4A 7830   7.080   7.156   8.022  0.0973 -0.1543  0.1655
  492POPI   C1B 7831   7.713   7.481   8.699  0.0371 -0.0201 -0.1742
  492POPI   C2B 7832   7.865   7.568   8.241 -0.0434 -0.2039 -0.0414
  492POPI   C3B 7833   7.659   7.734   7.945 -0.2689  0.1712  0.0039
  492POPI   C4B 7834   7.707   7.915   7.539 -0.0362  0.1803  0.0256
  493POPI    C1 7835   7.292   7.198   9.885 -0.1046 -0.0701  0.0842
  493POPI    C2 7836   7.494   7.071  10.206 -0.0959 -0.1981  0.0286
  493POPI    C3 7837   7.338   7.439  10.201  0.2449 -0.0500  0.0215
  493POPI   PO4 7838   7.441   7.137   9.655  0.4024 -0.0395  0.0027
  493POPI   GL1 7839   7.361   7.281   9.305 -0.2269  0.0597 -0.0102
  493POPI   GL2 7840   7.149   7.460   9.160 -0.0209 -0.1535 -0.0290
  493POPI   C1A 7841   7.477   7.110   8.986 -0.4998  0.1245  0.0960
  493POPI   D2A 7842   7.807   6.898   8.697  0.0735 -0.3074  0.1779
  493POPI   C3A 7843   7.909   7.008   8.190  0.1798  0.1745  0.2330
  493POPI   C4A 7844   7.739   6.767   7.850  0.1329 -0.0505 -0.0316
  493POPI   C1B 7845   7.234   7.420   8.731  0.1171  0.0028 -0.1419
  493POPI   C2B 7846   7.436   7.158   8.384 -0.0192  0.3508 -0.0656
  493POPI   C3B 7847   7.396   6.800   8.226  0.0505  0.0134  0.2912
  493POPI   C4B 7848   7.131   6.563   7.885  0.0739  0.1049 -0.1450
  494POPI    C1 7849   5.701   5.647  10.038 -0.0945  0.0127 -0.0112
  494POPI    C2 7850   5.676   5.563  10.428  0.1614  0.1857  0.0449
  494POPI    C3 7851   5.784   5.930  10.309  0.2633  0.0822 -0.1867
  494POPI   PO4 7852   5.798   5.382  10.010 -0.0502  0.0565 -0.0294
  494POPI   GL1 7853   5.984   5.282   9.624  0.1111 -0.1296  0.0151
  494POPI   GL2 7854   5.742   5.658   9.539  0.1722 -0.1616 -0.2787
  494POPI   C1A 7855   6.086   5.443   9.236 -0.0039 -0.2935 -0.1769
  494POPI   D2A 7856   6.026   5.614   8.864 -0.0527  0.0119  0.2260
  494POPI   C3A 7857   6.249   5.244   8.628 -0.5034 -0.1108 -0.0304
  494POPI   C4A 7858   6.320   4.974   8.271 -0.0155 -0.1578 -0.0852
  494POPI   C1B 7859   5.513   5.772   9.156 -0.2751  0.2762  0.1312
  494POPI   C2B 7860   5.482   5.764   8.663 -0.1205  0.0748  0.1542
  494POPI   C3B 7861   5.752   5.824   8.302  0.0131 -0.2964 -0.2005
  494POPI   C4B 7862   5.751   5.637   7.805 -0.2602 -0.1932 -0.3856
  495POPI    C1 7863  16.727   8.662  10.768 -0.2504  0.1237 -0.0793
  495POPI    C2 7864  16.414   8.566  10.537 -0.2635 -0.1119  0.0336
  495POPI    C3 7865  16.356   8.757  10.884 -0.2556  0.1135 -0.0872
  495POPI   PO4 7866  16.956   8.810  10.606 -0.0553 -0.1350 -0.1035
  495POPI   GL1 7867  17.332   8.811  10.327  0.1171  0.1261  0.1497
  495POPI   GL2 7868  17.521   9.087  10.239  0.1643  0.0784 -0.2041
  495POPI   C1A 7869  17.187   8.863   9.943 -0.1202  0.1041  0.0239
  495POPI   D2A 7870  17.413   9.224   9.572 -0.0938  0.1989 -0.1031
  495POPI   C3A 7871  17.899   9.125   9.549 -0.1406 -0.0812  0.4506
  495POPI   C4A 7872  18.165   9.098   9.900  0.2462 -0.0692  0.1504
  495POPI   C1B 7873  17.700   9.271   9.971 -0.0035  0.0834 -0.1754
  495POPI   C2B 7874  17.808   9.536   9.780  0.2304  0.3531 -0.1403
  495POPI   C3B 7875  17.709   9.550   9.286  0.0193  0.1790 -0.1226
  495POPI   C4B 7876  17.520   9.504   8.859 -0.2617 -0.2134  0.0386
  496POPI    C1 7877   4.545   2.105  10.523  0.1008  0.3884 -0.1050
  496POPI    C2 7878   4.815   2.345  10.694 -0.1822  0.4642  0.2465
  496POPI    C3 7879   4.551   2.148  10.920 -0.0734 -0.0411 -0.0506
  496POPI   PO4 7880   4.679   1.971  10.300  0.2462  0.1735 -0.4460
  496POPI   GL1 7881   4.492   1.637  10.094  0.1563 -0.1687  0.0925
  496POPI   GL2 7882   4.382   1.772   9.871 -0.0501  0.1285 -0.2409
  496POPI   C1A 7883   4.663   1.360   9.747 -0.2302 -0.0809  0.0960
  496POPI   D2A 7884   4.792   1.200   9.271  0.2054  0.0919  0.0395
  496POPI   C3A 7885   4.823   1.460   8.895  0.2490 -0.0757 -0.0141
  496POPI   C4A 7886   4.862   1.466   8.431  0.0996  0.3365 -0.0471
  496POPI   C1B 7887   4.436   1.664   9.407  0.0690  0.1661  0.1390
  496POPI   C2B 7888   4.326   1.532   9.074 -0.1123  0.1740 -0.0105
  496POPI   C3B 7889   4.282   1.433   8.554  0.0354 -0.1128  0.3281
  496POPI   C4B 7890   4.311   1.303   8.272  0.2307  0.1599 -0.0953
  497POPI    C1 7891   9.698   6.017  10.203  0.1944  0.1614  0.0846
  497POPI    C2 7892   9.546   5.811  10.510  0.0668 -0.1324 -0.1705
  497POPI    C3 7893   9.544   6.211  10.518 -0.5183 -0.1282 -0.0660
  497POPI   PO4 7894   9.854   5.852  10.008  0.0003 -0.0239 -0.0728
  497POPI   GL1 7895   9.778   5.440   9.666 -0.2471 -0.1099  0.0653
  497POPI   GL2 7896   9.837   5.801   9.525 -0.2085 -0.0983  0.1379
  497POPI   C1A 7897   9.920   5.233   9.232 -0.1926  0.0044 -0.2253
  497POPI   D2A 7898   9.870   5.097   8.878 -0.2375  0.0636 -0.0343
  497POPI   C3A 7899  10.043   5.338   8.579 -0.0501 -0.3291  0.1845
  497POPI   C4A 7900  10.058   5.466   8.130  0.0686  0.1023  0.2170
  497POPI   C1B 7901   9.637   5.695   9.238 -0.0386  0.0292  0.0530
  497POPI   C2B 7902   9.771   5.603   8.919  0.2162 -0.4059  0.4789
  497POPI   C3B 7903   9.711   5.651   8.430  0.1934 -0.1148  0.0026
  497POPI   C4B 7904   9.728   5.899   8.031  0.2601 -0.0346 -0.2362
  498POPI    C1 7905  12.083   7.870  10.583 -0.0319  0.0479 -0.0690
  498POPI    C2 7906  11.685   7.897  10.561 -0.0259  0.1110 -0.1022
  498POPI    C3 7907  11.895   8.187  10.740  0.0375  0.2787 -0.4406
  498POPI   PO4 7908  12.105   7.745  10.384 -0.1920  0.0828  0.1799
  498POPI   GL1 7909  12.303   7.761   9.994  0.0740 -0.0327  0.1024
  498POPI   GL2 7910  12.453   7.650   9.777  0.0905  0.0734  0.3392
  498POPI   C1A 7911  12.088   7.995   9.648  0.1274  0.1225  0.2765
  498POPI   D2A 7912  12.217   7.962   9.308  0.1982  0.2104  0.1263
  498POPI   C3A 7913  12.278   7.954   8.870  0.0789  0.3287  0.1891
  498POPI   C4A 7914  12.457   7.978   8.540 -0.0266  0.3152 -0.1195
  498POPI   C1B 7915  12.406   7.485   9.279  0.1879  0.0559 -0.0770
  498POPI   C2B 7916  12.474   7.471   8.873  0.3111  0.0278  0.4079
  498POPI   C3B 7917  12.620   7.518   8.439 -0.0702 -0.1661  0.1215
  498POPI   C4B 7918  12.530   7.644   7.894 -0.0988 -0.0744  0.0096
  499POPI    C1 7919  11.680   7.477  10.220 -0.2028 -0.0380 -0.2581
  499POPI    C2 7920  11.754   7.800   9.996  0.0576  0.2013  0.1603
  499POPI    C3 7921  11.401   7.760  10.179 -0.0447  0.1528 -0.0455
  499POPI   PO4 7922  11.706   7.295  10.086  0.0298 -0.1037 -0.0347
  499POPI   GL1 7923  11.470   7.198   9.672  0.2540  0.1209  0.0439
  499POPI   GL2 7924  11.375   7.510   9.786 -0.1002 -0.0213  0.0184
  499POPI   C1A 7925  11.319   7.199   9.209  0.0525 -0.0489 -0.0026
  499POPI   D2A 7926  11.334   7.276   8.809  0.1755  0.2321  0.0824
  499POPI   C3A 7927  11.425   7.579   8.502  0.2023  0.1829 -0.0530
  499POPI   C4A 7928  11.607   7.640   8.189  0.0370 -0.0064  0.5112
  499POPI   C1B 7929  11.029   7.347   9.659 -0.0097  0.1498  0.0623
  499POPI   C2B 7930  10.872   7.378   9.252  0.0189 -0.0634 -0.2304
  499POPI   C3B 7931  10.833   7.348   8.829 -0.0139 -0.1156 -0.0736
  499POPI   C4B 7932  10.563   7.490   8.561  0.2880  0.3275  0.3809
  500POPI    C1 7933  11.409  11.819  10.644 -0.1073  0.2199  0.0923
  500POPI    C2 7934  11.370  12.213  10.587  0.1561  0.2525  0.1265
  500POPI    C3 7935  11.109  12.018  10.819  0.1404  0.4428  0.2716
  500POPI   PO4 7936  11.446  11.670  10.385 -0.0780  0.2764 -0.0616
  500POPI   GL1 7937  11.470  11.668   9.944 -0.0727 -0.4809 -0.3519
  500POPI   GL2 7938  11.579  11.394   9.915 -0.2824 -0.4335 -0.0617
  500POPI   C1A 7939  11.672  11.631   9.466 -0.0137  0.1417 -0.1659
  500POPI   D2A 7940  11.727  11.776   9.111  0.1356  0.0304 -0.2151
  500POPI   C3A 7941  11.578  11.673   8.736 -0.0121  0.0288  0.2379
  500POPI   C4A 7942  11.549  11.533   8.338 -0.2329 -0.0043 -0.0943
  500POPI   C1B 7943  11.213  11.469   9.597 -0.1732 -0.0472  0.1237
  500POPI   C2B 7944  11.283  11.438   9.107  0.0616 -0.0613 -0.0304
  500POPI   C3B 7945  11.181  11.349   8.603 -0.1243 -0.0369 -0.1619
  500POPI   C4B 7946  10.897  11.239   8.377 -0.0493 -0.1148  0.0046
  501POPI    C1 7947  14.965  13.309  10.515  0.0013 -0.0013 -0.0271
  501POPI    C2 7948  14.853  13.180  10.877 -0.0322 -0.0349 -0.0494
  501POPI    C3 7949  15.229  13.302  10.815 -0.0200 -0.0517 -0.0093
  501POPI   PO4 7950  14.887  13.116  10.324 -0.4084  0.0743 -0.0037
  501POPI   GL1 7951  15.144  13.145  10.008  0.1338  0.1852 -0.0367
  501POPI   GL2 7952  14.853  13.226   9.874 -0.3415  0.3981  0.2524
  501POPI   C1A 7953  15.096  12.782   9.756  0.0673  0.1128 -0.0987
  501POPI   D2A 7954  15.080  12.745   9.367  0.2622  0.0422  0.1552
  501POPI   C3A 7955  14.684  12.829   9.326  0.2029  0.0147 -0.0440
  501POPI   C4A 7956  14.451  12.945   9.678 -0.3306  0.1548 -0.0458
  501POPI   C1B 7957  14.697  13.366   9.451  0.1294 -0.0896  0.0895
  501POPI   C2B 7958  14.716  13.276   9.011  0.0811  0.1462  0.0167
  501POPI   C3B 7959  14.546  13.157   8.599 -0.0266 -0.1541  0.1895
  501POPI   C4B 7960  14.481  12.804   8.389  0.2056 -0.3406  0.1320
  502POPI    C1 7961  14.963   0.753  10.386  0.1079 -0.0410 -0.1737
  502POPI    C2 7962  15.160   1.023  10.606  0.1007 -0.0163 -0.1975
  502POPI    C3 7963  14.943   0.739  10.785  0.3009 -0.1525 -0.1667
  502POPI   PO4 7964  14.877   0.945  10.115  0.1154 -0.2726 -0.0676
  502POPI   GL1 7965  14.885   0.794   9.800  0.1220  0.0594 -0.0719
  502POPI   GL2 7966  15.207   0.603   9.912 -0.3616  0.1827 -0.0639
  502POPI   C1A 7967  15.120   0.773   9.356 -0.3364 -0.0564 -0.4247
  502POPI   D2A 7968  15.384   0.921   8.948  0.2200  0.3024  0.2763
  502POPI   C3A 7969  15.309   0.752   8.561  0.1400 -0.0924 -0.0851
  502POPI   C4A 7970  15.343   0.428   8.202  0.1215 -0.0269  0.1452
  502POPI   C1B 7971  15.382   1.045   9.689  0.5308 -0.0758 -0.0607
  502POPI   C2B 7972  15.432   1.286   9.277 -0.0350 -0.0917  0.0072
  502POPI   C3B 7973  15.249   1.452   8.854  0.2803 -0.0528  0.0981
  502POPI   C4B 7974  15.186   1.817   8.620 -0.2685 -0.0991 -0.0793
  503POPI    C1 7975   5.489  17.406  10.588 -0.0024 -0.1153  0.0430
  503POPI    C2 7976   5.608  17.391  10.970  0.0082  0.0977  0.0488
  503POPI    C3 7977   5.250  17.543  10.877 -0.1574 -0.3048  0.0072
  503POPI   PO4 7978   5.464  17.165  10.482  0.2332 -0.0690  0.0336
  503POPI   GL1 7979   5.378  16.950  10.088  0.2229 -0.1246 -0.2616
  503POPI   GL2 7980   5.678  16.920  10.137  0.1111  0.1177  0.0669
  503POPI   C1A 7981   5.152  17.141   9.744  0.2869  0.3010  0.1497
  503POPI   D2A 7982   5.080  17.461   9.528  0.3733  0.2734 -0.4269
  503POPI   C3A 7983   5.034  17.598   9.084  0.2980  0.0312 -0.2744
  503POPI   C4A 7984   4.924  17.696   8.686 -0.1160 -0.0551  0.1374
  503POPI   C1B 7985   5.917  16.770   9.785 -0.0390  0.3856  0.1718
  503POPI   C2B 7986   5.777  16.706   9.346  0.0456 -0.0168  0.1789
  503POPI   C3B 7987   5.512  16.791   8.992  0.1696 -0.1641  0.0302
  503POPI   C4B 7988   5.156  16.693   8.710  0.0278  0.3098 -0.2873
  504POPI    C1 7989  11.221   4.610  10.427  0.1446 -0.1069  0.2071
  504POPI    C2 7990  10.828   4.687  10.432  0.1835  0.1268 -0.0713
  504POPI    C3 7991  11.025   4.630  10.776 -0.0847  0.0461  0.0722
  504POPI   PO4 7992  11.327   4.468  10.226  0.0022 -0.0573  0.1786
  504POPI   GL1 7993  11.354   4.238   9.855 -0.0506  0.0341 -0.2274
  504POPI   GL2 7994  11.479   3.961  10.100 -0.0276 -0.2834  0.2559
  504POPI   C1A 7995  11.473   4.234   9.480 -0.3086  0.0643  0.1980
  504POPI   D2A 7996  11.553   4.110   9.081 -0.0670  0.0314 -0.0998
  504POPI   C3A 7997  11.461   4.215   8.688 -0.1774  0.2122 -0.3496
  504POPI   C4A 7998  11.591   4.075   8.310  0.0074 -0.0688 -0.1717
  504POPI   C1B 7999  11.630   3.769   9.700  0.0764 -0.3391 -0.4141
  504POPI   C2B 8000  11.785   3.663   9.249  0.1803 -0.1871  0.0991
  504POPI   C3B 8001  11.704   3.736   8.757  0.1264  0.2603  0.1766
  504POPI   C4B 8002  11.711   3.611   8.330 -0.2969  0.0062  0.2659
  505POPI    C1 8003  18.117   1.279   9.879 -0.1240  0.0698 -0.1252
  505POPI    C2 8004  17.950   1.469   9.569 -0.1355  0.0270 -0.1454
  505POPI    C3 8005  17.720   1.280   9.836 -0.1400  0.2525  0.0136
  505POPI   PO4 8006  18.335   1.429   9.910 -0.0777 -0.0310 -0.0182
  505POPI   GL1 8007  18.679   1.506   9.533  0.2103 -0.1232  0.2016
  505POPI   GL2 8008  18.408   1.729   9.398  0.4536 -0.1313 -0.3190
  505POPI   C1A 8009  18.699   1.211   9.207  0.1376  0.2925  0.0052
  505POPI   D2A 8010  18.564   1.193   8.875  0.0716 -0.1951 -0.1057
  505POPI   C3A 8011  18.632   1.332   8.479 -0.2219 -0.0224  0.0749
  505POPI   C4A 8012  18.753   1.345   8.014  0.1521 -0.0264 -0.2453
  505POPI   C1B 8013  18.294   1.611   9.057 -0.1447 -0.2297  0.2243
  505POPI   C2B 8014  18.107   1.485   8.671 -0.0526 -0.0251 -0.0835
  505POPI   C3B 8015  18.024   1.362   8.278 -0.0081 -0.0988  0.2168
  505POPI   C4B 8016  18.216   1.166   7.997  0.0120 -0.0176 -0.2715
  506POPI    C1 8017  16.408   4.837  10.381 -0.0945 -0.0861 -0.2953
  506POPI    C2 8018  16.149   4.536  10.425 -0.0575 -0.0647  0.1044
  506POPI    C3 8019  16.442   4.589  10.692  0.1228  0.1456 -0.1298
  506POPI   PO4 8020  16.508   4.818  10.155  0.1158 -0.2392 -0.1919
  506POPI   GL1 8021  16.230   5.025   9.794  0.2262  0.0623  0.6016
  506POPI   GL2 8022  16.026   5.246   9.731 -0.0949  0.0440 -0.0731
  506POPI   C1A 8023  16.281   4.743   9.448  0.3668 -0.0739 -0.0785
  506POPI   D2A 8024  16.281   4.318   9.297  0.0331  0.2824 -0.1041
  506POPI   C3A 8025  16.264   4.317   8.815 -0.4342  0.0822  0.1654
  506POPI   C4A 8026  16.502   4.505   8.493 -0.0733 -0.0592 -0.1943
  506POPI   C1B 8027  15.897   5.160   9.355 -0.1762 -0.3873 -0.0859
  506POPI   C2B 8028  16.031   5.328   9.020 -0.2332 -0.2045 -0.0660
  506POPI   C3B 8029  16.357   5.529   8.799 -0.1856  0.0589 -0.1896
  506POPI   C4B 8030  16.543   5.551   8.477 -0.2006  0.1775  0.3217
  507POPI    C1 8031  17.552  18.116  10.450  0.1048 -0.1658  0.0485
  507POPI    C2 8032  17.251  17.954  10.244 -0.0035  0.1955 -0.0850
  507POPI    C3 8033  17.188  18.092  10.614  0.0546  0.0658 -0.0260
  507POPI   PO4 8034  17.691  18.126  10.120 -0.0609  0.0808  0.5060
  507POPI   GL1 8035  17.573  17.963   9.688 -0.1876  0.1063 -0.1245
  507POPI   GL2 8036  17.903  17.902   9.664 -0.0534 -0.2852 -0.1091
  507POPI   C1A 8037  17.524  17.886   9.155 -0.0935 -0.2705 -0.0756
  507POPI   D2A 8038  17.596  17.760   8.793 -0.0768 -0.2591 -0.0923
  507POPI   C3A 8039  17.447  17.440   8.448 -0.2163  0.3001  0.3363
  507POPI   C4A 8040  17.149  17.335   8.014  0.0865 -0.0663  0.2217
  507POPI   C1B 8041  17.941  17.660   9.319  0.1972  0.2177 -0.0546
  507POPI   C2B 8042  18.233  17.452   9.041  0.0837 -0.1254 -0.1654
  507POPI   C3B 8043  18.358  17.507   8.643  0.0287 -0.1873 -0.4078
  507POPI   C4B 8044  18.463  17.700   8.196  0.2019  0.1552 -0.0514
  508POPI    C1 8045   3.050  14.395  10.681 -0.3977  0.1188  0.0813
  508POPI    C2 8046   3.322  14.518  10.947  0.0381 -0.3916 -0.1106
  508POPI    C3 8047   2.957  14.408  11.070 -0.0352  0.1342  0.1703
  508POPI   PO4 8048   3.195  14.519  10.413  0.2811 -0.0533 -0.1393
  508POPI   GL1 8049   3.346  14.762   9.997  0.2799  0.3713 -0.1614
  508POPI   GL2 8050   3.162  14.542   9.900  0.2024  0.0116 -0.1071
  508POPI   C1A 8051   3.593  14.443   9.777 -0.2337  0.0003  0.1688
  508POPI   D2A 8052   3.337  14.060   9.658  0.1063  0.0065  0.0842
  508POPI   C3A 8053   3.164  13.957   9.273  0.1081 -0.1380 -0.2800
  508POPI   C4A 8054   3.252  14.029   8.836  0.2769  0.0216 -0.1285
  508POPI   C1B 8055   3.191  14.463   9.453 -0.1461  0.2417 -0.2549
  508POPI   C2B 8056   3.084  14.438   9.115  0.0908 -0.0222 -0.0947
  508POPI   C3B 8057   3.124  14.503   8.843 -0.1287 -0.0003 -0.2287
  508POPI   C4B 8058   3.286  14.416   8.396  0.2238 -0.0285 -0.1700
  509POPI    C1 8059  18.133  17.585  10.281 -0.3667 -0.3055 -0.0838
  509POPI    C2 8060  18.006  17.919  10.460 -0.1768 -0.1329 -0.2661
  509POPI    C3 8061  18.076  17.590  10.677 -0.0229  0.0503 -0.0335
  509POPI   PO4 8062  17.926  17.553  10.033  0.0677 -0.1790  0.1664
  509POPI   GL1 8063  17.854  17.244   9.723 -0.0385  0.0650  0.2393
  509POPI   GL2 8064  17.566  17.245   9.517  0.0373 -0.2644  0.1517
  509POPI   C1A 8065  18.041  17.119   9.348  0.0985  0.3066 -0.2250
  509POPI   D2A 8066  18.302  16.976   9.075 -0.2492  0.0845 -0.0422
  509POPI   C3A 8067  18.340  17.015   8.644  0.2378  0.1682  0.0785
  509POPI   C4A 8068  18.278  16.924   8.203 -0.3533  0.1070  0.0659
  509POPI   C1B 8069  17.629  17.363   9.131 -0.1024  0.1491 -0.2267
  509POPI   C2B 8070  17.856  17.300   8.717  0.0873 -0.0540 -0.1888
  509POPI   C3B 8071  18.033  17.364   8.256 -0.2367 -0.3987 -0.0107
  509POPI   C4B 8072  18.326  17.335   7.865 -0.0083 -0.1069  0.0720
  510POPI    C1 8073  12.491  15.844  10.622 -0.1066  0.0462  0.2580
  510POPI    C2 8074  12.718  15.516  10.598 -0.0793  0.0684  0.2110
  510POPI    C3 8075  12.805  15.800  10.866 -0.1715 -0.0155  0.3306
  510POPI   PO4 8076  12.422  15.972  10.311 -0.1380  0.1702  0.0246
  510POPI   GL1 8077  12.238  16.181   9.919  0.0203 -0.1245 -0.0817
  510POPI   GL2 8078  12.285  16.453   9.693  0.1124  0.2054 -0.3261
  510POPI   C1A 8079  12.025  16.028   9.553 -0.0850  0.2213 -0.0132
  510POPI   D2A 8080  11.733  16.011   9.348 -0.4244 -0.0791  0.3115
  510POPI   C3A 8081  11.609  16.022   8.883 -0.0050  0.1103  0.1460
  510POPI   C4A 8082  11.663  15.682   8.576 -0.0327 -0.1397 -0.0947
  510POPI   C1B 8083  12.071  16.407   9.263  0.0008 -0.0475  0.2457
  510POPI   C2B 8084  12.019  16.242   8.969  0.0116  0.1593  0.3832
  510POPI   C3B 8085  12.062  16.055   8.516 -0.0156 -0.0291  0.1440
  510POPI   C4B 8086  11.845  15.858   8.154 -0.1164 -0.2959  0.0774
  511POPI    C1 8087  12.569   6.426  10.382  0.3677  0.2204  0.0466
  511POPI    C2 8088  12.663   6.653  10.698  0.1100  0.1578  0.1711
  511POPI    C3 8089  12.279   6.591  10.604  0.1851  0.3206 -0.2610
  511POPI   PO4 8090  12.683   6.591  10.064 -0.0853  0.2552  0.1053
  511POPI   GL1 8091  12.654   6.571   9.617  0.3055 -0.0474 -0.0995
  511POPI   GL2 8092  12.396   7.016   9.543 -0.0387 -0.2725  0.0272
  511POPI   C1A 8093  12.631   6.763   9.189  0.2102  0.1841 -0.0821
  511POPI   D2A 8094  12.436   6.663   8.742 -0.2860  0.1873  0.0365
  511POPI   C3A 8095  12.432   6.854   8.363 -0.0910  0.0368  0.0455
  511POPI   C4A 8096  12.471   7.148   7.967  0.0584 -0.0253  0.1021
  511POPI   C1B 8097  12.272   7.075   9.106  0.2936 -0.2327 -0.0846
  511POPI   C2B 8098  12.176   7.162   8.633 -0.2050 -0.0037 -0.1242
  511POPI   C3B 8099  11.986   7.234   8.204 -0.1398  0.0269 -0.0348
  511POPI   C4B 8100  12.015   7.596   7.857 -0.1610 -0.3015  0.2750
  512POPI    C1 8101  10.235   3.348  10.712 -0.1353  0.3411 -0.0737
  512POPI    C2 8102  10.623   3.367  10.618 -0.1040 -0.0059 -0.0308
  512POPI    C3 8103  10.383   3.678  10.542  0.2043  0.2596  0.0550
  512POPI   PO4 8104  10.182   3.120  10.633  0.3605  0.1133  0.1586
  512POPI   GL1 8105  10.305   2.949  10.216  0.2306 -0.2972 -0.0696
  512POPI   GL2 8106  10.484   2.623  10.094 -0.1851  0.0042 -0.3342
  512POPI   C1A 8107  10.438   3.072   9.812 -0.2930  0.0999 -0.3284
  512POPI   D2A 8108  10.513   3.206   9.378 -0.0538  0.0378 -0.1678
  512POPI   C3A 8109  10.488   3.185   8.973  0.2413  0.0667  0.1420
  512POPI   C4A 8110  10.362   3.045   8.566  0.0847  0.1401 -0.1678
  512POPI   C1B 8111  10.531   2.626   9.643 -0.0672 -0.0236 -0.0148
  512POPI   C2B 8112  10.794   2.681   9.333 -0.2098 -0.0197  0.1905
  512POPI   C3B 8113  10.662   2.725   8.916  0.3741  0.0554 -0.2724
  512POPI   C4B 8114  10.608   2.655   8.508  0.0066 -0.0551  0.0238
  513POPI    C1 8115  14.970   8.436  10.222  0.1708 -0.1189 -0.0591
  513POPI    C2 8116  14.949   8.717  10.506 -0.0376 -0.0625 -0.1285
  513POPI    C3 8117  14.692   8.411  10.509  0.0296 -0.1198 -0.1947
  513POPI   PO4 8118  15.055   8.683   9.934 -0.1072  0.0180 -0.2725
  513POPI   GL1 8119  14.932   8.624   9.588  0.3672 -0.3060  0.0313
  513POPI   GL2 8120  15.178   8.368   9.610  0.2612 -0.1080  0.2353
  513POPI   C1A 8121  14.987   8.594   9.175  0.0860 -0.0841 -0.4551
  513POPI   D2A 8122  15.082   8.642   8.788  0.0483  0.0182  0.0835
  513POPI   C3A 8123  14.877   8.497   8.384  0.2279  0.0386  0.2651
  513POPI   C4A 8124  14.500   8.564   8.045 -0.1030 -0.0536  0.2316
  513POPI   C1B 8125  15.395   8.347   9.250  0.1951 -0.0573  0.1257
  513POPI   C2B 8126  15.496   8.304   8.880 -0.0201 -0.1731  0.0062
  513POPI   C3B 8127  15.540   8.376   8.471  0.0446 -0.0711 -0.1003
  513POPI   C4B 8128  15.373   8.468   8.126 -0.0999 -0.0727 -0.0017
  514POPI    C1 8129  12.877   9.782  10.324 -0.0604  0.1986  0.0403
  514POPI    C2 8130  12.655   9.585  10.593  0.0988 -0.2980 -0.1807
  514POPI    C3 8131  13.041   9.662  10.669  0.0530 -0.1204 -0.1214
  514POPI   PO4 8132  12.723   9.721  10.102 -0.1859  0.2256  0.0362
  514POPI   GL1 8133  12.696   9.949   9.683  0.0207  0.3549 -0.2549
  514POPI   GL2 8134  12.434  10.181   9.663 -0.3213  0.0426 -0.0726
  514POPI   C1A 8135  12.983  10.122   9.369  0.1448  0.0341  0.0854
  514POPI   D2A 8136  13.015  10.168   8.960 -0.2377  0.0971 -0.0020
  514POPI   C3A 8137  13.380  10.225   8.594 -0.2348  0.0357  0.0098
  514POPI   C4A 8138  13.870  10.201   8.692 -0.1315 -0.2146 -0.0460
  514POPI   C1B 8139  12.460  10.133   9.238  0.0696 -0.1901  0.2054
  514POPI   C2B 8140  12.426  10.116   8.834 -0.1482 -0.2436 -0.0815
  514POPI   C3B 8141  12.701  10.111   8.543  0.0378  0.0499 -0.3519
  514POPI   C4B 8142  12.737  10.101   8.069 -0.2506  0.1036 -0.1088
  515POPI    C1 8143  12.764   1.164  10.401 -0.0646  0.1741 -0.0596
  515POPI    C2 8144  13.031   0.940  10.596 -0.3041 -0.1181 -0.0603
  515POPI    C3 8145  12.746   1.133  10.799 -0.1549  0.1154 -0.0682
  515POPI   PO4 8146  12.833   1.374  10.269  0.1033  0.0408  0.0279
  515POPI   GL1 8147  12.870   1.424   9.842  0.0109  0.0586  0.0182
  515POPI   GL2 8148  13.171   1.459   9.873  0.0289  0.3211  0.0920
  515POPI   C1A 8149  12.723   1.232   9.374 -0.4831 -0.3468  0.0294
  515POPI   D2A 8150  12.652   1.032   8.908 -0.1862  0.0455 -0.1608
  515POPI   C3A 8151  12.633   1.128   8.406 -0.1801 -0.3919  0.0758
  515POPI   C4A 8152  12.472   1.169   7.995  0.3967 -0.0161  0.0749
  515POPI   C1B 8153  13.158   1.394   9.376 -0.1974 -0.1410  0.4087
  515POPI   C2B 8154  12.972   1.522   8.988  0.1392  0.1488 -0.1019
  515POPI   C3B 8155  12.953   1.411   8.570  0.0629  0.1514 -0.0013
  515POPI   C4B 8156  12.802   1.518   8.190  0.2059  0.0652  0.2582
  516POPI    C1 8157   6.896  17.191  10.950  0.0610  0.2634  0.0791
  516POPI    C2 8158   6.599  16.929  10.898  0.2416  0.0401  0.1547
  516POPI    C3 8159   6.518  17.301  11.021 -0.0117  0.0051  0.1006
  516POPI   PO4 8160   7.010  17.244  10.670  0.1079 -0.1919 -0.3617
  516POPI   GL1 8161   7.148  17.195  10.290  0.0940 -0.2371  0.4137
  516POPI   GL2 8162   7.217  17.480  10.230  0.0967  0.0210 -0.0676
  516POPI   C1A 8163   7.187  17.091   9.790  0.1335 -0.1080 -0.2934
  516POPI   D2A 8164   7.012  17.247   9.508  0.0321 -0.0753  0.0117
  516POPI   C3A 8165   7.032  17.203   9.042  0.2392  0.0259 -0.0477
  516POPI   C4A 8166   6.847  17.178   8.697  0.0158  0.2345  0.1576
  516POPI   C1B 8167   7.331  17.516   9.840  0.1370  0.1252  0.2040
  516POPI   C2B 8168   7.395  17.563   9.385  0.0943 -0.0188  0.2888
  516POPI   C3B 8169   7.439  17.530   8.954  0.3791  0.0955  0.0851
  516POPI   C4B 8170   7.258  17.532   8.561  0.1003  0.0165  0.2418
  517POPI    C1 8171   9.252  17.308  10.608 -0.0313 -0.0505  0.0216
  517POPI    C2 8172   8.921  17.284  10.832 -0.0057  0.0695  0.0732
  517POPI    C3 8173   9.272  17.159  10.979 -0.0603 -0.2435 -0.0530
  517POPI   PO4 8174   9.153  17.177  10.389  0.0244 -0.0076 -0.0803
  517POPI   GL1 8175   9.000  17.206  10.038 -0.4716  0.0390  0.3923
  517POPI   GL2 8176   8.936  17.020   9.801 -0.1258  0.1205 -0.1503
  517POPI   C1A 8177   9.299  17.512   9.768  0.1436 -0.1247 -0.1706
  517POPI   D2A 8178   9.620  17.612   9.377  0.1559  0.3092  0.3535
  517POPI   C3A 8179   9.710  17.237   9.134  0.0232  0.5001  0.3542
  517POPI   C4A 8180   9.785  16.976   8.799 -0.1870  0.1320  0.0104
  517POPI   C1B 8181   8.831  17.409   9.601  0.0537 -0.2081  0.3006
  517POPI   C2B 8182   8.671  17.652   9.157 -0.3185  0.0549  0.2965
  517POPI   C3B 8183   8.494  17.681   8.749 -0.1223  0.0634  0.1125
  517POPI   C4B 8184   8.602  17.677   8.320  0.0636 -0.0783  0.1733
  518POPI    C1 8185   0.341   6.711   9.967 -0.0057  0.0208  0.0295
  518POPI    C2 8186   0.466   7.091   9.957  0.2103 -0.0496  0.0069
  518POPI    C3 8187   0.434   6.900  10.307 -0.0837  0.0478  0.0361
  518POPI   PO4 8188   0.096   6.668   9.828  0.0641 -0.0053  0.0244
  518POPI   GL1 8189  -0.166   6.656   9.422  0.1670 -0.0670  0.0371
  518POPI   GL2 8190   0.105   6.519   9.336 -0.1528 -0.1419 -0.0225
  518POPI   C1A 8191  -0.449   6.848   9.116 -0.1310  0.0391  0.1691
  518POPI   D2A 8192  -0.746   6.884   8.781 -0.1832  0.0422  0.1237
  518POPI   C3A 8193  -0.569   7.064   8.545 -0.3710 -0.0437 -0.0268
  518POPI   C4A 8194  -0.635   7.297   8.208  0.0163  0.1525  0.2291
  518POPI   C1B 8195   0.239   6.905   8.979 -0.3059 -0.2759  0.1227
  518POPI   C2B 8196   0.167   7.041   8.541 -0.1382  0.1649  0.2727
  518POPI   C3B 8197   0.204   7.030   8.044  0.1773 -0.1683  0.1883
  518POPI   C4B 8198  -0.016   7.089   7.743 -0.0796 -0.4149 -0.2041
  519POPI    C1 8199   9.013  14.686  10.313 -0.0723 -0.1513 -0.0487
  519POPI    C2 8200   9.107  14.843  10.669  0.2714  0.1035 -0.2455
  519POPI    C3 8201   9.177  14.456  10.596 -0.1133 -0.0330  0.0728
  519POPI   PO4 8202   8.981  14.852  10.081 -0.3322 -0.2004  0.5289
  519POPI   GL1 8203   9.008  14.773   9.676  0.1174 -0.1204  0.4310
  519POPI   GL2 8204   9.064  14.508   9.737 -0.2679 -0.1392  0.0931
  519POPI   C1A 8205   9.020  14.847   9.227  0.2419 -0.0830  0.0659
  519POPI   D2A 8206   9.137  14.906   8.719 -0.1551  0.1229 -0.2333
  519POPI   C3A 8207   8.961  14.783   8.328 -0.0326 -0.3129  0.2180
  519POPI   C4A 8208   9.037  14.473   7.989  0.0647  0.1167  0.1246
  519POPI   C1B 8209   9.336  14.459   9.415 -0.0313  0.0830 -0.2080
  519POPI   C2B 8210   9.450  14.545   9.027 -0.3106 -0.0522  0.1119
  519POPI   C3B 8211   9.680  14.746   8.689 -0.1020  0.2605  0.1501
  519POPI   C4B 8212   9.531  15.042   8.447 -0.2217 -0.0050 -0.1926
  520POPI    C1 8213   9.255  15.306  10.322  0.1010 -0.1504  0.0637
  520POPI    C2 8214   9.022  15.631  10.348 -0.0613 -0.2484 -0.1368
  520POPI    C3 8215   9.104  15.416  10.676  0.0479 -0.0061 -0.0029
  520POPI   PO4 8216   9.239  15.347   9.980  0.0111 -0.1436  0.0049
  520POPI   GL1 8217   9.183  15.603   9.658  0.1945  0.3731  0.0054
  520POPI   GL2 8218   9.210  15.848   9.743 -0.4454 -0.0063  0.0087
  520POPI   C1A 8219   9.285  15.638   9.289 -0.0164 -0.0477  0.1576
  520POPI   D2A 8220   9.434  15.622   8.857 -0.1592 -0.2195  0.1037
  520POPI   C3A 8221   9.495  16.013   8.573  0.0496 -0.0184 -0.0108
  520POPI   C4A 8222   9.319  16.319   8.248  0.0541  0.1138 -0.0767
  520POPI   C1B 8223   9.153  16.176   9.643 -0.0471  0.1534 -0.3461
  520POPI   C2B 8224   9.168  16.509   9.298 -0.0295 -0.1402  0.3363
  520POPI   C3B 8225   9.299  16.898   8.956  0.0220 -0.0125  0.0087
  520POPI   C4B 8226   9.358  17.256   8.694  0.1202  0.0171  0.1214
  521POPI    C1 8227   1.243   4.711  10.249  0.0109 -0.0371  0.0030
  521POPI    C2 8228   1.118   4.433  10.509 -0.2579 -0.1352 -0.2251
  521POPI    C3 8229   1.362   4.726  10.630 -0.0806 -0.3910  0.0496
  521POPI   PO4 8230   1.272   4.607  10.057  0.1738  0.3188 -0.0632
  521POPI   GL1 8231   1.207   4.417   9.616 -0.2292 -0.0983  0.1445
  521POPI   GL2 8232   0.968   4.636   9.669 -0.1696 -0.1245  0.0703
  521POPI   C1A 8233   1.434   4.328   9.264  0.0382 -0.1983  0.4216
  521POPI   D2A 8234   1.556   4.487   8.873  0.0662 -0.0283 -0.1608
  521POPI   C3A 8235   1.478   4.768   8.564  0.3489 -0.1650  0.0581
  521POPI   C4A 8236   1.384   4.880   8.162 -0.0870  0.0762  0.1857
  521POPI   C1B 8237   0.991   4.596   9.178 -0.0544  0.2094 -0.0283
  521POPI   C2B 8238   1.020   4.620   8.727 -0.0944  0.0190 -0.0432
  521POPI   C3B 8239   0.958   4.842   8.400  0.0831  0.1823 -0.2688
  521POPI   C4B 8240   0.735   5.154   8.262 -0.1737  0.3985  0.0084
  522POPI    C1 8241   6.850   1.794  10.906 -0.1558  0.0915  0.1692
  522POPI    C2 8242   6.917   1.400  10.889  0.0651  0.1420 -0.2392
  522POPI    C3 8243   7.044   1.611  11.204  0.1042 -0.0839 -0.1022
  522POPI   PO4 8244   6.964   1.947  10.673 -0.2197 -0.2567 -0.3758
  522POPI   GL1 8245   6.955   2.012  10.143 -0.4570  0.2216 -0.2445
  522POPI   GL2 8246   6.791   1.729   9.958 -0.2619 -0.2657 -0.0541
  522POPI   C1A 8247   7.235   1.890   9.842  0.2858 -0.0316 -0.0007
  522POPI   D2A 8248   7.335   1.813   9.365 -0.2760  0.2131  0.0960
  522POPI   C3A 8249   7.449   1.459   9.046 -0.2673 -0.2143  0.1574
  522POPI   C4A 8250   7.538   1.234   8.773 -0.0017  0.1393 -0.2187
  522POPI   C1B 8251   6.786   1.618   9.587  0.1669 -0.0966 -0.0312
  522POPI   C2B 8252   6.917   1.519   9.156  0.1232 -0.0817  0.3075
  522POPI   C3B 8253   7.082   1.457   8.682  0.1013 -0.2437  0.2947
  522POPI   C4B 8254   6.900   1.525   8.271  0.0222  0.1584  0.2178
  523POPI    C1 8255   1.140   2.371  10.260  0.1637  0.0520  0.0333
  523POPI    C2 8256   1.427   2.232  10.018  0.1295  0.0303  0.0050
  523POPI    C3 8257   1.302   2.011  10.327 -0.3360 -0.2644 -0.3790
  523POPI   PO4 8258   1.150   2.646  10.122  0.2519 -0.1519  0.2522
  523POPI   GL1 8259   1.094   2.663   9.704 -0.2333  0.0707  0.3597
  523POPI   GL2 8260   1.050   2.304   9.725  0.1472 -0.1725  0.2724
  523POPI   C1A 8261   1.339   2.680   9.263 -0.1269  0.0813 -0.1129
  523POPI   D2A 8262   1.263   2.598   8.862 -0.2615 -0.0653 -0.1487
  523POPI   C3A 8263   1.362   2.650   8.367 -0.2646  0.1433 -0.0314
  523POPI   C4A 8264   1.610   2.927   8.119 -0.2205  0.0415 -0.0506
  523POPI   C1B 8265   0.756   2.154   9.429  0.0005 -0.4634  0.0742
  523POPI   C2B 8266   0.562   2.025   8.984  0.2692  0.3358  0.0269
  523POPI   C3B 8267   0.309   2.116   8.623 -0.3329  0.1886  0.4043
  523POPI   C4B 8268   0.283   2.367   8.134 -0.1308 -0.0407  0.2768
  524DPPI    C1 8269   5.238  18.032  10.621  0.2074  0.0477  0.1480
  524DPPI    C2 8270   4.880  17.872  10.700  0.1012  0.1995 -0.0154
  524DPPI    C3 8271   5.034  18.151  10.943  0.0531  0.2226 -0.0112
  524DPPI   PO4 8272   5.185  17.988  10.341  0.0255 -0.0733  0.0299
  524DPPI   GL1 8273   5.092  17.921   9.914  0.0090 -0.1855 -0.0569
  524DPPI   GL2 8274   5.495  17.913   9.990  0.2528 -0.1323 -0.1334
  524DPPI   C1A 8275   5.226  17.974   9.487 -0.0811 -0.2122  0.0409
  524DPPI   C2A 8276   5.143  18.079   9.094  0.2001 -0.4066  0.0562
  524DPPI   C3A 8277   5.049  18.208   8.731 -0.0010  0.3059 -0.3322
  524DPPI   C4A 8278   4.843  18.237   8.366 -0.1681  0.3152  0.2269
  524DPPI   C1B 8279   5.708  17.915   9.656  0.0999  0.0051  0.0249
  524DPPI   C2B 8280   5.596  17.793   9.120 -0.0625 -0.1300  0.0352
  524DPPI   C3B 8281   5.434  17.844   8.715 -0.0676 -0.1229 -0.0055
  524DPPI   C4B 8282   5.532  17.696   8.331  0.2635  0.0840  0.0656
  525DPPI    C1 8283  13.445   4.293  10.356 -0.0281 -0.0595 -0.1241
  525DPPI    C2 8284  13.107   4.503  10.396 -0.0400 -0.1008 -0.0047
  525DPPI    C3 8285  13.132   4.133  10.546  0.1279 -0.0198  0.1720
  525DPPI   PO4 8286  13.508   4.278  10.137  0.1368  0.1181 -0.3246
  525DPPI   GL1 8287  13.862   4.418   9.908  0.3422 -0.1672  0.2081
  525DPPI   GL2 8288  13.893   4.731   9.833  0.1231  0.0384 -0.0460
  525DPPI   C1A 8289  13.949   4.018   9.551 -0.1102  0.1914 -0.1106
  525DPPI   C2A 8290  13.823   3.847   9.117  0.0010  0.0769  0.0098
  525DPPI   C3A 8291  13.992   3.903   8.663  0.4541  0.3774 -0.0572
  525DPPI   C4A 8292  14.035   3.995   8.187 -0.1756  0.0289 -0.1810
  525DPPI   C1B 8293  13.717   4.647   9.466  0.0267  0.1461 -0.1496
  525DPPI   C2B 8294  13.489   4.559   9.058  0.2258  0.1365 -0.0494
  525DPPI   C3B 8295  13.338   4.561   8.570 -0.2996 -0.0319  0.2791
  525DPPI   C4B 8296  13.498   4.457   8.155 -0.1846 -0.0905 -0.2808
  526DPPI    C1 8297   5.670  16.040  10.600  0.1339  0.0419  0.0923
  526DPPI    C2 8298   5.387  15.773  10.696  0.1651 -0.0614 -0.0975
  526DPPI    C3 8299   5.661  15.881  10.967  0.1181 -0.1792 -0.0022
  526DPPI   PO4 8300   5.766  15.841  10.312 -0.0572  0.0825  0.2226
  526DPPI   GL1 8301   5.655  15.744   9.889 -0.3471  0.0611 -0.3742
  526DPPI   GL2 8302   5.562  15.428   9.751  0.0866 -0.0217  0.0013
  526DPPI   C1A 8303   5.559  15.786   9.402 -0.0002 -0.1037 -0.0577
  526DPPI   C2A 8304   5.440  15.701   8.983  0.0617  0.0233  0.1294
  526DPPI   C3A 8305   5.398  15.549   8.613 -0.1095 -0.1542  0.0155
  526DPPI   C4A 8306   5.666  15.675   8.303 -0.0667  0.5845 -0.0033
  526DPPI   C1B 8307   5.929  15.488   9.575 -0.1601  0.0892  0.0032
  526DPPI   C2B 8308   5.991  15.628   9.147  0.1771 -0.0788 -0.1009
  526DPPI   C3B 8309   5.880  15.946   8.821  0.1146  0.1882 -0.0428
  526DPPI   C4B 8310   5.791  16.209   8.386  0.0279  0.2052  0.0199
  527DPPI    C1 8311   6.462   1.574  10.713  0.1243  0.0968 -0.3999
  527DPPI    C2 8312   6.116   1.733  10.589 -0.0393  0.1881  0.1458
  527DPPI    C3 8313   6.264   1.831  10.948  0.2190 -0.3556  0.1984
  527DPPI   PO4 8314   6.383   1.372  10.371 -0.0296 -0.3808  0.0384
  527DPPI   GL1 8315   6.101   1.567  10.117  0.3446  0.2433  0.1695
  527DPPI   GL2 8316   6.089   1.857  10.031  0.0435  0.0728  0.1037
  527DPPI   C1A 8317   6.202   1.312   9.720  0.2911 -0.3331 -0.0422
  527DPPI   C2A 8318   6.505   1.234   9.379 -0.1833 -0.2896  0.3258
  527DPPI   C3A 8319   6.587   1.258   8.891 -0.0866 -0.0315 -0.1579
  527DPPI   C4A 8320   6.494   1.327   8.438 -0.2481 -0.1975 -0.3609
  527DPPI   C1B 8321   6.307   1.855   9.729 -0.0695  0.3494 -0.1435
  527DPPI   C2B 8322   6.462   1.818   9.314  0.0555 -0.0185 -0.4051
  527DPPI   C3B 8323   6.471   1.924   9.002 -0.0645 -0.1216 -0.3669
  527DPPI   C4B 8324   6.578   1.814   8.595  0.2529 -0.0410 -0.1863
  528DPPI    C1 8325  11.756  15.601  10.497 -0.0788  0.0080  0.1587
  528DPPI    C2 8326  12.149  15.545  10.455 -0.1348 -0.2224 -0.0840
  528DPPI    C3 8327  12.010  15.766  10.758  0.1793 -0.1454  0.0079
  528DPPI   PO4 8328  11.686  15.332  10.315  0.1520 -0.1011 -0.1297
  528DPPI   GL1 8329  11.749  15.097  10.018 -0.0208  0.1103  0.3594
  528DPPI   GL2 8330  12.122  15.154  10.010 -0.1019  0.1350  0.1063
  528DPPI   C1A 8331  11.457  15.092   9.623  0.1281  0.5310  0.0625
  528DPPI   C2A 8332  11.467  14.890   9.244 -0.1225  0.0063  0.0894
  528DPPI   C3A 8333  11.191  14.895   8.915  0.1254 -0.0224  0.2539
  528DPPI   C4A 8334  11.041  14.671   8.609 -0.0712  0.0861 -0.3082
  528DPPI   C1B 8335  11.970  15.038   9.565  0.0555  0.2832 -0.1186
  528DPPI   C2B 8336  11.883  15.124   9.143  0.2863  0.1083  0.0485
  528DPPI   C3B 8337  11.856  15.248   8.617 -0.1407 -0.0433  0.0518
  528DPPI   C4B 8338  11.719  15.351   8.263 -0.0827 -0.1112  0.1700
  529DPPI    C1 8339   2.758   7.963  10.202  0.1129 -0.1418 -0.1166
  529DPPI    C2 8340   3.119   7.791  10.198  0.3153  0.2752 -0.2506
  529DPPI    C3 8341   2.964   7.923  10.542  0.2947  0.1090 -0.1952
  529DPPI   PO4 8342   2.559   7.815  10.018  0.0625  0.0159  0.1994
  529DPPI   GL1 8343   2.517   7.763   9.621 -0.0864  0.0942  0.2944
  529DPPI   GL2 8344   2.165   7.822   9.718 -0.0365 -0.2528 -0.3261
  529DPPI   C1A 8345   2.479   8.002   9.167  0.2128 -0.0313  0.0993
  529DPPI   C2A 8346   2.297   8.028   8.822  0.1744  0.3091 -0.0583
  529DPPI   C3A 8347   2.055   8.028   8.470 -0.1802  0.2645  0.0068
  529DPPI   C4A 8348   1.834   8.002   8.050  0.1132  0.0370  0.1306
  529DPPI   C1B 8349   2.059   7.688   9.260 -0.0831  0.0741 -0.0970
  529DPPI   C2B 8350   1.963   7.629   8.830 -0.1773 -0.0115 -0.0013
  529DPPI   C3B 8351   1.827   7.484   8.387  0.0216 -0.1218 -0.0643
  529DPPI   C4B 8352   1.998   7.549   7.918 -0.1292 -0.2509 -0.2440
  530DPPI    C1 8353  12.247   2.919  10.205  0.0284 -0.2104  0.0406
  530DPPI    C2 8354  12.617   2.797  10.294  0.1361  0.0050 -0.1043
  530DPPI    C3 8355  12.423   3.044  10.541  0.1096 -0.0641 -0.0556
  530DPPI   PO4 8356  12.126   2.573  10.207  0.2015 -0.2282 -0.0494
  530DPPI   GL1 8357  11.948   2.377   9.838 -0.1859 -0.3436 -0.2944
  530DPPI   GL2 8358  11.844   2.768   9.883  0.0101 -0.3307  0.1626
  530DPPI   C1A 8359  11.828   2.278   9.408  0.0823  0.2731  0.0995
  530DPPI   C2A 8360  11.923   2.326   8.862  0.1875  0.1395 -0.0385
  530DPPI   C3A 8361  11.886   2.566   8.456 -0.1677  0.1089 -0.0622
  530DPPI   C4A 8362  11.932   2.826   8.104 -0.2545  0.0835  0.0433
  530DPPI   C1B 8363  11.984   2.817   9.505 -0.0801 -0.0801  0.1914
  530DPPI   C2B 8364  12.132   2.663   9.112  0.3194  0.0541  0.2738
  530DPPI   C3B 8365  12.293   2.815   8.757 -0.0848 -0.1923 -0.1185
  530DPPI   C4B 8366  12.430   3.083   8.357 -0.1326 -0.2333  0.1134
  531DPPI    C1 8367  14.341   7.580  10.199 -0.1584 -0.0145 -0.2585
  531DPPI    C2 8368  13.952   7.633  10.270 -0.1652 -0.2700 -0.0924
  531DPPI    C3 8369  14.100   7.263  10.236  0.1577 -0.1953  0.4018
  531DPPI   PO4 8370  14.339   7.779   9.919 -0.1455 -0.1544  0.3039
  531DPPI   GL1 8371  14.497   7.825   9.540  0.1988 -0.5166  0.1723
  531DPPI   GL2 8372  14.795   7.885   9.507  0.0967 -0.1581 -0.0040
  531DPPI   C1A 8373  14.482   7.847   9.122  0.1412  0.0987 -0.1012
  531DPPI   C2A 8374  14.583   7.600   8.875 -0.0065 -0.1651  0.0037
  531DPPI   C3A 8375  14.677   7.641   8.403 -0.1489 -0.1646  0.1748
  531DPPI   C4A 8376  14.704   7.319   8.147  0.0788 -0.3189  0.0138
  531DPPI   C1B 8377  14.971   8.130   9.085 -0.1251  0.2396  0.1130
  531DPPI   C2B 8378  14.904   8.110   8.663  0.0274  0.2739  0.0368
  531DPPI   C3B 8379  15.171   8.046   8.357  0.2916 -0.3333  0.3235
  531DPPI   C4B 8380  15.419   8.011   7.922 -0.1143  0.1049 -0.1888
  532DPPI    C1 8381   3.284  13.452   9.900  0.0214  0.1691 -0.1828
  532DPPI    C2 8382   3.283  13.220  10.226 -0.0056  0.1775 -0.1769
  532DPPI    C3 8383   3.189  13.064   9.869  0.3715  0.0839 -0.2402
  532DPPI   PO4 8384   3.409  13.683  10.044 -0.1577  0.1010  0.0569
  532DPPI   GL1 8385   3.796  13.839   9.854 -0.0533 -0.0112  0.0050
  532DPPI   GL2 8386   3.708  13.593   9.614 -0.1068  0.0243  0.0677
  532DPPI   C1A 8387   3.800  14.102   9.450 -0.1799  0.1668 -0.0722
  532DPPI   C2A 8388   3.553  14.259   9.154 -0.3233 -0.1291  0.0629
  532DPPI   C3A 8389   3.695  14.412   8.704  0.0455 -0.1336  0.2584
  532DPPI   C4A 8390   3.777  14.480   8.267 -0.2621 -0.0215 -0.0819
  532DPPI   C1B 8391   3.596  13.707   9.242  0.0761  0.2469  0.2967
  532DPPI   C2B 8392   3.448  13.544   8.924  0.1096  0.1082 -0.0346
  532DPPI   C3B 8393   3.395  13.531   8.488 -0.2661  0.1172 -0.0801
  532DPPI   C4B 8394   3.809  13.434   8.282 -0.3917  0.2287  0.3146
  533DPPI    C1 8395  10.829  10.184  10.473 -0.0609 -0.0135 -0.0829
  533DPPI    C2 8396  10.633   9.953  10.212 -0.0553 -0.1593  0.0404
  533DPPI    C3 8397  10.697   9.823  10.585  0.2430 -0.0979  0.0132
  533DPPI   PO4 8398  10.958  10.327  10.258 -0.1368  0.3145  0.1203
  533DPPI   GL1 8399  11.094  10.250   9.942  0.3677  0.1318 -0.0675
  533DPPI   GL2 8400  11.288  10.471   9.876 -0.1975  0.0432  0.0868
  533DPPI   C1A 8401  10.863  10.237   9.534  0.0279  0.2588 -0.0486
  533DPPI   C2A 8402  10.630  10.513   9.183  0.2557 -0.1018  0.1656
  533DPPI   C3A 8403  10.375  10.830   9.171 -0.2750  0.1772 -0.1400
  533DPPI   C4A 8404  10.418  11.168   9.234 -0.0989  0.0398 -0.1368
  533DPPI   C1B 8405  11.558  10.624   9.545  0.1440  0.0656 -0.0745
  533DPPI   C2B 8406  11.617  10.668   9.100 -0.0559 -0.2241  0.0639
  533DPPI   C3B 8407  11.635  10.691   8.723 -0.0181 -0.1012 -0.0317
  533DPPI   C4B 8408  11.788  10.501   8.357 -0.1751  0.0499 -0.0360
  534DPPI    C1 8409  17.282  17.087  10.504 -0.1367  0.1714 -0.0723
  534DPPI    C2 8410  16.906  17.030  10.630 -0.0940  0.2087  0.0749
  534DPPI    C3 8411  17.202  17.072  10.896  0.1007 -0.3706 -0.0355
  534DPPI   PO4 8412  17.253  17.221  10.295 -0.0376  0.1119 -0.1600
  534DPPI   GL1 8413  17.131  17.043   9.857 -0.2904  0.0720  0.2038
  534DPPI   GL2 8414  17.436  16.964   9.902 -0.3235  0.3019  0.0999
  534DPPI   C1A 8415  17.078  16.858   9.397  0.1012 -0.2563  0.1816
  534DPPI   C2A 8416  17.191  16.590   9.060  0.1688 -0.1577  0.1271
  534DPPI   C3A 8417  16.966  16.721   8.576 -0.0370  0.1403 -0.1699
  534DPPI   C4A 8418  16.951  17.090   8.442 -0.2523 -0.1600  0.1058
  534DPPI   C1B 8419  17.600  16.786   9.552 -0.0274 -0.0135  0.0390
  534DPPI   C2B 8420  17.740  16.755   9.049 -0.0977 -0.2915  0.2766
  534DPPI   C3B 8421  17.849  16.707   8.604 -0.1218 -0.0815  0.3822
  534DPPI   C4B 8422  17.783  16.959   8.288 -0.1514 -0.3117 -0.2930
  535DPPI    C1 8423   8.310   0.758  10.531 -0.1834 -0.2314 -0.2902
  535DPPI    C2 8424   8.463   0.565  10.846 -0.0097  0.0409 -0.2042
  535DPPI    C3 8425   8.197   0.858  10.901  0.0284  0.0960 -0.3099
  535DPPI   PO4 8426   8.417   0.620  10.351  0.0592 -0.1075 -0.1134
  535DPPI   GL1 8427   8.408   0.413  10.068 -0.3096 -0.0409 -0.2251
  535DPPI   GL2 8428   8.078   0.360  10.066  0.1515  0.1708 -0.0516
  535DPPI   C1A 8429   8.212   0.618   9.658  0.0645 -0.1120 -0.0135
  535DPPI   C2A 8430   8.116   0.707   9.296 -0.0124 -0.1305 -0.0492
  535DPPI   C3A 8431   8.114   0.609   8.875  0.0831 -0.0686  0.1763
  535DPPI   C4A 8432   7.798   0.577   8.507 -0.2530  0.1073  0.0943
  535DPPI   C1B 8433   7.610   0.464   9.831 -0.2907  0.1838 -0.2829
  535DPPI   C2B 8434   7.379   0.129   9.570  0.0115 -0.1183 -0.0024
  535DPPI   C3B 8435   7.239   0.037   9.213  0.0720  0.0400 -0.2154
  535DPPI   C4B 8436   6.985  -0.124   8.754 -0.2011 -0.0624 -0.2574
  536DPPI    C1 8437   2.633  12.510  10.483 -0.3009  0.3565 -0.0057
  536DPPI    C2 8438   2.362  12.540  10.776 -0.0516  0.0042  0.2698
  536DPPI    C3 8439   2.752  12.569  10.861  0.0142  0.1707 -0.0728
  536DPPI   PO4 8440   2.431  12.381  10.313  0.0431  0.3036 -0.0836
  536DPPI   GL1 8441   2.406  12.385   9.839 -0.0179  0.3358  0.0256
  536DPPI   GL2 8442   2.065  12.267   9.846  0.1312  0.0436  0.2825
  536DPPI   C1A 8443   2.242  12.742   9.638  0.0064 -0.0634  0.1950
  536DPPI   C2A 8444   2.218  12.818   9.192  0.0806  0.2656  0.3568
  536DPPI   C3A 8445   2.223  13.020   8.738 -0.2826 -0.0021 -0.2657
  536DPPI   C4A 8446   2.585  13.261   8.573  0.0292  0.1867 -0.4617
  536DPPI   C1B 8447   1.978  12.362   9.375 -0.1993  0.0875  0.1188
  536DPPI   C2B 8448   1.874  12.346   8.987 -0.2572  0.1773 -0.1311
  536DPPI   C3B 8449   1.880  12.499   8.565 -0.0418 -0.0617  0.0622
  536DPPI   C4B 8450   2.055  12.799   8.238 -0.2313  0.0000 -0.1762
  537DPPI    C1 8451   8.861   7.064  10.307 -0.0690 -0.1109  0.0946
  537DPPI    C2 8452   8.581   6.783  10.360 -0.2818  0.0984  0.0927
  537DPPI    C3 8453   8.649   7.054  10.646  0.0263 -0.0425  0.1568
  537DPPI   PO4 8454   8.807   7.139  10.054  0.0795 -0.0470 -0.2387
  537DPPI   GL1 8455   8.755   6.990   9.656  0.0253 -0.0287  0.1189
  537DPPI   GL2 8456   8.589   7.140   9.464  0.0844 -0.3685  0.2561
  537DPPI   C1A 8457   8.813   6.772   9.124 -0.1035  0.0173 -0.2314
  537DPPI   C2A 8458   8.729   6.680   8.716 -0.0568  0.0609  0.0349
  537DPPI   C3A 8459   8.711   6.820   8.256 -0.1216 -0.0085 -0.1078
  537DPPI   C4A 8460   8.782   7.305   8.115  0.1357  0.0276  0.0837
  537DPPI   C1B 8461   8.636   7.225   8.996 -0.0531  0.3996 -0.0843
  537DPPI   C2B 8462   8.690   7.419   8.601 -0.1759 -0.1127 -0.1185
  537DPPI   C3B 8463   8.702   7.845   8.442 -0.2008  0.0274  0.5206
  537DPPI   C4B 8464   8.887   7.810   8.048  0.1405  0.0527  0.1362
  538DPPI    C1 8465  18.357  16.355  10.752 -0.1422 -0.0970  0.1395
  538DPPI    C2 8466  18.743  16.431  10.827 -0.0946 -0.1125 -0.0830
  538DPPI    C3 8467  18.512  16.269  11.111  0.0727 -0.1430  0.0373
  538DPPI   PO4 8468  18.456  16.171  10.428 -0.2521  0.1242  0.0260
  538DPPI   GL1 8469  18.540  16.436  10.081  0.1576 -0.1816  0.1562
  538DPPI   GL2 8470  18.904  16.536   9.961  0.1680 -0.2085 -0.0403
  538DPPI   C1A 8471  18.571  16.375   9.637  0.2354  0.3600  0.1935
  538DPPI   C2A 8472  18.653  16.402   9.136  0.1678  0.0982  0.1205
  538DPPI   C3A 8473  18.672  16.235   8.660 -0.0818  0.0022  0.0628
  538DPPI   C4A 8474  18.662  16.154   8.232 -0.1952 -0.1925 -0.1195
  538DPPI   C1B 8475  19.186  16.530   9.642  0.2029  0.0172 -0.0982
  538DPPI   C2B 8476  19.183  16.295   9.362  0.1919 -0.0914 -0.1742
  538DPPI   C3B 8477  19.154  16.211   8.903  0.1841 -0.1750 -0.3327
  538DPPI   C4B 8478  19.149  16.216   8.503  0.0638  0.2599  0.1380
  539DPPI    C1 8479   5.620   6.606   9.941  0.4074  0.3091 -0.1636
  539DPPI    C2 8480   5.681   6.811  10.280  0.0240  0.0161  0.0904
  539DPPI    C3 8481   5.390   6.922  10.028  0.1571  0.0936 -0.0308
  539DPPI   PO4 8482   5.860   6.601   9.879 -0.0339 -0.0466 -0.1670
  539DPPI   GL1 8483   5.903   6.518   9.437 -0.0377 -0.0098 -0.0356
  539DPPI   GL2 8484   6.011   6.777   9.449 -0.1441 -0.0767  0.0088
  539DPPI   C1A 8485   5.691   6.574   9.005 -0.1376 -0.1352 -0.2638
  539DPPI   C2A 8486   5.448   6.708   8.671  0.0485 -0.0698  0.2852
  539DPPI   C3A 8487   5.339   6.733   8.244 -0.1715  0.5026 -0.0460
  539DPPI   C4A 8488   5.531   6.677   7.864  0.1963  0.0453  0.1290
  539DPPI   C1B 8489   5.892   7.024   9.066  0.4444  0.1300 -0.0208
  539DPPI   C2B 8490   5.898   7.176   8.618 -0.1170  0.3601 -0.0818
  539DPPI   C3B 8491   5.750   7.169   8.194  0.0709 -0.0522 -0.1101
  539DPPI   C4B 8492   5.738   7.140   7.754 -0.0495  0.0954 -0.0116
  540DPPI    C1 8493  16.809  15.293  10.815 -0.3319  0.1019 -0.1840
  540DPPI    C2 8494  16.525  15.543  10.943  0.0434  0.4305  0.0283
  540DPPI    C3 8495  16.901  15.673  10.898  0.2054 -0.0471 -0.0542
  540DPPI   PO4 8496  16.797  15.180  10.488  0.3674 -0.1757 -0.1148
  540DPPI   GL1 8497  16.951  15.273  10.083 -0.2209 -0.1622  0.2521
  540DPPI   GL2 8498  16.813  15.044   9.903  0.1377 -0.4663  0.1062
  540DPPI   C1A 8499  17.080  15.327   9.620 -0.3177  0.1059 -0.2068
  540DPPI   C2A 8500  17.263  15.142   9.248  0.2840 -0.4146  0.0576
  540DPPI   C3A 8501  17.544  15.017   9.038  0.1572 -0.1091 -0.1338
  540DPPI   C4A 8502  17.666  14.636   8.905  0.0968 -0.0975  0.0874
  540DPPI   C1B 8503  16.768  14.961   9.458 -0.1014 -0.1549  0.0047
  540DPPI   C2B 8504  16.839  14.940   9.018 -0.0396  0.0381 -0.1452
  540DPPI   C3B 8505  17.182  14.897   8.707  0.1835  0.2403 -0.0480
  540DPPI   C4B 8506  17.437  14.678   8.303 -0.0512 -0.1424 -0.0070
  541DPPI    C1 8507  18.440  14.573  10.286  0.3787 -0.1351  0.1043
  541DPPI    C2 8508  18.487  14.903  10.507  0.0348 -0.0367  0.0373
  541DPPI    C3 8509  18.669  14.872  10.152  0.3167 -0.0530  0.1802
  541DPPI   PO4 8510  18.190  14.571  10.195 -0.3546  0.1059 -0.4017
  541DPPI   GL1 8511  18.192  14.590   9.731 -0.2877  0.0209  0.1472
  541DPPI   GL2 8512  18.541  14.508   9.739 -0.0214  0.0274 -0.0700
  541DPPI   C1A 8513  18.099  14.726   9.298  0.1203 -0.1292  0.2597
  541DPPI   C2A 8514  18.074  14.959   8.902 -0.0658  0.1713 -0.1085
  541DPPI   C3A 8515  17.830  15.018   8.598  0.0117 -0.1382 -0.2636
  541DPPI   C4A 8516  17.463  15.206   8.488 -0.0106 -0.2953  0.1623
  541DPPI   C1B 8517  18.698  14.477   9.382  0.2808 -0.0361  0.3638
  541DPPI   C2B 8518  18.757  14.502   9.024 -0.1121  0.0620 -0.0684
  541DPPI   C3B 8519  18.674  14.418   8.657 -0.1493  0.0317  0.3868
  541DPPI   C4B 8520  18.430  14.143   8.566 -0.4641  0.0248 -0.0974
  542DPPI    C1 8521   7.695  16.326  10.395 -0.1467  0.1654 -0.2266
  542DPPI    C2 8522   7.518  16.062  10.638 -0.0908 -0.0045 -0.3684
  542DPPI    C3 8523   7.620  16.423  10.776 -0.2003 -0.0431 -0.1826
  542DPPI   PO4 8524   7.915  16.326  10.301 -0.1882 -0.2087 -0.2236
  542DPPI   GL1 8525   8.165  16.483   9.994  0.2479  0.0390  0.0844
  542DPPI   GL2 8526   8.021  16.834   9.965  0.0702  0.0394 -0.0009
  542DPPI   C1A 8527   8.027  16.447   9.579 -0.0336  0.1588 -0.0170
  542DPPI   C2A 8528   8.119  16.432   9.126  0.3464  0.0087  0.1927
  542DPPI   C3A 8529   8.371  16.195   8.909  0.0470  0.0596  0.0687
  542DPPI   C4A 8530   8.576  15.967   8.681  0.0354 -0.2088  0.2912
  542DPPI   C1B 8531   8.055  16.986   9.533  0.2292  0.0403  0.0583
  542DPPI   C2B 8532   8.056  16.919   9.166 -0.1417 -0.1776 -0.0668
  542DPPI   C3B 8533   7.964  16.989   8.699  0.0402  0.0265 -0.4879
  542DPPI   C4B 8534   7.763  17.312   8.377 -0.1021 -0.0130  0.2486
  543DPPI    C1 8535   7.488  14.041  10.695 -0.1185  0.2684 -0.1237
  543DPPI    C2 8536   7.806  14.116  10.464  0.0442 -0.1794 -0.0548
  543DPPI    C3 8537   7.760  14.311  10.811  0.1568  0.0037 -0.1414
  543DPPI   PO4 8538   7.276  13.988  10.493 -0.1271  0.0293  0.0918
  543DPPI   GL1 8539   7.162  13.836  10.104  0.1241  0.3442 -0.1157
  543DPPI   GL2 8540   7.411  14.066  10.003  0.1252 -0.0459 -0.0525
  543DPPI   C1A 8541   7.037  14.051   9.714 -0.1821 -0.1533 -0.1031
  543DPPI   C2A 8542   7.047  13.939   9.336 -0.2582 -0.0386 -0.0484
  543DPPI   C3A 8543   6.831  13.970   8.948 -0.1105 -0.1603  0.0399
  543DPPI   C4A 8544   6.849  14.358   8.818 -0.1912  0.2475  0.0757
  543DPPI   C1B 8545   7.498  14.251   9.597 -0.1035 -0.1312 -0.1329
  543DPPI   C2B 8546   7.810  14.147   9.331 -0.1070  0.1899  0.1602
  543DPPI   C3B 8547   7.852  14.257   8.939 -0.0044 -0.2660 -0.2192
  543DPPI   C4B 8548   7.739  14.457   8.594  0.0941  0.1004 -0.0251
  544DPPI    C1 8549  15.781   9.560  10.482 -0.2015 -0.0447 -0.3872
  544DPPI    C2 8550  15.655   9.527  10.860  0.2929  0.1088 -0.2011
  544DPPI    C3 8551  15.585   9.232  10.600 -0.0633  0.0077  0.0022
  544DPPI   PO4 8552  15.751   9.755  10.385 -0.2945  0.4792  0.0604
  544DPPI   GL1 8553  15.642   9.812   9.946 -0.0899 -0.2228 -0.1330
  544DPPI   GL2 8554  15.314   9.746   9.751  0.1996 -0.0294 -0.1348
  544DPPI   C1A 8555  15.795   9.651   9.539  0.0149 -0.0852 -0.2319
  544DPPI   C2A 8556  15.831   9.638   9.064 -0.0421 -0.0679 -0.0237
  544DPPI   C3A 8557  15.767   9.705   8.678 -0.2301  0.1915  0.1774
  544DPPI   C4A 8558  15.870   9.826   8.344  0.1863  0.5014 -0.0246
  544DPPI   C1B 8559  15.345  10.040   9.341 -0.1203  0.1678 -0.1376
  544DPPI   C2B 8560  15.486  10.055   8.932 -0.1391  0.1961 -0.0248
  544DPPI   C3B 8561  15.397   9.993   8.531 -0.1960  0.1777 -0.1411
  544DPPI   C4B 8562  15.361   9.788   8.164  0.1031 -0.2042 -0.0748
  545DPPI    C1 8563  17.943  13.442  10.540 -0.1782  0.2512 -0.1747
  545DPPI    C2 8564  17.902  13.625  10.893 -0.2247  0.0808 -0.0910
  545DPPI    C3 8565  17.595  13.422  10.737 -0.0973 -0.1380 -0.0625
  545DPPI   PO4 8566  18.076  13.528  10.422 -0.2099 -0.0527  0.2963
  545DPPI   GL1 8567  18.135  13.516   9.991 -0.1467 -0.1473  0.2016
  545DPPI   GL2 8568  17.940  13.151  10.059 -0.0116 -0.0048 -0.0703
  545DPPI   C1A 8569  18.121  13.429   9.468 -0.0816 -0.2096 -0.1044
  545DPPI   C2A 8570  18.221  13.285   9.062 -0.1229 -0.4631 -0.1506
  545DPPI   C3A 8571  18.558  13.222   8.932  0.0687 -0.1372 -0.2740
  545DPPI   C4A 8572  18.973  13.079   8.878 -0.0055 -0.1716 -0.1206
  545DPPI   C1B 8573  17.824  13.026   9.676  0.2064 -0.2721  0.0938
  545DPPI   C2B 8574  17.678  13.242   9.215 -0.2884  0.0479 -0.2238
  545DPPI   C3B 8575  17.747  13.136   8.746 -0.0052 -0.1785  0.0561
  545DPPI   C4B 8576  18.029  13.389   8.414 -0.3360 -0.2098  0.1688
  546DPPI    C1 8577  15.584  11.575  10.879  0.2239 -0.1471  0.1724
  546DPPI    C2 8578  15.274  11.802  10.770  0.3161 -0.1643 -0.1353
  546DPPI    C3 8579  15.556  11.951  11.012  0.1243 -0.1149  0.0611
  546DPPI   PO4 8580  15.669  11.483  10.691 -0.1141 -0.1418 -0.0078
  546DPPI   GL1 8581  15.775  11.391  10.204 -0.2431 -0.1136  0.1411
  546DPPI   GL2 8582  15.567  11.604  10.191  0.2046 -0.2505 -0.2350
  546DPPI   C1A 8583  16.152  11.442   9.917 -0.1006 -0.1825 -0.0416
  546DPPI   C2A 8584  16.488  11.567   9.523 -0.1104  0.1850  0.1946
  546DPPI   C3A 8585  16.519  11.458   9.047 -0.1757 -0.1342  0.1891
  546DPPI   C4A 8586  16.497  11.660   8.652 -0.1401 -0.1339 -0.1836
  546DPPI   C1B 8587  15.734  11.886  10.003  0.2325  0.2395 -0.2069
  546DPPI   C2B 8588  15.824  12.172   9.702  0.1535  0.1182 -0.0022
  546DPPI   C3B 8589  15.784  12.342   9.241 -0.2074  0.0828 -0.2228
  546DPPI   C4B 8590  15.702  12.253   8.738 -0.3282 -0.1335  0.2599
  547DPPI    C1 8591   3.870  14.995  10.487  0.2133 -0.2959 -0.1650
  547DPPI    C2 8592   3.683  14.693  10.305 -0.3226 -0.0391 -0.0615
  547DPPI    C3 8593   3.515  14.870  10.622  0.1692  0.1153  0.1220
  547DPPI   PO4 8594   3.944  15.205  10.288 -0.2753  0.1096 -0.3762
  547DPPI   GL1 8595   3.942  15.537   9.932  0.2081  0.1233  0.2213
  547DPPI   GL2 8596   3.846  15.779   9.763 -0.0573  0.1529  0.0204
  547DPPI   C1A 8597   4.011  15.388   9.555  0.0380 -0.0694  0.2424
  547DPPI   C2A 8598   4.099  15.048   9.528  0.0033 -0.0216 -0.1370
  547DPPI   C3A 8599   3.954  14.585   9.396 -0.2120  0.1582 -0.0761
  547DPPI   C4A 8600   4.106  14.384   9.007  0.3970  0.1933 -0.0499
  547DPPI   C1B 8601   3.705  15.707   9.329 -0.4080 -0.3791  0.1526
  547DPPI   C2B 8602   3.821  15.409   9.056  0.2322  0.4595 -0.0989
  547DPPI   C3B 8603   4.050  15.033   8.971 -0.3991 -0.1100  0.0727
  547DPPI   C4B 8604   4.103  14.798   8.482  0.1317 -0.0161  0.1419
  548DPPI    C1 8605   4.280   7.872  10.199  0.0851  0.2677 -0.0616
  548DPPI    C2 8606   3.968   8.002  10.413  0.0106  0.0513 -0.0361
  548DPPI    C3 8607   4.327   7.967  10.585  0.0544  0.3150 -0.0696
  548DPPI   PO4 8608   4.121   7.744  10.010  0.1472 -0.0351  0.4267
  548DPPI   GL1 8609   4.093   7.465   9.655  0.1644  0.4101 -0.2292
  548DPPI   GL2 8610   4.393   7.238   9.521 -0.0810 -0.4315 -0.4002
  548DPPI   C1A 8611   4.002   7.390   9.208 -0.0919 -0.2638 -0.0123
  548DPPI   C2A 8612   3.908   7.511   8.848  0.1929  0.0417  0.1917
  548DPPI   C3A 8613   3.769   7.434   8.471 -0.0910 -0.0922  0.0081
  548DPPI   C4A 8614   3.552   7.442   8.097  0.3250 -0.0402  0.2052
  548DPPI   C1B 8615   4.548   7.365   9.056  0.0211 -0.0885  0.3642
  548DPPI   C2B 8616   4.556   7.408   8.623 -0.0863 -0.2246 -0.2753
  548DPPI   C3B 8617   4.441   7.711   8.298  0.1378 -0.0833  0.1032
  548DPPI   C4B 8618   4.423   7.817   7.932 -0.0172 -0.0197  0.0807
  549DPPI    C1 8619   4.167  18.371  10.603 -0.2464 -0.1454  0.1348
  549DPPI    C2 8620   4.312  18.548  10.275 -0.4029 -0.0248  0.1291
  549DPPI    C3 8621   4.368  18.716  10.634 -0.4505 -0.0253  0.1368
  549DPPI   PO4 8622   4.242  18.140  10.568  0.0958  0.0330 -0.0001
  549DPPI   GL1 8623   4.342  17.966  10.106  0.0268  0.0901 -0.0745
  549DPPI   GL2 8624   4.672  17.749  10.160 -0.2345  0.0573  0.0078
  549DPPI   C1A 8625   4.203  18.064   9.720 -0.2623 -0.0843  0.2200
  549DPPI   C2A 8626   4.391  18.305   9.509  0.1269  0.0538 -0.0151
  549DPPI   C3A 8627   4.569  18.773   9.432  0.2834 -0.1647  0.0648
  549DPPI   C4A 8628   4.640  18.925   8.983  0.0245  0.0936 -0.0082
  549DPPI   C1B 8629   4.647  17.922   9.751 -0.3059 -0.0625 -0.1688
  549DPPI   C2B 8630   4.698  17.891   9.342 -0.2870 -0.1258 -0.0924
  549DPPI   C3B 8631   4.586  17.997   8.907  0.0082  0.1545  0.2644
  549DPPI   C4B 8632   4.388  18.091   8.590  0.0690 -0.0246  0.0418
  550DPPI    C1 8633  14.066  13.567  10.317 -0.2121  0.0914 -0.0390
  550DPPI    C2 8634  14.068  13.273  10.588  0.2038  0.0938 -0.0325
  550DPPI    C3 8635  14.072  13.655  10.707  0.0339  0.0999 -0.0432
  550DPPI   PO4 8636  13.908  13.499  10.157  0.2333  0.0472  0.0293
  550DPPI   GL1 8637  13.674  13.527   9.757  0.2589 -0.0426 -0.0032
  550DPPI   GL2 8638  13.340  13.493   9.640  0.1907  0.0699 -0.0795
  550DPPI   C1A 8639  13.664  13.377   9.299  0.1101  0.1407  0.3429
  550DPPI   C2A 8640  13.767  13.234   8.873  0.1681  0.3072 -0.0073
  550DPPI   C3A 8641  13.537  13.034   8.391  0.2150  0.0593  0.0911
  550DPPI   C4A 8642  13.489  12.735   8.014 -0.0899 -0.3011  0.2198
  550DPPI   C1B 8643  13.082  13.310   9.319 -0.0444 -0.0909  0.0021
  550DPPI   C2B 8644  12.836  13.324   8.995  0.3374  0.3320 -0.0162
  550DPPI   C3B 8645  12.405  13.211   8.958 -0.0029 -0.1733  0.1289
  550DPPI   C4B 8646  12.187  12.982   9.243  0.0417  0.0455 -0.1677
  551DPPI    C1 8647  17.734  15.381  10.575 -0.2621  0.2759  0.1939
  551DPPI    C2 8648  17.932  15.669  10.771 -0.1124  0.1372  0.2493
  551DPPI    C3 8649  17.861  15.318  10.950  0.1120 -0.0268  0.0228
  551DPPI   PO4 8650  17.844  15.386  10.304 -0.1902  0.0613 -0.0095
  551DPPI   GL1 8651  17.896  15.643   9.975  0.4198 -0.0528  0.1365
  551DPPI   GL2 8652  17.911  15.388   9.764  0.1194  0.0481  0.0285
  551DPPI   C1A 8653  17.691  15.798   9.559 -0.0224  0.2243 -0.2623
  551DPPI   C2A 8654  17.428  15.620   9.244  0.0774  0.1274 -0.3714
  551DPPI   C3A 8655  17.282  15.439   8.878 -0.0369  0.0720 -0.1335
  551DPPI   C4A 8656  17.053  15.611   8.531 -0.0850  0.0794 -0.2902
  551DPPI   C1B 8657  17.882  15.332   9.311  0.2090 -0.0912 -0.0206
  551DPPI   C2B 8658  17.785  15.429   8.910  0.2700 -0.2079  0.2202
  551DPPI   C3B 8659  17.901  15.663   8.604 -0.2232  0.2655  0.1190
  551DPPI   C4B 8660  18.161  15.740   8.196 -0.0537  0.1390 -0.1494
  552DPPI    C1 8661  15.992  13.875  10.798  0.3572 -0.0766  0.0706
  552DPPI    C2 8662  15.998  13.647  11.127  0.2188 -0.0003  0.1267
  552DPPI    C3 8663  16.102  14.033  11.148 -0.2142  0.1199  0.1728
  552DPPI   PO4 8664  16.107  13.683  10.577  0.2040  0.0654 -0.0318
  552DPPI   GL1 8665  16.197  13.725  10.108  0.4467  0.1400  0.0171
  552DPPI   GL2 8666  16.503  13.910  10.002  0.0080 -0.3827  0.1541
  552DPPI   C1A 8667  15.956  13.564   9.680  0.1148  0.0777 -0.0096
  552DPPI   C2A 8668  15.770  13.336   9.304  0.0924  0.0068 -0.3757
  552DPPI   C3A 8669  15.662  13.200   9.025 -0.0596  0.2673  0.3298
  552DPPI   C4A 8670  15.680  12.974   8.585  0.1457  0.0056 -0.2537
  552DPPI   C1B 8671  16.387  13.871   9.596  0.4624  0.2995  0.1613
  552DPPI   C2B 8672  16.339  13.502   9.358 -0.0589  0.0905  0.1893
  552DPPI   C3B 8673  16.138  13.518   8.954 -0.0963  0.0413 -0.3280
  552DPPI   C4B 8674  16.181  13.305   8.715  0.2625  0.2772  0.1736
  553DPPI    C1 8675   1.540   5.170  10.507  0.0459  0.0251  0.0904
  553DPPI    C2 8676   1.639   5.557  10.485  0.0896  0.0186  0.1723
  553DPPI    C3 8677   1.351   5.438  10.736  0.2524 -0.0358  0.3361
  553DPPI   PO4 8678   1.484   5.157  10.138  0.1186 -0.1311 -0.0419
  553DPPI   GL1 8679   1.588   5.444   9.824 -0.0316 -0.0776  0.0266
  553DPPI   GL2 8680   1.269   5.687   9.631  0.0942  0.0765 -0.0591
  553DPPI   C1A 8681   1.677   5.349   9.364 -0.0692  0.3517 -0.0180
  553DPPI   C2A 8682   1.660   5.287   8.921  0.3405  0.1418  0.2286
  553DPPI   C3A 8683   1.744   5.240   8.546 -0.2884  0.1066 -0.0992
  553DPPI   C4A 8684   1.731   5.321   8.161 -0.0934  0.2372  0.1822
  553DPPI   C1B 8685   1.376   5.742   9.271  0.0601 -0.2166 -0.1124
  553DPPI   C2B 8686   1.345   5.659   8.816 -0.2776  0.1495 -0.0555
  553DPPI   C3B 8687   1.344   5.750   8.442  0.2787  0.2357 -0.0509
  553DPPI   C4B 8688   0.981   5.858   8.140  0.1142  0.3914 -0.2634
  554PYPI    C1 8689  17.260   7.108  10.348 -0.0633  0.0519 -0.1274
  554PYPI    C2 8690  17.132   6.729  10.370  0.0655  0.0094 -0.0976
  554PYPI    C3 8691  16.901   7.027  10.503 -0.0472 -0.0561 -0.1454
  554PYPI   PO4 8692  17.317   7.353  10.077  0.0482 -0.0394 -0.1921
  554PYPI   GL1 8693  17.384   7.411   9.648 -0.1410 -0.1289 -0.2655
  554PYPI   GL2 8694  17.558   7.087   9.610  0.1380 -0.0923 -0.1657
  554PYPI   C1A 8695  17.289   7.614   9.365  0.3705 -0.0096 -0.0374
  554PYPI   C2A 8696  17.430   7.791   8.896 -0.4277  0.1344 -0.2588
  554PYPI   D3A 8697  17.631   7.865   8.411 -0.0954  0.1591  0.1751
  554PYPI   C4A 8698  17.794   8.201   8.333 -0.0702 -0.0222  0.3804
  554PYPI   C1B 8699  17.738   6.796   9.392 -0.1135 -0.2817 -0.2122
  554PYPI   C2B 8700  17.690   6.549   9.190  0.0458  0.0730 -0.0727
  554PYPI   C3B 8701  17.667   6.480   8.869  0.0285  0.0897  0.1164
  554PYPI   C4B 8702  17.751   6.481   8.414  0.2352  0.1826  0.0322
  555PYPI    C1 8703  10.517  11.653  10.144  0.1949  0.5713 -0.0924
  555PYPI    C2 8704  10.285  11.842  10.409 -0.2501  0.1587 -0.1731
  555PYPI    C3 8705  10.475  11.505  10.513 -0.0331  0.2585 -0.2390
  555PYPI   PO4 8706  10.664  11.816  10.070  0.1586  0.0793 -0.1183
  555PYPI   GL1 8707  10.897  12.057   9.743 -0.0813 -0.0020  0.0157
  555PYPI   GL2 8708  10.877  11.815   9.595  0.1551 -0.1013  0.1526
  555PYPI   C1A 8709  10.892  12.221   9.291 -0.2730 -0.1229 -0.3178
  555PYPI   C2A 8710  10.792  12.406   8.892 -0.2262 -0.0573  0.2615
  555PYPI   D3A 8711  10.652  12.667   8.527  0.4151 -0.3033  0.1055
  555PYPI   C4A 8712  10.625  12.591   8.083 -0.0275  0.0845  0.0072
  555PYPI   C1B 8713  10.814  11.659   9.227 -0.3143 -0.1545  0.2011
  555PYPI   C2B 8714  10.782  11.455   8.873  0.0804 -0.1035 -0.1210
  555PYPI   C3B 8715  10.366  11.202   8.701 -0.1857  0.1885  0.6570
  555PYPI   C4B 8716  10.378  11.155   8.308 -0.0661 -0.1407 -0.2765
  556PYPI    C1 8717   6.260   5.583   9.927 -0.0505 -0.0054 -0.0167
  556PYPI    C2 8718   6.502   5.724  10.212 -0.0673  0.0899 -0.0491
  556PYPI    C3 8719   6.199   5.482  10.309 -0.1498  0.2233  0.0297
  556PYPI   PO4 8720   6.181   5.784   9.768 -0.0938  0.0392  0.0825
  556PYPI   GL1 8721   6.197   5.952   9.389  0.0669 -0.2785  0.1125
  556PYPI   GL2 8722   5.988   6.008   9.271 -0.1981 -0.1107 -0.1992
  556PYPI   C1A 8723   6.444   6.070   9.055 -0.1615 -0.0089  0.1998
  556PYPI   C2A 8724   6.324   6.130   8.676  0.1798  0.2471  0.0559
  556PYPI   D3A 8725   6.196   5.923   8.459  0.0358 -0.2625 -0.3569
  556PYPI   C4A 8726   6.178   5.864   7.991  0.3207  0.1624  0.0510
  556PYPI   C1B 8727   5.851   6.096   8.851 -0.2529 -0.1108 -0.1281
  556PYPI   C2B 8728   5.557   6.211   8.462  0.1187  0.2475 -0.0527
  556PYPI   C3B 8729   5.330   6.269   8.074 -0.2545  0.2344 -0.1710
  556PYPI   C4B 8730   5.269   6.389   7.618  0.3682  0.2976 -0.1948
  557PYPI    C1 8731   8.105   4.980  10.020  0.1417 -0.1116  0.0473
  557PYPI    C2 8732   7.729   4.844  10.010  0.1326 -0.0875  0.0582
  557PYPI    C3 8733   7.854   5.064  10.319  0.0639  0.1676 -0.0929
  557PYPI   PO4 8734   8.198   5.101   9.766  0.0261  0.2590 -0.0325
  557PYPI   GL1 8735   8.459   4.990   9.464  0.0701 -0.2015 -0.1162
  557PYPI   GL2 8736   8.595   4.731   9.530 -0.3185  0.0866 -0.0649
  557PYPI   C1A 8737   8.442   5.048   8.942 -0.1467  0.0812 -0.1244
  557PYPI   C2A 8738   8.550   4.934   8.456 -0.0810  0.0175 -0.3000
  557PYPI   D3A 8739   8.395   4.895   8.084 -0.3087 -0.1378 -0.2687
  557PYPI   C4A 8740   8.081   4.982   8.095 -0.2312  0.0373  0.1256
  557PYPI   C1B 8741   8.713   4.413   9.268 -0.4105 -0.1977 -0.1240
  557PYPI   C2B 8742   8.666   4.422   8.776  0.2089  0.1616 -0.3505
  557PYPI   C3B 8743   8.665   4.423   8.362 -0.1887  0.1162  0.0407
  557PYPI   C4B 8744   8.836   4.634   8.136 -0.0084  0.3017 -0.1050
  558PYPI    C1 8745  14.192   4.635  10.594 -0.1059 -0.0993  0.1046
  558PYPI    C2 8746  14.427   4.957  10.627 -0.1056 -0.0740 -0.1247
  558PYPI    C3 8747  14.124   4.902  10.883 -0.0087  0.0258  0.0128
  558PYPI   PO4 8748  14.190   4.636  10.300 -0.1023 -0.0862  0.0846
  558PYPI   GL1 8749  14.409   4.734   9.869  0.0067  0.4312 -0.0375
  558PYPI   GL2 8750  14.338   4.998   9.658  0.2587 -0.2454  0.1064
  558PYPI   C1A 8751  14.185   4.436   9.535 -0.3858 -0.0416 -0.0595
  558PYPI   C2A 8752  13.978   4.376   9.132 -0.1142  0.1134 -0.3582
  558PYPI   D3A 8753  13.829   4.505   8.683  0.0011 -0.0073 -0.1515
  558PYPI   C4A 8754  14.052   4.516   8.293  0.2990 -0.4112  0.0095
  558PYPI   C1B 8755  14.133   4.906   9.253  0.2043  0.0887  0.1347
  558PYPI   C2B 8756  14.174   4.812   8.857  0.2350 -0.2151 -0.0452
  558PYPI   C3B 8757  14.231   4.985   8.437 -0.3679  0.1652 -0.0641
  558PYPI   C4B 8758  14.101   5.247   7.976  0.3092 -0.1213 -0.0735
  559PYPI    C1 8759   5.580  14.986  10.535 -0.0434 -0.0866  0.2579
  559PYPI    C2 8760   5.628  15.351  10.689  0.0074  0.0199 -0.0044
  559PYPI    C3 8761   5.460  15.062  10.909 -0.0808  0.2133  0.1869
  559PYPI   PO4 8762   5.490  14.997  10.332  0.0445  0.0527  0.2116
  559PYPI   GL1 8763   5.717  14.907   9.974 -0.0666  0.2361  0.0610
  559PYPI   GL2 8764   5.484  14.839   9.734  0.0532  0.1467 -0.1572
  559PYPI   C1A 8765   5.938  14.979   9.643  0.1352 -0.1399 -0.3629
  559PYPI   C2A 8766   6.114  15.041   9.284  0.2505 -0.2351  0.0528
  559PYPI   D3A 8767   6.252  15.151   8.944 -0.1427 -0.0842 -0.1691
  559PYPI   C4A 8768   5.865  15.270   8.640 -0.0916 -0.0118  0.0665
  559PYPI   C1B 8769   5.462  14.723   9.396  0.2122 -0.2800  0.2152
  559PYPI   C2B 8770   5.343  14.712   8.973 -0.0893  0.1520  0.0772
  559PYPI   C3B 8771   5.348  15.097   8.741  0.0006 -0.2254  0.0715
  559PYPI   C4B 8772   5.410  15.166   8.248 -0.3693  0.0141 -0.1537
  560PYPI    C1 8773  10.097  11.005  10.233 -0.1638  0.0465  0.0296
  560PYPI    C2 8774  10.095  10.666  10.446 -0.0035  0.0290  0.0048
  560PYPI    C3 8775   9.901  10.684  10.097  0.1527 -0.1012 -0.0905
  560PYPI   PO4 8776  10.334  11.128  10.261  0.1636  0.1170 -0.1488
  560PYPI   GL1 8777  10.545  11.113   9.975  0.2024 -0.0514  0.1887
  560PYPI   GL2 8778  10.389  10.965   9.770  0.1157  0.0336  0.2627
  560PYPI   C1A 8779  10.775  11.272   9.620 -0.2637 -0.2747  0.1094
  560PYPI   C2A 8780  10.960  11.128   9.216 -0.1018  0.1653 -0.2691
  560PYPI   D3A 8781  11.309  11.018   8.943  0.4107  0.2926 -0.1613
  560PYPI   C4A 8782  11.164  10.810   8.505  0.2150 -0.0898  0.1835
  560PYPI   C1B 8783  10.166  10.649   9.613 -0.0330  0.0726  0.0094
  560PYPI   C2B 8784  10.057  10.472   9.144 -0.1263  0.0235  0.3556
  560PYPI   C3B 8785  10.101  10.522   8.781 -0.0740 -0.2525 -0.0293
  560PYPI   C4B 8786  10.110  10.799   8.543  0.0218  0.0468  0.1129
  561PYPI    C1 8787  11.777   6.121  10.124  0.0384 -0.1029 -0.1372
  561PYPI    C2 8788  12.072   6.363  10.244 -0.0125 -0.1617  0.1129
  561PYPI    C3 8789  11.801   6.493   9.980 -0.0233  0.0455  0.2239
  561PYPI   PO4 8790  11.892   5.906  10.007  0.1627  0.1241  0.2409
  561PYPI   GL1 8791  11.838   5.597   9.834  0.3182  0.1163  0.0438
  561PYPI   GL2 8792  12.201   5.572   9.790 -0.1021 -0.1052 -0.1805
  561PYPI   C1A 8793  11.778   5.520   9.392  0.2550  0.0406 -0.1576
  561PYPI   C2A 8794  11.748   5.485   8.976 -0.2179  0.2543 -0.0334
  561PYPI   D3A 8795  11.750   5.491   8.603 -0.2079 -0.0706  0.1964
  561PYPI   C4A 8796  11.861   5.245   8.172  0.0716  0.4453 -0.0183
  561PYPI   C1B 8797  12.166   5.815   9.287  0.1639 -0.0184 -0.0763
  561PYPI   C2B 8798  12.300   5.699   8.906  0.0758  0.1252  0.3239
  561PYPI   C3B 8799  12.365   5.482   8.471  0.1503  0.2371  0.3350
  561PYPI   C4B 8800  12.382   5.322   8.057 -0.2843 -0.0980 -0.1065
  562PYPI    C1 8801   0.293   1.666  10.599  0.0392 -0.0674 -0.4590
  562PYPI    C2 8802   0.281   2.028  10.428  0.0340  0.1257 -0.0596
  562PYPI    C3 8803  -0.010   1.915  10.678  0.2154 -0.0158  0.0907
  562PYPI   PO4 8804   0.382   1.486  10.359 -0.0714 -0.0757 -0.1451
  562PYPI   GL1 8805   0.236   1.294  10.017 -0.2807  0.1895 -0.3119
  562PYPI   GL2 8806   0.405   1.172   9.864  0.2601  0.0021 -0.1089
  562PYPI   C1A 8807   0.066   0.965   9.611  0.1776 -0.2617 -0.6961
  562PYPI   C2A 8808   0.231   0.663   9.416  0.0153 -0.1517  0.2334
  562PYPI   D3A 8809   0.622   0.458   9.234 -0.0687  0.1783 -0.2325
  562PYPI   C4A 8810   1.106   0.542   9.380 -0.0300 -0.1179 -0.0182
  562PYPI   C1B 8811   0.577   1.148   9.425 -0.0407 -0.0711 -0.0133
  562PYPI   C2B 8812   0.495   1.234   8.951  0.3594  0.1334 -0.0357
  562PYPI   C3B 8813   0.464   1.207   8.589  0.1999 -0.1160  0.1058
  562PYPI   C4B 8814   0.372   0.897   8.337 -0.0692 -0.1348  0.0338
  563PYPI    C1 8815  14.427  16.113  10.829  0.2542 -0.5458 -0.0222
  563PYPI    C2 8816  14.230  15.860  11.069 -0.1863 -0.0314  0.1770
  563PYPI    C3 8817  14.372  16.205  11.214  0.1638 -0.0303 -0.1514
  563PYPI   PO4 8818  14.352  16.162  10.654  0.1756  0.0311  0.0499
  563PYPI   GL1 8819  14.366  16.352  10.196  0.1060  0.0759 -0.0133
  563PYPI   GL2 8820  14.154  16.646  10.185 -0.0506  0.0570  0.0812
  563PYPI   C1A 8821  14.618  16.183   9.834  0.1293 -0.1702  0.0750
  563PYPI   C2A 8822  14.734  16.124   9.323  0.0264 -0.1240 -0.2339
  563PYPI   D3A 8823  14.803  16.008   8.896 -0.3012  0.0315 -0.0091
  563PYPI   C4A 8824  14.675  16.127   8.542 -0.3120 -0.1407 -0.1792
  563PYPI   C1B 8825  14.212  16.591   9.697  0.1115  0.0293  0.3458
  563PYPI   C2B 8826  14.346  16.445   9.270  0.2330  0.2273  0.2668
  563PYPI   C3B 8827  14.368  16.465   8.788  0.1509  0.1854 -0.2303
  563PYPI   C4B 8828  14.353  16.584   8.414 -0.0533 -0.1913 -0.1470
  564PYPI    C1 8829   8.621   3.775  10.572 -0.1845  0.0165 -0.1064
  564PYPI    C2 8830   8.514   4.107  10.767 -0.1873 -0.1289  0.1447
  564PYPI    C3 8831   8.460   3.749  10.937  0.1653 -0.2383  0.0363
  564PYPI   PO4 8832   8.780   3.923  10.413 -0.0256  0.2473  0.2073
  564PYPI   GL1 8833   8.762   3.879   9.988 -0.1043  0.1114 -0.0536
  564PYPI   GL2 8834   8.964   3.615   9.804 -0.2600 -0.2839 -0.0902
  564PYPI   C1A 8835   8.871   4.003   9.523 -0.0848 -0.1903 -0.1674
  564PYPI   C2A 8836   8.785   3.897   9.068  0.2215 -0.0912 -0.4756
  564PYPI   D3A 8837   8.712   3.992   8.597  0.1993  0.1837 -0.0765
  564PYPI   C4A 8838   8.429   3.698   8.345  0.2372  0.1382 -0.1300
  564PYPI   C1B 8839   8.930   3.449   9.335 -0.1849  0.3766 -0.1326
  564PYPI   C2B 8840   8.937   3.447   8.962 -0.1961 -0.1708 -0.0438
  564PYPI   C3B 8841   8.788   3.332   8.543 -0.0242  0.1278  0.1720
  564PYPI   C4B 8842   8.927   3.425   8.092  0.2487 -0.0626 -0.1129
  565PYPI    C1 8843  15.290   3.389  10.267  0.2192  0.2292  0.0844
  565PYPI    C2 8844  15.368   3.444  10.655  0.0660 -0.1250  0.1697
  565PYPI    C3 8845  15.335   3.073  10.508 -0.1682  0.0075 -0.1223
  565PYPI   PO4 8846  15.414   3.617  10.114  0.1413  0.0685 -0.2503
  565PYPI   GL1 8847  15.228   3.749   9.664 -0.0812  0.2425  0.1286
  565PYPI   GL2 8848  14.991   3.990   9.701 -0.0113 -0.2413  0.0187
  565PYPI   C1A 8849  15.335   3.515   9.296  0.1896 -0.0669  0.1515
  565PYPI   C2A 8850  15.649   3.607   8.989  0.2863  0.2810  0.3528
  565PYPI   D3A 8851  15.717   3.582   8.538  0.1522  0.1395  0.1065
  565PYPI   C4A 8852  15.538   3.751   8.129 -0.1766 -0.1068 -0.2211
  565PYPI   C1B 8853  14.782   3.804   9.258 -0.0668  0.4085  0.1617
  565PYPI   C2B 8854  14.865   3.425   9.035  0.0046 -0.2176  0.0524
  565PYPI   C3B 8855  15.139   3.124   8.976  0.0444 -0.1063  0.0210
  565PYPI   C4B 8856  15.508   3.049   9.242  0.3460  0.3044  0.1630
  566PYPI    C1 8857  16.573   0.825  10.189 -0.0519 -0.1542 -0.2218
  566PYPI    C2 8858  16.175   0.802  10.211 -0.0409 -0.0031  0.2358
  566PYPI    C3 8859  16.390   0.871  10.541  0.3661 -0.0653 -0.0093
  566PYPI   PO4 8860  16.618   0.963  10.005  0.3068  0.1666 -0.1083
  566PYPI   GL1 8861  16.603   0.927   9.559  0.0087 -0.2707 -0.1347
  566PYPI   GL2 8862  16.987   0.903   9.662  0.0389  0.1605  0.2781
  566PYPI   C1A 8863  16.746   0.621   9.282  0.0387  0.1561 -0.0630
  566PYPI   C2A 8864  16.585   0.481   8.922  0.1215 -0.2427 -0.2703
  566PYPI   D3A 8865  16.273   0.643   8.761  0.2344  0.3038  0.0402
  566PYPI   C4A 8866  16.173   0.969   8.654  0.3588 -0.0614  0.1370
  566PYPI   C1B 8867  17.227   0.781   9.269 -0.2356  0.0677  0.0966
  566PYPI   C2B 8868  17.380   0.709   8.891  0.2520  0.1327 -0.2708
  566PYPI   C3B 8869  17.295   0.653   8.456 -0.2666 -0.1227 -0.5393
  566PYPI   C4B 8870  17.020   0.678   8.148  0.1475  0.2515 -0.4836
  567PYPI    C1 8871   8.960  11.794  10.289 -0.0441 -0.0499  0.1265
  567PYPI    C2 8872   8.919  12.035  10.606  0.0093 -0.2508  0.2884
  567PYPI    C3 8873   9.201  11.751  10.606  0.2805  0.0081 -0.1070
  567PYPI   PO4 8874   8.938  11.990  10.108  0.2054  0.0792 -0.3400
  567PYPI   GL1 8875   8.861  12.083   9.636  0.0912  0.2882 -0.0735
  567PYPI   GL2 8876   8.602  12.264   9.450  0.1336  0.0774  0.1517
  567PYPI   C1A 8877   8.921  12.082   9.185  0.1367  0.1445 -0.1962
  567PYPI   C2A 8878   8.901  12.123   8.775  0.1244  0.1586 -0.2380
  567PYPI   D3A 8879   8.638  12.114   8.411  0.1055  0.2532 -0.1786
  567PYPI   C4A 8880   8.825  11.852   8.049  0.1161 -0.0366  0.1929
  567PYPI   C1B 8881   8.621  12.483   9.183  0.0831 -0.1220 -0.0470
  567PYPI   C2B 8882   8.477  12.592   8.736 -0.0844  0.1274 -0.2244
  567PYPI   C3B 8883   8.161  12.893   8.550 -0.2503 -0.0692 -0.1795
  567PYPI   C4B 8884   7.774  12.848   8.175  0.0868  0.2538  0.0133
  568PYPI    C1 8885  10.567  16.446  10.662 -0.1204  0.2607  0.2437
  568PYPI    C2 8886  10.176  16.368  10.682 -0.0502 -0.1552  0.0967
  568PYPI    C3 8887  10.407  16.318  11.005 -0.0890 -0.0687  0.1383
  568PYPI   PO4 8888  10.613  16.339  10.401 -0.1406  0.0654 -0.0644
  568PYPI   GL1 8889  10.713  16.391  10.048  0.2650  0.3127  0.2135
  568PYPI   GL2 8890  11.007  16.437   9.840  0.0649 -0.0275  0.1055
  568PYPI   C1A 8891  10.537  16.188   9.761 -0.0563  0.2265  0.1926
  568PYPI   C2A 8892  10.712  16.276   9.336  0.1715  0.1930  0.0546
  568PYPI   D3A 8893  10.627  16.618   9.003  0.1649  0.0146 -0.0891
  568PYPI   C4A 8894  10.801  16.930   9.164  0.0186  0.0058 -0.2363
  568PYPI   C1B 8895  10.690  16.718   9.603  0.0452  0.1464  0.3839
  568PYPI   C2B 8896  10.363  17.021   9.329 -0.2684  0.0135 -0.1321
  568PYPI   C3B 8897  10.216  17.161   8.943 -0.0027 -0.0743 -0.0986
  568PYPI   C4B 8898  10.244  16.948   8.480 -0.0704  0.0399  0.0021
  569PYPI    C1 8899   2.305   3.019  10.346 -0.1934 -0.0516  0.0764
  569PYPI    C2 8900   2.204   3.403  10.395  0.0769  0.0144  0.1310
  569PYPI    C3 8901   2.238   3.163  10.713  0.1825  0.0171  0.1222
  569PYPI   PO4 8902   2.367   2.994  10.120 -0.1480  0.0557  0.0562
  569PYPI   GL1 8903   2.323   3.055   9.676 -0.0250  0.1865  0.1510
  569PYPI   GL2 8904   2.500   3.229   9.643  0.2529 -0.1185 -0.0652
  569PYPI   C1A 8905   2.074   2.958   9.358  0.2971  0.2736  0.0475
  569PYPI   C2A 8906   1.782   2.820   9.019  0.0365 -0.0382  0.1940
  569PYPI   D3A 8907   1.443   3.029   8.725 -0.0294 -0.2985 -0.1487
  569PYPI   C4A 8908   1.044   3.012   8.896  0.0510 -0.1490 -0.1931
  569PYPI   C1B 8909   2.549   3.065   9.131  0.2002 -0.0301  0.0115
  569PYPI   C2B 8910   2.309   2.772   8.927  0.1413 -0.2359 -0.0451
  569PYPI   C3B 8911   2.387   2.648   8.549  0.4696  0.1974 -0.1147
  569PYPI   C4B 8912   2.392   2.266   8.245  0.3140  0.2330  0.0380
  570PYPI    C1 8913   0.590   3.861   9.883 -0.1177 -0.1403  0.2129
  570PYPI    C2 8914   0.720   3.848  10.262  0.2078 -0.0161  0.1095
  570PYPI    C3 8915   0.970   3.761   9.962  0.0803  0.3289 -0.1023
  570PYPI   PO4 8916   0.389   3.683   9.878  0.3338  0.1468  0.2370
  570PYPI   GL1 8917   0.049   3.625   9.545 -0.0203 -0.2548 -0.1381
  570PYPI   GL2 8918  -0.284   3.591   9.459  0.1211 -0.0180 -0.0447
  570PYPI   C1A 8919   0.248   3.653   9.258 -0.1126 -0.1971  0.0047
  570PYPI   C2A 8920   0.312   3.590   8.856  0.0919 -0.0916 -0.0208
  570PYPI   D3A 8921   0.340   3.766   8.536 -0.4101 -0.3684 -0.2570
  570PYPI   C4A 8922   0.392   3.460   8.262  0.0283 -0.1939  0.3694
  570PYPI   C1B 8923  -0.145   3.325   9.082  0.0180 -0.1828  0.1615
  570PYPI   C2B 8924  -0.038   3.276   8.630 -0.0219 -0.2781 -0.0165
  570PYPI   C3B 8925   0.044   3.138   8.328  0.2843  0.2452  0.3430
  570PYPI   C4B 8926   0.004   3.327   7.966  0.2442 -0.0953 -0.2789
  571PYPI    C1 8927  13.215  16.416  10.087  0.0401 -0.2471 -0.0697
  571PYPI    C2 8928  13.166  16.582  10.448  0.0386 -0.1214 -0.1271
  571PYPI    C3 8929  13.534  16.519  10.306  0.0389 -0.0810 -0.1443
  571PYPI   PO4 8930  13.176  16.565   9.916 -0.1379 -0.1051  0.0650
  571PYPI   GL1 8931  13.356  16.962   9.711  0.2216  0.1804  0.0113
  571PYPI   GL2 8932  13.040  17.003   9.587  0.0589 -0.0892 -0.1266
  571PYPI   C1A 8933  13.332  16.833   9.243  0.3306  0.0943  0.3125
  571PYPI   C2A 8934  13.194  16.923   8.909 -0.3221  0.0229 -0.1580
  571PYPI   D3A 8935  13.151  16.925   8.495 -0.3149 -0.0886 -0.0604
  571PYPI   C4A 8936  12.757  16.736   8.421  0.2042 -0.0617  0.3736
  571PYPI   C1B 8937  12.804  16.758   9.344 -0.2219  0.1350 -0.2942
  571PYPI   C2B 8938  12.543  16.415   9.089 -0.1587 -0.2945 -0.2424
  571PYPI   C3B 8939  12.438  16.477   8.682  0.1407 -0.0418 -0.0920
  571PYPI   C4B 8940  12.350  16.423   8.296  0.1260 -0.0434  0.2228
  572PYPI    C1 8941  13.902   5.333  10.563  0.0587  0.1248 -0.0204
  572PYPI    C2 8942  13.508   5.295  10.510  0.0504 -0.2218  0.2537
  572PYPI    C3 8943  13.662   5.647  10.622 -0.1741 -0.0744  0.1079
  572PYPI   PO4 8944  14.013   5.160  10.393 -0.0869  0.0007 -0.1744
  572PYPI   GL1 8945  13.990   5.229   9.971  0.0679  0.1722  0.2705
  572PYPI   GL2 8946  14.110   5.490   9.789 -0.2497 -0.1968 -0.2524
  572PYPI   C1A 8947  13.725   5.231   9.505  0.1675 -0.2450  0.1922
  572PYPI   C2A 8948  13.527   5.163   8.965  0.1450  0.1278 -0.0383
  572PYPI   D3A 8949  13.745   5.031   8.662  0.1082  0.0728 -0.2524
  572PYPI   C4A 8950  13.749   4.947   8.238  0.0122  0.1642 -0.2229
  572PYPI   C1B 8951  14.127   5.398   9.311  0.0208  0.2401  0.2985
  572PYPI   C2B 8952  14.012   5.392   8.837 -0.0776  0.0519  0.2600
  572PYPI   C3B 8953  13.961   5.418   8.415 -0.1107 -0.0468 -0.5310
  572PYPI   C4B 8954  14.088   5.705   8.213 -0.1421 -0.0713 -0.0877
  573PYPI    C1 8955  15.232   4.781  10.257  0.0348  0.1884  0.0555
  573PYPI    C2 8956  15.301   4.404  10.370  0.1007  0.1753 -0.0273
  573PYPI    C3 8957  15.165   4.670  10.635 -0.0812  0.0594 -0.0018
  573PYPI   PO4 8958  15.424   4.905  10.143  0.2555 -0.0029  0.0285
  573PYPI   GL1 8959  15.742   4.849   9.760 -0.0000 -0.1727  0.0592
  573PYPI   GL2 8960  15.537   5.091   9.660  0.0796 -0.1346 -0.2579
  573PYPI   C1A 8961  15.797   4.680   9.414 -0.1709 -0.0866  0.4546
  573PYPI   C2A 8962  15.658   4.640   9.079 -0.0001  0.0443 -0.0899
  573PYPI   D3A 8963  15.378   4.517   8.763 -0.0012 -0.3593 -0.2216
  573PYPI   C4A 8964  15.368   4.806   8.429  0.0162 -0.1786 -0.1205
  573PYPI   C1B 8965  15.463   5.155   9.175  0.1036  0.1240 -0.0336
  573PYPI   C2B 8966  15.645   5.041   8.747  0.1812  0.0315 -0.1825
  573PYPI   C3B 8967  15.961   5.143   8.572 -0.2628 -0.1033  0.2085
  573PYPI   C4B 8968  15.980   5.524   8.405  0.0135  0.2691  0.0773
  574ERGO   ROH 8969  14.333  11.985   9.503 -0.0795 -0.2042 -0.0713
  574ERGO    R1 8970  14.445  11.854   9.278 -0.1909 -0.0741 -0.2050
  574ERGO    R2 8971  14.434  11.960   9.023  0.0875  0.3062 -0.0691
  574ERGO    R3 8972  14.703  11.926   9.032  0.0362 -0.1373  0.0118
  574ERGO    R4 8973  14.637  11.915   8.747  0.1165  0.0893 -0.0146
  574ERGO    R5 8974  14.749  11.766   8.860 -0.1624 -0.1434 -0.0358
  574ERGO    C1 8975  15.008  11.857   8.595  0.0854 -0.4535  0.0932
  574ERGO    C2 8976  15.066  11.919   8.264 -0.0074 -0.0618 -0.2020
  575ERGO   ROH 8977   3.538  15.182   9.770  0.0534 -0.0029 -0.0481
  575ERGO    R1 8978   3.604  14.970   9.593  0.1003 -0.0113 -0.0202
  575ERGO    R2 8979   3.433  14.885   9.394  0.1089 -0.0927  0.0095
  575ERGO    R3 8980   3.649  14.930   9.235  0.0812 -0.0560 -0.0181
  575ERGO    R4 8981   3.427  14.890   9.048  0.0643 -0.1151  0.0096
  575ERGO    R5 8982   3.617  14.784   9.048  0.0887 -0.0756 -0.0061
  575ERGO    C1 8983   3.626  14.935   8.698  0.0125 -0.0936 -0.0163
  575ERGO    C2 8984   3.621  14.933   8.351  0.0359 -0.5761 -0.1821
  576ERGO   ROH 8985  17.603   3.412   9.399  0.2044 -0.2007 -0.0513
  576ERGO    R1 8986  17.492   3.433   9.140 -0.0152 -0.2216  0.0382
  576ERGO    R2 8987  17.634   3.532   8.925 -0.3108  0.1185 -0.0155
  576ERGO    R3 8988  17.562   3.297   8.809 -0.0366  0.0660 -0.0870
  576ERGO    R4 8989  17.652   3.465   8.586 -0.4193  0.3089 -0.0596
  576ERGO    R5 8990  17.460   3.362   8.602 -0.2588  0.0197  0.0077
  576ERGO    C1 8991  17.594   3.206   8.280 -0.2250  0.3704 -0.1525
  576ERGO    C2 8992  17.647   3.071   7.864 -0.1146  0.1470 -0.0215
  577ERGO   ROH 8993   1.157   9.305   9.941 -0.2630  0.0674  0.1374
  577ERGO    R1 8994   1.184   9.294   9.659 -0.3483 -0.0930  0.1337
  577ERGO    R2 8995   0.984   9.375   9.488 -0.2509  0.2070  0.1517
  577ERGO    R3 8996   1.180   9.533   9.384  0.0186 -0.1844  0.0448
  577ERGO    R4 8997   0.982   9.508   9.169 -0.1154  0.1630  0.1317
  577ERGO    R5 8998   1.195   9.465   9.155 -0.2013 -0.2529  0.0514
  577ERGO    C1 8999   1.165   9.734   8.886  0.2164 -0.2302  0.0197
  577ERGO    C2 9000   1.145   9.875   8.522  0.1565 -0.0479  0.1419
  578ERGO   ROH 9001   9.242   5.404   9.497 -0.1512  0.1846  0.0124
  578ERGO    R1 9002   9.215   5.321   9.228 -0.1594  0.2650 -0.0124
  578ERGO    R2 9003   9.281   5.483   9.014  0.0781  0.2386  0.0379
  578ERGO    R3 9004   9.436   5.271   8.943 -0.1235  0.0862  0.0453
  578ERGO    R4 9005   9.374   5.405   8.690 -0.1797  0.0075  0.0159
  578ERGO    R5 9006   9.342   5.195   8.736 -0.3095  0.0526  0.1400
  578ERGO    C1 9007   9.574   5.161   8.435 -0.5190 -0.2702  0.0101
  578ERGO    C2 9008   9.862   4.970   8.259 -0.2683  0.0294  0.1456
  579ERGO   ROH 9009  13.134   6.794   9.316 -0.0650 -0.1554  0.1141
  579ERGO    R1 9010  13.091   6.828   9.038 -0.1004 -0.1585  0.1193
  579ERGO    R2 9011  13.189   6.652   8.850 -0.0164 -0.0923  0.1004
  579ERGO    R3 9012  12.929   6.641   8.771 -0.0164 -0.2271  0.1158
  579ERGO    R4 9013  13.079   6.526   8.547  0.0638  0.1409 -0.0283
  579ERGO    R5 9014  12.936   6.690   8.537 -0.0776  0.0344  0.1647
  579ERGO    C1 9015  12.771   6.443   8.297  0.1106  0.1501 -0.0888
  579ERGO    C2 9016  12.520   6.320   8.021  0.1068 -0.2678 -0.2906
  580ERGO   ROH 9017  17.516   3.708   9.799  0.1500  0.0871  0.2082
  580ERGO    R1 9018  17.657   3.879   9.622 -0.0399  0.1749  0.1388
  580ERGO    R2 9019  17.883   3.797   9.486  0.0379  0.3640  0.1565
  580ERGO    R3 9020  17.743   3.880   9.269 -0.0631  0.1402  0.1323
  580ERGO    R4 9021  18.000   3.788   9.160 -0.0884  0.0760  0.1156
  580ERGO    R5 9022  17.907   3.983   9.127 -0.1316  0.0352 -0.0301
  580ERGO    C1 9023  17.935   3.861   8.767 -0.2569 -0.3016  0.0690
  580ERGO    C2 9024  18.020   3.762   8.463 -0.0124  0.1573  0.1562
  581ERGO   ROH 9025   6.937   2.455   9.939  0.1595  0.0141 -0.0422
  581ERGO    R1 9026   7.082   2.524   9.706  0.1308 -0.1579 -0.1122
  581ERGO    R2 9027   7.201   2.335   9.543 -0.1408 -0.3004 -0.1518
  581ERGO    R3 9028   7.056   2.457   9.349 -0.0995 -0.1601 -0.0958
  581ERGO    R4 9029   7.292   2.355   9.210 -0.1565 -0.2067 -0.1513
  581ERGO    R5 9030   7.219   2.560   9.208 -0.0664 -0.1749 -0.0662
  581ERGO    C1 9031   7.209   2.482   8.835 -0.1268 -0.0204 -0.0982
  581ERGO    C2 9032   7.234   2.450   8.455 -0.0360  0.2393 -0.4355
  582ERGO   ROH 9033   8.146  17.955   9.988 -0.0364  0.1996  0.1351
  582ERGO    R1 9034   8.070  18.189   9.847  0.1935  0.1683 -0.0463
  582ERGO    R2 9035   8.179  18.256   9.602  0.2373 -0.1461 -0.1199
  582ERGO    R3 9036   7.918  18.265   9.526  0.2345  0.0659 -0.0899
  582ERGO    R4 9037   8.069  18.343   9.286  0.2757 -0.1672 -0.1390
  582ERGO    R5 9038   7.906  18.454   9.379  0.3900  0.0203 -0.1620
  582ERGO    C1 9039   7.760  18.403   9.031  0.2954  0.0192 -0.1221
  582ERGO    C2 9040   7.589  18.426   8.807 -0.0506 -0.1136 -0.1212
  583ERGO   ROH 9041   8.714   9.111   9.489 -0.1119 -0.0949  0.0964
  583ERGO    R1 9042   8.499   9.096   9.305 -0.0740 -0.1326  0.0550
  583ERGO    R2 9043   8.471   9.273   9.095 -0.1621 -0.0248  0.1555
  583ERGO    R3 9044   8.461   9.046   8.947  0.0171  0.0545  0.0180
  583ERGO    R4 9045   8.366   9.257   8.766 -0.2721  0.0682  0.1851
  583ERGO    R5 9046   8.263   9.070   8.814 -0.0605 -0.0690  0.1106
  583ERGO    C1 9047   8.296   9.034   8.435 -0.1677  0.1968  0.0731
  583ERGO    C2 9048   8.419   9.149   8.106  0.2460 -0.0844  0.0272
  584ERGO   ROH 9049   2.932   2.176   9.789  0.2381  0.0445 -0.0230
  584ERGO    R1 9050   2.949   2.178   9.506  0.2220 -0.0255 -0.0237
  584ERGO    R2 9051   3.124   2.342   9.370  0.1465  0.0022 -0.0734
  584ERGO    R3 9052   3.204   2.108   9.256  0.2341  0.0063 -0.0238
  584ERGO    R4 9053   3.208   2.304   9.036 -0.1541 -0.0869 -0.1429
  584ERGO    R5 9054   3.104   2.112   9.038  0.0045 -0.1864  0.0659
  584ERGO    C1 9055   3.332   2.063   8.736 -0.2468 -0.1348 -0.1368
  584ERGO    C2 9056   3.377   2.141   8.434  0.0554 -0.2185 -0.1932
  585ERGO   ROH 9057  11.346   1.409   9.634  0.1495 -0.2438 -0.0664
  585ERGO    R1 9058  11.285   1.283   9.387  0.0168 -0.0676 -0.1258
  585ERGO    R2 9059  11.033   1.289   9.275 -0.0090  0.1381 -0.0603
  585ERGO    R3 9060  11.166   1.388   9.059 -0.0094  0.1897 -0.0370
  585ERGO    R4 9061  10.904   1.306   8.955  0.1048 -0.0908 -0.1205
  585ERGO    R5 9062  11.099   1.245   8.879  0.1966  0.0637 -0.0184
  585ERGO    C1 9063  10.954   1.409   8.566  0.1706 -0.1756 -0.1336
  585ERGO    C2 9064  10.756   1.307   8.355  0.2389  0.0795  0.2039
  586ERGO   ROH 9065  11.329  17.820   9.528  0.1213 -0.1094 -0.0246
  586ERGO    R1 9066  11.136  17.785   9.324  0.0551  0.0175  0.0162
  586ERGO    R2 9067  11.100  17.968   9.120  0.2001 -0.0065 -0.0265
  586ERGO    R3 9068  11.138  17.750   8.962 -0.0366 -0.0884  0.0242
  586ERGO    R4 9069  11.053  17.962   8.778  0.4009  0.0356 -0.0562
  586ERGO    R5 9070  10.963  17.765   8.798  0.0784  0.1681 -0.0859
  586ERGO    C1 9071  11.062  17.755   8.430  0.2955 -0.0167 -0.0261
  586ERGO    C2 9072  11.115  17.791   8.063 -0.0222  0.1251 -0.1032
  587ERGO   ROH 9073   5.684  17.415  10.010  0.1300 -0.1732 -0.0124
  587ERGO    R1 9074   5.764  17.327   9.753  0.0239 -0.0217 -0.0985
  587ERGO    R2 9075   5.615  17.148   9.604  0.0040  0.0020 -0.1073
  587ERGO    R3 9076   5.630  17.343   9.415 -0.1600  0.1000 -0.0213
  587ERGO    R4 9077   5.470  17.131   9.291 -0.0502  0.0542 -0.0853
  587ERGO    R5 9078   5.649  17.224   9.208 -0.1261  0.2073 -0.0806
  587ERGO    C1 9079   5.399  17.304   8.931 -0.2357  0.1766  0.0083
  587ERGO    C2 9080   5.384  17.232   8.590 -0.0156  0.0933 -0.2017
  588ERGO   ROH 9081  12.748  16.371   9.790  0.0185  0.1578  0.0052
  588ERGO    R1 9082  12.753  16.270   9.525 -0.0438 -0.0443  0.0794
  588ERGO    R2 9083  12.976  16.289   9.363 -0.1861  0.1308 -0.0999
  588ERGO    R3 9084  12.943  16.020   9.341  0.1580  0.0635  0.1388
  588ERGO    R4 9085  13.096  16.096   9.103 -0.3488  0.1334 -0.1781
  588ERGO    R5 9086  12.909  15.983   9.107 -0.1893 -0.1360  0.2131
  588ERGO    C1 9087  13.136  15.732   8.930 -0.1205  0.0717  0.0005
  588ERGO    C2 9088  13.311  15.603   8.879  0.0642 -0.0671 -0.0843
  589ERGO   ROH 9089  11.499   8.994   9.547  0.0533  0.0920 -0.0357
  589ERGO    R1 9090  11.406   8.954   9.283 -0.0215  0.0212 -0.0001
  589ERGO    R2 9091  11.284   9.154   9.136  0.0091  0.0090 -0.0517
  589ERGO    R3 9092  11.476   9.093   8.954 -0.0491 -0.1260 -0.0675
  589ERGO    R4 9093  11.246   9.175   8.793 -0.0863 -0.2353 -0.0577
  589ERGO    R5 9094  11.358   8.989   8.774 -0.1013 -0.2491  0.0407
  589ERGO    C1 9095  11.405   9.131   8.423 -0.1964 -0.5044 -0.0760
  589ERGO    C2 9096  11.301   9.271   8.203  0.3054 -0.3700 -0.4002
  590ERGO   ROH 9097   8.569  12.848   9.543 -0.0959  0.0963  0.1169
  590ERGO    R1 9098   8.726  12.986   9.351 -0.0391  0.1713  0.2163
  590ERGO    R2 9099   8.705  12.937   9.080  0.2744  0.0400  0.2130
  590ERGO    R3 9100   8.664  13.205   9.068  0.0239 -0.0021  0.0664
  590ERGO    R4 9101   8.789  13.137   8.811  0.1517 -0.0165  0.1314
  590ERGO    R5 9102   8.856  13.289   8.952 -0.0256  0.1204  0.0717
  590ERGO    C1 9103   8.799  13.505   8.643 -0.1551 -0.0891 -0.0537
  590ERGO    C2 9104   8.742  13.595   8.332  0.0323  0.0867  0.2488
  591ERGO   ROH 9105   5.974   2.896   9.650 -0.0393  0.2217 -0.1153
  591ERGO    R1 9106   6.060   2.735   9.434  0.1208  0.1544 -0.0034
  591ERGO    R2 9107   5.921   2.720   9.195  0.1622 -0.1099 -0.0132
  591ERGO    R3 9108   6.162   2.789   9.088  0.1206  0.0209 -0.0251
  591ERGO    R4 9109   6.014   2.669   8.866  0.2751 -0.3240  0.0503
  591ERGO    R5 9110   6.212   2.611   8.936  0.3180 -0.0748  0.1454
  591ERGO    C1 9111   6.294   2.703   8.575  0.3018 -0.3258  0.0761
  591ERGO    C2 9112   6.365   2.612   8.300  0.0885 -0.0671  0.1682
  592ERGO   ROH 9113   0.992   1.255   9.746 -0.1914 -0.2417  0.0357
  592ERGO    R1 9114   1.096   1.251   9.483 -0.0494 -0.2663  0.0926
  592ERGO    R2 9115   1.095   1.023   9.327 -0.3053 -0.1870 -0.0160
  592ERGO    R3 9116   0.968   1.185   9.149  0.0380  0.0939 -0.0171
  592ERGO    R4 9117   1.055   0.954   8.990 -0.3982 -0.0814 -0.0285
  592ERGO    R5 9118   1.096   1.164   8.947  0.0321 -0.1464 -0.0024
  592ERGO    C1 9119   0.913   1.065   8.628 -0.1301  0.2438 -0.0368
  592ERGO    C2 9120   0.866   1.038   8.280 -0.1493 -0.1576 -0.0104
  593ERGO   ROH 9121   5.429  12.866   9.475  0.0253 -0.3863 -0.0942
  593ERGO    R1 9122   5.505  12.890   9.203 -0.0144 -0.3763 -0.1034
  593ERGO    R2 9123   5.404  12.727   9.004 -0.3409 -0.1145 -0.1529
  593ERGO    R3 9124   5.339  12.963   8.887  0.0089  0.0524 -0.0248
  593ERGO    R4 9125   5.312  12.765   8.674 -0.2633  0.1918 -0.1425
  593ERGO    R5 9126   5.431  12.948   8.667  0.0090  0.0352 -0.0303
  593ERGO    C1 9127   5.198  13.010   8.371  0.1102  0.5269 -0.0164
  593ERGO    C2 9128   5.184  12.929   8.083  0.1777 -0.0719 -0.1860
  594ERGO   ROH 9129  16.367   8.801   9.769 -0.0221  0.3256 -0.0236
  594ERGO    R1 9130  16.426   8.803   9.492 -0.2250  0.1591 -0.0708
  594ERGO    R2 9131  16.251   8.903   9.303 -0.1912  0.4409  0.0418
  594ERGO    R3 9132  16.466   9.054   9.231  0.0384  0.0398 -0.1488
  594ERGO    R4 9133  16.314   9.018   8.983 -0.3382  0.4394  0.0120
  594ERGO    R5 9134  16.525   8.973   9.014 -0.3807 -0.0012 -0.2554
  594ERGO    C1 9135  16.552   9.226   8.729 -0.2084  0.0620 -0.1843
  594ERGO    C2 9136  16.789   9.302   8.557  0.2308 -0.2713 -0.0909
  595ERGO   ROH 9137  13.933  10.427   9.538  0.1280 -0.0097  0.0530
  595ERGO    R1 9138  13.924  10.532   9.276  0.0480 -0.1544 -0.0029
  595ERGO    R2 9139  13.724  10.469   9.097 -0.1560 -0.0428  0.1860
  595ERGO    R3 9140  13.697  10.739   9.081  0.1269 -0.0181  0.0467
  595ERGO    R4 9141  13.590  10.638   8.826 -0.5297 -0.1002  0.3281
  595ERGO    R5 9142  13.745  10.790   8.852 -0.2872 -0.2528 -0.1059
  595ERGO    C1 9143  13.487  10.989   8.654 -0.4817 -0.1105  0.2801
  595ERGO    C2 9144  13.366  11.211   8.387 -0.2386  0.0273  0.1491
  596ERGO   ROH 9145  13.791  18.064   9.551 -0.0051 -0.0777 -0.0629
  596ERGO    R1 9146  13.540  18.007   9.433 -0.0254 -0.1030 -0.0086
  596ERGO    R2 9147  13.493  18.040   9.162 -0.1310  0.0345  0.0251
  596ERGO    R3 9148  13.414  17.780   9.178 -0.0283 -0.0046 -0.0952
  596ERGO    R4 9149  13.317  17.871   8.917  0.0534  0.0376 -0.1112
  596ERGO    R5 9150  13.199  17.777   9.074  0.0207 -0.0633 -0.1960
  596ERGO    C1 9151  13.141  17.529   8.789  0.2573  0.0025 -0.3037
  596ERGO    C2 9152  12.859  17.333   8.541  0.0031 -0.0646  0.0848
  597ERGO   ROH 9153   0.262   3.121   9.412  0.1500  0.1798  0.1143
  597ERGO    R1 9154   0.338   3.195   9.149  0.1674  0.1965  0.1238
  597ERGO    R2 9155   0.553   3.081   9.019  0.0831  0.0933  0.0720
  597ERGO    R3 9156   0.368   3.030   8.826  0.0289  0.2552  0.0806
  597ERGO    R4 9157   0.627   2.983   8.696 -0.0176  0.0230  0.0699
  597ERGO    R5 9158   0.467   3.115   8.625  0.0956  0.1643  0.0754
  597ERGO    C1 9159   0.496   2.879   8.326 -0.1273  0.1339  0.0768
  597ERGO    C2 9160   0.376   2.838   7.968  0.0562 -0.1641  0.1092
  598ERGO   ROH 9161   4.773   3.523   9.503  0.0273  0.0441  0.0628
  598ERGO    R1 9162   4.818   3.365   9.272  0.0264 -0.0167  0.1044
  598ERGO    R2 9163   4.685   3.408   9.033  0.1346  0.0152  0.0518
  598ERGO    R3 9164   4.937   3.422   8.933  0.1770 -0.1351  0.1356
  598ERGO    R4 9165   4.796   3.242   8.752  0.0113  0.2589 -0.1459
  598ERGO    R5 9166   4.982   3.201   8.855 -0.0560 -0.0907 -0.1473
  598ERGO    C1 9167   5.097   3.157   8.494 -0.0207  0.2597 -0.1824
  598ERGO    C2 9168   5.158   3.135   8.204  0.1468 -0.1306 -0.0040
  599ERGO   ROH 9169   4.378  15.713   9.834 -0.2100  0.0370  0.0393
  599ERGO    R1 9170   4.344  15.814   9.572 -0.1014  0.0371  0.0252
  599ERGO    R2 9171   4.516  15.752   9.365 -0.1163 -0.1041  0.0568
  599ERGO    R3 9172   4.287  15.676   9.241 -0.1533  0.0470  0.0295
  599ERGO    R4 9173   4.495  15.650   9.036 -0.1055 -0.2882  0.1115
  599ERGO    R5 9174   4.309  15.762   9.018  0.0087 -0.1102 -0.0188
  599ERGO    C1 9175   4.268  15.519   8.727 -0.1340 -0.2537  0.1178
  599ERGO    C2 9176   4.023  15.349   8.549 -0.2881  0.1989  0.0450
  600ERGO   ROH 9177   0.599  14.303   9.764  0.2027 -0.3514 -0.0964
  600ERGO    R1 9178   0.694  14.395   9.514  0.0523 -0.1068 -0.0678
  600ERGO    R2 9179   0.777  14.223   9.314  0.1699  0.0917 -0.1935
  600ERGO    R3 9180   0.597  14.361   9.165 -0.0030  0.0095 -0.0641
  600ERGO    R4 9181   0.772  14.230   8.969  0.0608  0.2723 -0.1893
  600ERGO    R5 9182   0.725  14.442   8.979 -0.1315  0.2264 -0.0608
  600ERGO    C1 9183   0.600  14.363   8.627 -0.1651  0.3004 -0.0653
  600ERGO    C2 9184   0.739  14.236   8.379 -0.1312 -0.1256 -0.1261
  601ERGO   ROH 9185  13.734   2.704   9.574  0.2392 -0.1084  0.0304
  601ERGO    R1 9186  13.863   2.785   9.335  0.1259 -0.4176 -0.1432
  601ERGO    R2 9187  13.803   2.675   9.089 -0.4611 -0.2962 -0.0765
  601ERGO    R3 9188  13.764   2.935   9.019  0.0505 -0.1925 -0.0135
  601ERGO    R4 9189  13.727   2.785   8.770 -0.3806 -0.0721 -0.0196
  601ERGO    R5 9190  13.862   2.953   8.801 -0.0100 -0.3568 -0.0507
  601ERGO    C1 9191  13.647   3.092   8.518  0.1465  0.1558  0.0727
  601ERGO    C2 9192  13.571   3.185   8.177 -0.1262  0.2083  0.3918
  602ERGO   ROH 9193   2.784   6.728   9.427  0.0824  0.0731 -0.2790
  602ERGO    R1 9194   2.621   6.878   9.251 -0.0226  0.0253 -0.2244
  602ERGO    R2 9195   2.725   7.055   9.066 -0.1461  0.2519 -0.0896
  602ERGO    R3 9196   2.577   6.908   8.891  0.0449  0.2091 -0.2168
  602ERGO    R4 9197   2.746   7.078   8.722  0.0283  0.3543 -0.0725
  602ERGO    R5 9198   2.529   7.060   8.712  0.0499  0.2218 -0.2009
  602ERGO    C1 9199   2.620   6.954   8.357  0.3090  0.3737 -0.1819
  602ERGO    C2 9200   2.755   6.827   8.040  0.0986 -0.1336  0.1355
  603ERGO   ROH 9201  15.668  15.850   9.640  0.1970 -0.1031 -0.0443
  603ERGO    R1 9202  15.617  15.943   9.378  0.2178  0.0380  0.0015
  603ERGO    R2 9203  15.801  16.092   9.235  0.3530 -0.1446 -0.0177
  603ERGO    R3 9204  15.764  15.898   9.048  0.0465 -0.0474 -0.0642
  603ERGO    R4 9205  15.897  16.117   8.904  0.2671 -0.1683 -0.0453
  603ERGO    R5 9206  15.711  16.019   8.848  0.1232  0.0781 -0.0097
  603ERGO    C1 9207  15.919  15.950   8.536 -0.0707 -0.0910 -0.1048
  603ERGO    C2 9208  16.132  15.959   8.247  0.0444 -0.0457 -0.2064
  604ERGO   ROH 9209  18.223   8.518   9.838 -0.0202 -0.0544  0.0505
  604ERGO    R1 9210  18.184   8.663   9.598 -0.0410 -0.1868 -0.0264
  604ERGO    R2 9211  18.363   8.855   9.510 -0.1587 -0.0835 -0.0334
  604ERGO    R3 9212  18.361   8.705   9.283  0.0514 -0.1796  0.0249
  604ERGO    R4 9213  18.564   8.910   9.234 -0.0642 -0.0536  0.0403
  604ERGO    R5 9214  18.394   8.863   9.106  0.0246 -0.2244 -0.0238
  604ERGO    C1 9215  18.679   8.802   8.861  0.1880 -0.1264  0.1380
  604ERGO    C2 9216  18.895   9.034   8.686  0.3053  0.2201  0.1273
  605ERGO   ROH 9217  13.701  14.434   9.649 -0.2770  0.3211 -0.0681
  605ERGO    R1 9218  13.807  14.357   9.399 -0.1199  0.1549  0.0481
  605ERGO    R2 9219  13.672  14.192   9.224 -0.0375  0.0946  0.0472
  605ERGO    R3 9220  13.715  14.396   9.049  0.1372 -0.0153 -0.0428
  605ERGO    R4 9221  13.665  14.162   8.879 -0.3151 -0.0092  0.0587
  605ERGO    R5 9222  13.837  14.295   8.869 -0.1234 -0.2526 -0.0981
  605ERGO    C1 9223  13.701  14.335   8.515 -0.3128 -0.1729 -0.0189
  605ERGO    C2 9224  13.752  14.425   8.178 -0.2025  0.0375 -0.2257
  606ERGO   ROH 9225   9.614  12.536   9.614  0.1078  0.1979 -0.0909
  606ERGO    R1 9226   9.550  12.530   9.338 -0.0450  0.2863 -0.0583
  606ERGO    R2 9227   9.597  12.743   9.169  0.2747  0.1832 -0.1031
  606ERGO    R3 9228   9.731  12.557   9.024 -0.1457 -0.0918 -0.1548
  606ERGO    R4 9229   9.704  12.786   8.843  0.4020  0.0536 -0.0792
  606ERGO    R5 9230   9.644  12.580   8.802 -0.0817  0.1935 -0.1556
  606ERGO    C1 9231   9.891  12.635   8.517  0.0815 -0.2799 -0.1137
  606ERGO    C2 9232   9.934  12.680   8.197  0.0752  0.0421 -0.2778
  607ERGO   ROH 9233   2.193   5.464   9.739  0.0854 -0.2489  0.1243
  607ERGO    R1 9234   2.148   5.503   9.462 -0.0120 -0.1346  0.1550
  607ERGO    R2 9235   2.354   5.523   9.279 -0.0698  0.0410  0.1000
  607ERGO    R3 9236   2.219   5.323   9.154 -0.0225  0.0413  0.0497
  607ERGO    R4 9237   2.450   5.376   8.981  0.0436  0.0229  0.1454
  607ERGO    R5 9238   2.241   5.374   8.921  0.0735  0.0269  0.0590
  607ERGO    C1 9239   2.378   5.103   8.690  0.1539  0.0127  0.1247
  607ERGO    C2 9240   2.384   4.930   8.306  0.1218 -0.1930 -0.0206
  608ERGO   ROH 9241  12.201   0.347   9.494  0.1882  0.0307  0.0043
  608ERGO    R1 9242  12.214   0.400   9.216 -0.0716  0.1771  0.0173
  608ERGO    R2 9243  12.227   0.199   9.027  0.2650  0.2761 -0.0685
  608ERGO    R3 9244  12.011   0.326   8.923 -0.0762 -0.1429  0.0969
  608ERGO    R4 9245  12.122   0.172   8.699  0.2668  0.3273 -0.0741
  608ERGO    R5 9246  12.078   0.386   8.701 -0.2558  0.2352  0.1352
  608ERGO    C1 9247  11.857   0.275   8.410 -0.0524 -0.0362  0.0780
  608ERGO    C2 9248  11.865   0.105   8.130 -0.2449 -0.1709  0.3485
  609ERGO   ROH 9249   4.484  13.045   9.598  0.3453 -0.0206 -0.0714
  609ERGO    R1 9250   4.447  12.949   9.334  0.3518  0.0182 -0.0855
  609ERGO    R2 9251   4.199  12.932   9.216  0.3095 -0.3361  0.0505
  609ERGO    R3 9252   4.317  13.080   9.021 -0.0370 -0.0710  0.0323
  609ERGO    R4 9253   4.131  12.903   8.878  0.3892 -0.5625  0.0520
  609ERGO    R5 9254   4.345  12.927   8.839  0.3473 -0.0457  0.0592
  609ERGO    C1 9255   4.203  13.025   8.498  0.1105 -0.4454  0.0357
  609ERGO    C2 9256   4.208  13.033   8.162  0.3012 -0.0322  0.0814
  610ERGO   ROH 9257   9.440  14.926   9.843 -0.0245  0.0839 -0.1745
  610ERGO    R1 9258   9.486  14.913   9.564  0.1749  0.0679 -0.1408
  610ERGO    R2 9259   9.384  15.100   9.387  0.0387 -0.1177 -0.2531
  610ERGO    R3 9260   9.644  15.123   9.313  0.0606  0.2114 -0.0970
  610ERGO    R4 9261   9.492  15.184   9.070  0.1158  0.0920 -0.1736
  610ERGO    R5 9262   9.651  15.036   9.090  0.2875  0.2694 -0.1205
  610ERGO    C1 9263   9.800  15.255   8.815  0.1813  0.5231  0.0191
  610ERGO    C2 9264   9.840  15.482   8.513  0.0873  0.0612 -0.0651
  611ERGO   ROH 9265   8.892   0.448   9.928  0.1349 -0.0356  0.0031
  611ERGO    R1 9266   8.722   0.513   9.711  0.0089 -0.0825  0.0860
  611ERGO    R2 9267   8.819   0.609   9.470 -0.1370 -0.0457  0.0397
  611ERGO    R3 9268   8.677   0.400   9.368 -0.1214 -0.0882  0.1052
  611ERGO    R4 9269   8.711   0.584   9.142 -0.0961 -0.1808  0.0360
  611ERGO    R5 9270   8.523   0.502   9.215 -0.1031 -0.1530  0.0448
  611ERGO    C1 9271   8.515   0.374   8.856 -0.0577 -0.2993  0.0956
  611ERGO    C2 9272   8.587   0.424   8.498 -0.1415 -0.1958 -0.0293
  612ERGO   ROH 9273   8.232   5.387   9.256  0.0553 -0.1550 -0.0957
  612ERGO    R1 9274   8.240   5.553   9.027  0.0669 -0.0987 -0.0552
  612ERGO    R2 9275   8.432   5.527   8.831  0.0333 -0.1001 -0.0898
  612ERGO    R3 9276   8.217   5.508   8.667  0.0044 -0.0023 -0.0635
  612ERGO    R4 9277   8.449   5.475   8.490 -0.0363 -0.4329 -0.0454
  612ERGO    R5 9278   8.286   5.618   8.465  0.1268 -0.2648 -0.1690
  612ERGO    C1 9279   8.256   5.426   8.137 -0.1040 -0.5349  0.0051
  612ERGO    C2 9280   8.295   5.296   7.820 -0.2096 -0.1305 -0.2644
  613ERGO   ROH 9281  18.328   6.131   9.431 -0.0151 -0.1881  0.1089
  613ERGO    R1 9282  18.362   6.171   9.153 -0.1809 -0.1757  0.0907
  613ERGO    R2 9283  18.175   6.301   8.997 -0.0760  0.2170  0.2923
  613ERGO    R3 9284  18.388   6.455   8.927  0.1564 -0.1550  0.1473
  613ERGO    R4 9285  18.195   6.490   8.708 -0.1189  0.4679  0.4488
  613ERGO    R5 9286  18.404   6.429   8.690 -0.2534  0.0399  0.0837
  613ERGO    C1 9287  18.407   6.744   8.474  0.0741  0.2647  0.4037
  613ERGO    C2 9288  18.331   6.888   8.109 -0.2193 -0.0259  0.2065
  614ERGO   ROH 9289   5.298  11.857   9.677 -0.0505 -0.0252  0.2025
  614ERGO    R1 9290   5.427  11.863   9.425 -0.1229  0.1728  0.1677
  614ERGO    R2 9291   5.558  11.643   9.320  0.1917  0.3677  0.1343
  614ERGO    R3 9292   5.394  11.688   9.107  0.0604  0.1164  0.1792
  614ERGO    R4 9293   5.605  11.512   9.003  0.3506  0.4978  0.1033
  614ERGO    R5 9294   5.543  11.704   8.920 -0.0066  0.4078  0.1473
  614ERGO    C1 9295   5.478  11.478   8.619  0.3198  0.3377  0.1273
  614ERGO    C2 9296   5.371  11.246   8.249  0.0314  0.2874 -0.0289
  615ERGO   ROH 9297   7.342   8.684   9.520 -0.1111  0.0032 -0.0927
  615ERGO    R1 9298   7.264   8.770   9.261 -0.0434 -0.0480 -0.1317
  615ERGO    R2 9299   7.145   9.015   9.215 -0.1608 -0.1101 -0.1931
  615ERGO    R3 9300   7.348   9.043   9.036 -0.0919 -0.0077 -0.0987
  615ERGO    R4 9301   7.105   9.113   8.886 -0.0636 -0.2457 -0.2450
  615ERGO    R5 9302   7.256   8.965   8.830  0.0794 -0.1434 -0.1218
  615ERGO    C1 9303   7.273   9.196   8.527  0.0576 -0.2285 -0.1869
  615ERGO    C2 9304   7.204   9.345   8.209 -0.4016 -0.0087 -0.0079
  616ERGO   ROH 9305  17.652   2.494   9.238 -0.0788  0.0976 -0.0889
  616ERGO    R1 9306  17.572   2.348   9.009 -0.2278  0.0948 -0.0379
  616ERGO    R2 9307  17.424   2.461   8.804 -0.0774  0.1886 -0.1061
  616ERGO    R3 9308  17.628   2.368   8.650 -0.1623 -0.1146 -0.0388
  616ERGO    R4 9309  17.389   2.337   8.483 -0.1701  0.0466 -0.0406
  616ERGO    R5 9310  17.534   2.182   8.532 -0.3431 -0.0777  0.0549
  616ERGO    C1 9311  17.560   2.178   8.152 -0.3039 -0.3208  0.0607
  616ERGO    C2 9312  17.595   2.255   7.827 -0.0454 -0.2045 -0.0134
  617ERGO   ROH 9313  16.664   7.269   9.625 -0.0826  0.1278 -0.0231
  617ERGO    R1 9314  16.557   7.402   9.399 -0.1643  0.0181 -0.0504
  617ERGO    R2 9315  16.711   7.470   9.180 -0.1866  0.1397 -0.0318
  617ERGO    R3 9316  16.520   7.332   9.044 -0.0433 -0.0414 -0.0507
  617ERGO    R4 9317  16.666   7.482   8.838 -0.0930 -0.0006 -0.0494
  617ERGO    R5 9318  16.450   7.482   8.871 -0.1019 -0.1484 -0.1178
  617ERGO    C1 9319  16.461   7.358   8.510  0.0961 -0.2524 -0.0771
  617ERGO    C2 9320  16.245   7.350   8.239 -0.1330 -0.1991 -0.0533
  618ERGO   ROH 9321   6.155   8.430   9.477  0.0349 -0.0068  0.0689
  618ERGO    R1 9322   6.110   8.561   9.230 -0.0693 -0.0768  0.0490
  618ERGO    R2 9323   6.299   8.570   9.030  0.0194  0.2462  0.1338
  618ERGO    R3 9324   6.099   8.466   8.878  0.2593 -0.0980  0.0440
  618ERGO    R4 9325   6.268   8.615   8.689  0.0409  0.2492  0.1329
  618ERGO    R5 9326   6.052   8.638   8.717 -0.0103 -0.1569  0.0638
  618ERGO    C1 9327   6.062   8.543   8.347  0.2785 -0.0722  0.0482
  618ERGO    C2 9328   6.140   8.476   8.006 -0.1251 -0.1303 -0.0952
  619ERGO   ROH 9329   7.742   8.430   9.466  0.3107 -0.0049  0.0594
  619ERGO    R1 9330   7.690   8.403   9.189  0.1533 -0.0192  0.0899
  619ERGO    R2 9331   7.434   8.413   9.084  0.0978  0.0159  0.2307
  619ERGO    R3 9332   7.541   8.607   8.927  0.0438 -0.0162  0.1531
  619ERGO    R4 9333   7.312   8.506   8.775  0.0749 -0.1495  0.1884
  619ERGO    R5 9334   7.517   8.523   8.704  0.0733 -0.1173  0.1861
  619ERGO    C1 9335   7.341   8.743   8.447  0.0109 -0.2759  0.0909
  619ERGO    C2 9336   7.130   8.833   8.271  0.2204  0.0219 -0.2611
  620ERGO   ROH 9337  11.692   6.061   9.568 -0.0775  0.0206  0.0652
  620ERGO    R1 9338  11.678   5.990   9.294  0.0194 -0.0827  0.0863
  620ERGO    R2 9339  11.658   6.177   9.092 -0.1391 -0.1672  0.0227
  620ERGO    R3 9340  11.877   6.049   8.995 -0.0050  0.0101  0.0875
  620ERGO    R4 9341  11.715   6.110   8.758 -0.2590 -0.5926  0.0826
  620ERGO    R5 9342  11.792   5.915   8.816  0.0738 -0.3980  0.3419
  620ERGO    C1 9343  11.954   5.951   8.473 -0.2030 -0.6739  0.1783
  620ERGO    C2 9344  12.098   5.787   8.235  0.2198 -0.0312 -0.0248
  621ERGO   ROH 9345  13.683   6.184   9.744  0.0554  0.2106  0.0781
  621ERGO    R1 9346  13.531   6.266   9.520  0.1951  0.1211 -0.0538
  621ERGO    R2 9347  13.630   6.261   9.262  0.2672 -0.2496 -0.0349
  621ERGO    R3 9348  13.408   6.113   9.213  0.1393 -0.0952  0.0780
  621ERGO    R4 9349  13.481   6.225   8.952  0.1191 -0.2275  0.0341
  621ERGO    R5 9350  13.287   6.240   9.050  0.1725 -0.0586  0.0937
  621ERGO    C1 9351  13.186   6.065   8.726 -0.0871 -0.0696  0.1805
  621ERGO    C2 9352  13.071   6.015   8.382 -0.0335 -0.1424 -0.1737
  622ERGO   ROH 9353  14.638   9.060   9.739  0.1409 -0.2482  0.0622
  622ERGO    R1 9354  14.785   9.200   9.542 -0.0360 -0.1473 -0.0006
  622ERGO    R2 9355  14.934   9.070   9.348  0.0678 -0.0467  0.0119
  622ERGO    R3 9356  14.785   9.222   9.179 -0.1196 -0.2468 -0.0073
  622ERGO    R4 9357  14.960   9.065   9.004  0.3569  0.2189  0.0251
  622ERGO    R5 9358  14.937   9.282   9.003 -0.0953  0.1812  0.1471
  622ERGO    C1 9359  14.836   9.204   8.644  0.3494  0.1857  0.0148
  622ERGO    C2 9360  14.723   9.069   8.341  0.0636 -0.0918 -0.2477
  623ERGO   ROH 9361   9.888  11.182   9.772  0.0345 -0.2074 -0.1215
  623ERGO    R1 9362   9.984  11.198   9.506 -0.0140 -0.2401 -0.1429
  623ERGO    R2 9363   9.951  10.993   9.323 -0.0910 -0.2471 -0.1314
  623ERGO    R3 9364   9.841  11.190   9.172 -0.0846 -0.2302 -0.1112
  623ERGO    R4 9365   9.924  10.986   8.979  0.0263 -0.1451 -0.1422
  623ERGO    R5 9366   9.977  11.197   8.975 -0.0240 -0.1364 -0.0615
  623ERGO    C1 9367   9.805  11.166   8.636  0.1004 -0.0699 -0.1296
  623ERGO    C2 9368   9.905  11.251   8.304  0.0443  0.3687  0.1125
  624ERGO   ROH 9369   2.861  12.610   9.642  0.0852  0.1753 -0.2501
  624ERGO    R1 9370   2.824  12.417   9.438  0.2312  0.1798 -0.2817
  624ERGO    R2 9371   2.574  12.337   9.353  0.2819 -0.2610 -0.0403
  624ERGO    R3 9372   2.670  12.407   9.108 -0.1087  0.0191 -0.1233
  624ERGO    R4 9373   2.420  12.263   9.052  0.1581 -0.5628  0.0933
  624ERGO    R5 9374   2.617  12.220   8.968  0.1928 -0.0869 -0.1044
  624ERGO    C1 9375   2.421  12.285   8.648 -0.2807 -0.4754  0.0932
  624ERGO    C2 9376   2.331  12.334   8.331 -0.3622 -0.1314  0.0110
  625ERGO   ROH 9377  10.568   7.129   9.687 -0.2003  0.0266 -0.0084
  625ERGO    R1 9378  10.525   6.996   9.441 -0.4187  0.0363  0.0216
  625ERGO    R2 9379  10.314   7.057   9.273 -0.1982  0.5122 -0.1039
  625ERGO    R3 9380  10.512   7.088   9.089 -0.0147 -0.0500 -0.0197
  625ERGO    R4 9381  10.280   7.000   8.934 -0.1480  0.4263 -0.0944
  625ERGO    R5 9382  10.478   6.910   8.934 -0.3570 -0.0511  0.0533
  625ERGO    C1 9383  10.447   6.996   8.564  0.0535 -0.1515 -0.0096
  625ERGO    C2 9384  10.538   7.003   8.277 -0.2211  0.2374 -0.1905
  626ERGO   ROH 9385   7.269   6.725   9.321 -0.2730 -0.2270  0.2364
  626ERGO    R1 9386   7.067   6.778   9.129 -0.2492 -0.0097  0.2685
  626ERGO    R2 9387   6.951   7.027   9.100  0.1427  0.1681  0.1619
  626ERGO    R3 9388   7.027   6.995   8.841  0.0183 -0.1059  0.1563
  626ERGO    R4 9389   6.829   7.211   8.834  0.4158  0.2682  0.1023
  626ERGO    R5 9390   6.825   7.029   8.715  0.0428  0.2084  0.1947
  626ERGO    C1 9391   6.828   7.289   8.436  0.4581  0.0693  0.0625
  626ERGO    C2 9392   6.558   7.415   8.185  0.3560  0.1051  0.1799
  627ERGO   ROH 9393  12.426   2.658   9.805  0.0020 -0.1426  0.1948
  627ERGO    R1 9394  12.511   2.777   9.563  0.0513 -0.0519  0.2562
  627ERGO    R2 9395  12.754   2.717   9.445 -0.0217 -0.1795  0.1657
  627ERGO    R3 9396  12.598   2.663   9.229 -0.1162  0.0952  0.1610
  627ERGO    R4 9397  12.867   2.705   9.119 -0.1028 -0.0766  0.1331
  627ERGO    R5 9398  12.684   2.806   9.057 -0.0255  0.1267  0.2333
  627ERGO    C1 9399  12.787   2.647   8.726 -0.2388  0.2412  0.1098
  627ERGO    C2 9400  12.783   2.645   8.413 -0.0136 -0.4592 -0.3211
  628ERGO   ROH 9401   3.245   9.322   9.239 -0.2871 -0.0040 -0.1338
  628ERGO    R1 9402   3.193   9.074   9.114  0.0395 -0.0558 -0.1778
  628ERGO    R2 9403   2.942   9.004   9.020  0.0968 -0.4164 -0.0855
  628ERGO    R3 9404   3.077   8.961   8.788  0.0675 -0.1424 -0.1571
  628ERGO    R4 9405   2.827   8.809   8.759  0.2453 -0.4379 -0.1356
  628ERGO    R5 9406   3.030   8.732   8.735  0.3320 -0.1768 -0.2474
  628ERGO    C1 9407   2.887   8.654   8.390  0.3042 -0.1931 -0.2319
  628ERGO    C2 9408   2.753   8.597   8.044 -0.0878  0.0478 -0.1357
  629ERGO   ROH 9409   8.435   4.150   9.711 -0.2185  0.0313  0.0293
  629ERGO    R1 9410   8.334   4.060   9.463 -0.0641  0.0442 -0.0381
  629ERGO    R2 9411   8.154   4.207   9.314 -0.0426  0.0039 -0.0906
  629ERGO    R3 9412   8.339   4.175   9.117  0.0584  0.1129 -0.0161
  629ERGO    R4 9413   8.081   4.145   8.982  0.1133 -0.2748 -0.0770
  629ERGO    R5 9414   8.247   4.004   8.977  0.2933 -0.0864  0.0541
  629ERGO    C1 9415   8.212   4.079   8.604  0.2990 -0.3346  0.0009
  629ERGO    C2 9416   8.261   4.087   8.195  0.0103 -0.0925  0.1240
  630ERGO   ROH 9417   2.671  14.229   9.782 -0.1694 -0.0463  0.0013
  630ERGO    R1 9418   2.692  14.293   9.507  0.1524  0.1706  0.0714
  630ERGO    R2 9419   2.471  14.337   9.347  0.3189 -0.0904 -0.2351
  630ERGO    R3 9420   2.598  14.571   9.292  0.0258  0.1643  0.1153
  630ERGO    R4 9421   2.376  14.561   9.102  0.3544 -0.1285 -0.2848
  630ERGO    R5 9422   2.586  14.591   9.054  0.4054  0.2592  0.0931
  630ERGO    C1 9423   2.439  14.911   8.907  0.0999  0.0885  0.0151
  630ERGO    C2 9424   2.493  14.991   8.678  0.1980  0.1127  0.0552
  631ERGO   ROH 9425   5.592   8.504   9.579  0.2223  0.0004 -0.0182
  631ERGO    R1 9426   5.610   8.369   9.331  0.1047 -0.0247 -0.0144
  631ERGO    R2 9427   5.427   8.407   9.128  0.0367 -0.0028  0.0451
  631ERGO    R3 9428   5.648   8.463   8.981 -0.0018 -0.0593 -0.0344
  631ERGO    R4 9429   5.434   8.428   8.783 -0.0920  0.0844  0.0473
  631ERGO    R5 9430   5.627   8.325   8.787 -0.1376  0.0039 -0.0611
  631ERGO    C1 9431   5.647   8.493   8.445 -0.2031  0.0822 -0.0260
  631ERGO    C2 9432   5.624   8.412   8.134  0.1743 -0.1924 -0.1457
  632ERGO   ROH 9433   4.357   6.042   9.687  0.0638 -0.0766  0.0674
  632ERGO    R1 9434   4.341   5.985   9.410 -0.0065  0.0198  0.0513
  632ERGO    R2 9435   4.292   6.180   9.221  0.1527  0.1212  0.1121
  632ERGO    R3 9436   4.520   6.083   9.109  0.0605 -0.0488  0.0689
  632ERGO    R4 9437   4.354   6.163   8.881  0.1083  0.1433  0.1026
  632ERGO    R5 9438   4.445   5.968   8.913 -0.0550  0.0577  0.0498
  632ERGO    C1 9439   4.604   6.061   8.578 -0.0042 -0.0034  0.0565
  632ERGO    C2 9440   4.715   5.966   8.179 -0.0262 -0.3053  0.4433
  633ERGO   ROH 9441   5.106   4.931   9.377 -0.0698 -0.1667  0.0740
  633ERGO    R1 9442   5.097   4.921   9.095 -0.0108 -0.1090  0.0695
  633ERGO    R2 9443   5.323   4.947   8.938  0.0066  0.0531  0.1158
  633ERGO    R3 9444   5.238   4.711   8.832  0.1578  0.0273  0.0499
  633ERGO    R4 9445   5.380   4.844   8.613 -0.1427  0.2908  0.0119
  633ERGO    R5 9446   5.176   4.765   8.607 -0.0702  0.0941  0.1271
  633ERGO    C1 9447   5.333   4.563   8.325 -0.0877  0.4049 -0.1106
  633ERGO    C2 9448   5.268   4.437   7.930  0.1005 -0.0258  0.0341
  634ERGO   ROH 9449   0.841  18.127   9.884  0.1858  0.2169  0.0991
  634ERGO    R1 9450   0.943  18.082   9.623  0.1423  0.2943  0.0674
  634ERGO    R2 9451   0.779  18.034   9.406  0.1076  0.2441  0.0976
  634ERGO    R3 9452   0.916  18.243   9.298 -0.0149  0.3224  0.0953
  634ERGO    R4 9453   0.789  18.111   9.069  0.3005  0.0796  0.0642
  634ERGO    R5 9454   1.000  18.158   9.091  0.2345  0.3004  0.2073
  634ERGO    C1 9455   0.922  18.352   8.772  0.2977  0.0572  0.0427
  634ERGO    C2 9456   0.960  18.463   8.449  0.1985  0.1229 -0.2088
  635ERGO   ROH 9457   3.298   6.837   9.377  0.0611 -0.2028 -0.0183
  635ERGO    R1 9458   3.112   6.839   9.163  0.0587 -0.1559 -0.0152
  635ERGO    R2 9459   3.183   6.909   8.905  0.0441 -0.0500  0.0115
  635ERGO    R3 9460   3.073   6.668   8.845  0.0826 -0.0458 -0.0789
  635ERGO    R4 9461   3.175   6.770   8.589 -0.2285  0.2241 -0.1086
  635ERGO    R5 9462   2.972   6.701   8.630 -0.1614  0.1030  0.0510
  635ERGO    C1 9463   3.068   6.462   8.348 -0.3512  0.3878 -0.2634
  635ERGO    C2 9464   3.129   6.327   8.091  0.0319 -0.0808  0.4306
  636ERGO   ROH 9465   8.391   6.485   9.347 -0.2375  0.1006 -0.0305
  636ERGO    R1 9466   8.491   6.378   9.105 -0.0559  0.0388  0.0697
  636ERGO    R2 9467   8.391   6.147   8.991 -0.0330  0.0589  0.0079
  636ERGO    R3 9468   8.359   6.306   8.773  0.2141  0.0449 -0.0419
  636ERGO    R4 9469   8.356   6.034   8.666 -0.1044  0.0163  0.0301
  636ERGO    R5 9470   8.483   6.198   8.601  0.1172 -0.1586  0.0133
  636ERGO    C1 9471   8.305   6.118   8.273  0.0859 -0.0217 -0.0037
  636ERGO    C2 9472   8.058   5.922   8.135  0.0662  0.1015 -0.2885
  637ERGO   ROH 9473   9.265   4.071   9.868 -0.0792 -0.0850  0.1312
  637ERGO    R1 9474   9.372   4.009   9.613  0.0104  0.0939  0.1238
  637ERGO    R2 9475   9.286   3.794   9.463  0.3416 -0.0417  0.1150
  637ERGO    R3 9476   9.245   3.983   9.273  0.0345 -0.0889  0.1290
  637ERGO    R4 9477   9.284   3.735   9.123  0.2477 -0.0437  0.1160
  637ERGO    R5 9478   9.392   3.921   9.095  0.0209  0.0800  0.0604
  637ERGO    C1 9479   9.244   3.878   8.746 -0.0953 -0.0891  0.1297
  637ERGO    C2 9480   9.138   3.680   8.546  0.2985  0.0659  0.0164
  638ERGO   ROH 9481   6.422  13.385   9.807  0.0830  0.0535 -0.1298
  638ERGO    R1 9482   6.287  13.507   9.590 -0.0387 -0.0103 -0.0909
  638ERGO    R2 9483   6.413  13.676   9.413 -0.2095  0.1936 -0.0243
  638ERGO    R3 9484   6.312  13.505   9.227 -0.0171  0.1503 -0.0904
  638ERGO    R4 9485   6.367  13.752   9.078 -0.1029  0.1980 -0.0381
  638ERGO    R5 9486   6.178  13.643   9.085 -0.0378  0.0798 -0.1377
  638ERGO    C1 9487   6.246  13.634   8.710  0.1397  0.1600 -0.1082
  638ERGO    C2 9488   6.182  13.665   8.451  0.0738  0.0639  0.1334
  639ERGO   ROH 9489   7.819   3.170   9.774 -0.3775  0.0441 -0.0972
  639ERGO    R1 9490   7.827   3.228   9.497 -0.3394  0.1059 -0.0857
  639ERGO    R2 9491   8.054   3.191   9.344 -0.2504  0.3188 -0.0331
  639ERGO    R3 9492   7.886   3.042   9.190 -0.0917  0.2071 -0.0972
  639ERGO    R4 9493   8.103   3.119   9.009  0.1874 -0.1343  0.1167
  639ERGO    R5 9494   7.890   3.150   8.976  0.2587 -0.0756 -0.2313
  639ERGO    C1 9495   7.974   2.939   8.670  0.5912 -0.5029  0.1437
  639ERGO    C2 9496   8.022   2.864   8.424  0.0368  0.3133  0.1086
  640ERGO   ROH 9497   5.138  13.842   9.636 -0.0654  0.0548  0.0938
  640ERGO    R1 9498   5.160  13.758   9.367  0.1677  0.0107  0.1249
  640ERGO    R2 9499   4.980  13.835   9.172  0.0855 -0.3663  0.0477
  640ERGO    R3 9500   5.204  13.917   9.043 -0.0162 -0.0028  0.0908
  640ERGO    R4 9501   5.028  13.819   8.830  0.2602 -0.5177  0.0775
  640ERGO    R5 9502   5.234  13.757   8.867  0.3805 -0.0802  0.2151
  640ERGO    C1 9503   5.268  13.887   8.510  0.2665 -0.2646  0.1354
  640ERGO    C2 9504   5.353  13.944   8.187  0.2406 -0.2538 -0.0172
  641ERGO   ROH 9505  12.290   4.719   9.743 -0.0423  0.4268 -0.1233
  641ERGO    R1 9506  12.150   4.598   9.528 -0.0480  0.3018 -0.0494
  641ERGO    R2 9507  11.918   4.705   9.423 -0.1421  0.1496  0.0054
  641ERGO    R3 9508  12.056   4.689   9.189 -0.2144  0.1738 -0.0396
  641ERGO    R4 9509  11.783   4.607   9.121 -0.2582  0.2497  0.0240
  641ERGO    R5 9510  11.966   4.496   9.080 -0.2922  0.2169 -0.0570
  641ERGO    C1 9511  11.833   4.535   8.725 -0.3937  0.3308 -0.0075
  641ERGO    C2 9512  11.932   4.499   8.419 -0.1485  0.2106 -0.0841
  642ERGO   ROH 9513  17.595   1.914   9.125  0.1042  0.3001 -0.1771
  642ERGO    R1 9514  17.607   1.901   8.843  0.2074  0.1051 -0.1660
  642ERGO    R2 9515  17.629   1.663   8.705 -0.0492 -0.0164 -0.0049
  642ERGO    R3 9516  17.408   1.755   8.576  0.1222  0.1971 -0.1534
  642ERGO    R4 9517  17.512   1.541   8.403 -0.1851 -0.1798  0.1120
  642ERGO    R5 9518  17.467   1.746   8.344  0.1598 -0.1686 -0.1359
  642ERGO    C1 9519  17.237   1.556   8.106 -0.1034 -0.0745  0.0405
  642ERGO    C2 9520  17.072   1.374   7.803  0.1486 -0.1705 -0.2241
  643ERGO   ROH 9521   8.063   8.100   9.343 -0.0280 -0.0265  0.0911
  643ERGO    R1 9522   8.061   8.114   9.060  0.0691 -0.1742  0.0823
  643ERGO    R2 9523   7.922   7.934   8.903 -0.2538  0.0090  0.1512
  643ERGO    R3 9524   7.810   8.159   8.799  0.2126  0.1830 -0.0000
  643ERGO    R4 9525   7.825   7.971   8.574 -0.5271 -0.1646  0.2079
  643ERGO    R5 9526   7.904   8.175   8.579  0.0198 -0.3442 -0.1365
  643ERGO    C1 9527   7.664   8.205   8.284 -0.2483 -0.1024  0.0988
  643ERGO    C2 9528   7.579   8.214   7.923  0.2610  0.1042  0.2554
  644ERGO   ROH 9529  11.375   2.963   9.792 -0.0532  0.0672 -0.0021
  644ERGO    R1 9530  11.480   2.822   9.570  0.0464  0.0554  0.0508
  644ERGO    R2 9531  11.319   2.686   9.391  0.1398 -0.1479  0.1111
  644ERGO    R3 9532  11.450   2.839   9.208  0.0116 -0.1161  0.0462
  644ERGO    R4 9533  11.305   2.639   9.049  0.1265 -0.2537  0.1265
  644ERGO    R5 9534  11.519   2.683   9.039  0.0917 -0.1152  0.0829
  644ERGO    C1 9535  11.420   2.755   8.678 -0.0016 -0.2854  0.0745
  644ERGO    C2 9536  11.473   2.704   8.334 -0.2236  0.1386  0.0125
  645ERGO   ROH 9537  18.239  14.072   9.854 -0.1010 -0.2611  0.1041
  645ERGO    R1 9538  18.333  14.101   9.589 -0.0482 -0.2733  0.1216
  645ERGO    R2 9539  18.186  14.021   9.369 -0.0819 -0.1176  0.0871
  645ERGO    R3 9540  18.227  14.277   9.288  0.1171 -0.1295  0.1462
  645ERGO    R4 9541  18.120  14.141   9.051 -0.0016  0.0099  0.1180
  645ERGO    R5 9542  18.305  14.257   9.063  0.0915 -0.1377  0.1378
  645ERGO    C1 9543  18.122  14.452   8.791  0.2319  0.0729  0.1916
  645ERGO    C2 9544  17.929  14.516   8.518 -0.3288  0.0662  0.0831
  646ERGO   ROH 9545   6.662  17.101  10.070  0.0083  0.1600  0.0076
  646ERGO    R1 9546   6.731  16.955   9.838  0.0013  0.1598  0.0046
  646ERGO    R2 9547   6.545  16.811   9.691  0.0265  0.0017  0.1152
  646ERGO    R3 9548   6.642  16.961   9.486 -0.1674  0.0320  0.0457
  646ERGO    R4 9549   6.543  16.717   9.359  0.1306 -0.1381  0.1535
  646ERGO    R5 9550   6.742  16.802   9.337  0.0215  0.0965  0.1087
  646ERGO    C1 9551   6.632  16.803   8.972  0.0092 -0.1908  0.1106
  646ERGO    C2 9552   6.505  16.771   8.707 -0.0481 -0.0492  0.0291
  647ERGO   ROH 9553  17.884   6.169   9.353 -0.1116  0.2405 -0.0274
  647ERGO    R1 9554  17.810   5.984   9.152 -0.0004  0.1231  0.0368
  647ERGO    R2 9555  17.568   5.999   9.018 -0.0330 -0.0970  0.0594
  647ERGO    R3 9556  17.727   5.998   8.798 -0.0561 -0.0416  0.0436
  647ERGO    R4 9557  17.456   5.965   8.693 -0.0474 -0.1520  0.0707
  647ERGO    R5 9558  17.627   5.837   8.653 -0.0035 -0.0834  0.0584
  647ERGO    C1 9559  17.541   5.945   8.297 -0.0774 -0.1321  0.0623
  647ERGO    C2 9560  17.297   6.096   8.091 -0.0297  0.5025  0.1814
  648ERGO   ROH 9561  10.250   5.747   9.723 -0.0734 -0.1260 -0.2019
  648ERGO    R1 9562  10.368   5.738   9.466 -0.0089 -0.0383 -0.1751
  648ERGO    R2 9563  10.259   5.595   9.256  0.0956 -0.0437 -0.2233
  648ERGO    R3 9564  10.273   5.834   9.128  0.0368 -0.0178 -0.1832
  648ERGO    R4 9565  10.275   5.635   8.913 -0.0340  0.0174 -0.2233
  648ERGO    R5 9566  10.420   5.794   8.943 -0.0278  0.0205 -0.2465
  648ERGO    C1 9567  10.297   5.883   8.593 -0.1646  0.0772 -0.1856
  648ERGO    C2 9568  10.214   6.051   8.230  0.1942 -0.0641 -0.2039
  649ERGO   ROH 9569   8.912  17.055   9.244 -0.0429 -0.1404  0.0208
  649ERGO    R1 9570   8.796  17.000   8.992  0.0546 -0.3010  0.0102
  649ERGO    R2 9571   8.800  17.182   8.784 -0.2651 -0.2533  0.0469
  649ERGO    R3 9572   8.912  16.975   8.647  0.1048 -0.0343  0.0047
  649ERGO    R4 9573   8.889  17.192   8.450 -0.5842 -0.1143 -0.0392
  649ERGO    R5 9574   8.814  16.988   8.429 -0.1317 -0.3133  0.0847
  649ERGO    C1 9575   9.047  17.004   8.128 -0.4227  0.1720 -0.1290
  649ERGO    C2 9576   9.216  16.919   7.894  0.0377  0.0995  0.0568
  650ERGO   ROH 9577   1.945   5.108   9.701  0.0539 -0.1815  0.0437
  650ERGO    R1 9578   2.055   5.032   9.452 -0.0194 -0.1196 -0.0077
  650ERGO    R2 9579   2.003   4.788   9.334  0.0462 -0.1407  0.0073
  650ERGO    R3 9580   1.928   4.942   9.123 -0.1211 -0.1691  0.0448
  650ERGO    R4 9581   2.042   4.701   9.002  0.3072  0.0554 -0.0162
  650ERGO    R5 9582   2.099   4.907   8.960 -0.0010  0.1682  0.0908
  650ERGO    C1 9583   1.995   4.795   8.610  0.3022  0.1428  0.0052
  650ERGO    C2 9584   1.879   4.824   8.306 -0.1767  0.3558  0.2151
  651ERGO   ROH 9585  16.160   9.802   9.955 -0.0914 -0.1191 -0.0793
  651ERGO    R1 9586  16.175   9.980   9.735 -0.1104 -0.0134  0.0033
  651ERGO    R2 9587  16.308   9.917   9.501  0.0947  0.1985  0.0527
  651ERGO    R3 9588  16.069   9.980   9.387  0.1048  0.0329 -0.0627
  651ERGO    R4 9589  16.263  10.000   9.168  0.2007  0.2269  0.0459
  651ERGO    R5 9590  16.121  10.154   9.231  0.0485  0.1023 -0.0005
  651ERGO    C1 9591  16.012  10.109   8.868  0.2723  0.0882 -0.0664
  651ERGO    C2 9592  15.896  10.238   8.585  0.0005 -0.2832 -0.0388
  652ERGO   ROH 9593  13.927   0.469   9.580  0.0657  0.3263 -0.0555
  652ERGO    R1 9594  13.718   0.451   9.389  0.1059  0.0748 -0.0812
  652ERGO    R2 9595  13.617   0.673   9.258 -0.2722 -0.0136  0.0411
  652ERGO    R3 9596  13.675   0.527   9.036  0.0051  0.2129 -0.0396
  652ERGO    R4 9597  13.531   0.761   8.935 -0.4399  0.0036  0.0904
  652ERGO    R5 9598  13.483   0.553   8.896 -0.0474 -0.0720 -0.0229
  652ERGO    C1 9599  13.536   0.676   8.539 -0.2773  0.2263  0.0433
  652ERGO    C2 9600  13.560   0.908   8.237  0.1624  0.0164  0.2388
  653ERGO   ROH 9601  11.190  14.500   9.969  0.2721 -0.0978  0.1042
  653ERGO    R1 9602  11.268  14.350   9.742  0.3049 -0.0344  0.0741
  653ERGO    R2 9603  11.127  14.354   9.504  0.2338 -0.1147  0.1175
  653ERGO    R3 9604  11.368  14.422   9.399  0.1594  0.0478  0.0474
  653ERGO    R4 9605  11.209  14.334   9.169  0.1426 -0.0499  0.0904
  653ERGO    R5 9606  11.406  14.260   9.227  0.2119  0.0756  0.0299
  653ERGO    C1 9607  11.484  14.386   8.876  0.0197  0.1405  0.0089
  653ERGO    C2 9608  11.412  14.348   8.530  0.0308  0.2490  0.1278
  654ERGO   ROH 9609   4.186   2.697   9.726  0.3262  0.1278  0.0111
  654ERGO    R1 9610   4.061   2.617   9.484  0.2487  0.1073  0.0577
  654ERGO    R2 9611   4.104   2.748   9.245  0.1768  0.0830  0.0321
  654ERGO    R3 9612   4.170   2.499   9.158  0.1434  0.0729  0.0347
  654ERGO    R4 9613   4.182   2.666   8.918  0.1013  0.0566  0.0203
  654ERGO    R5 9614   4.068   2.482   8.941  0.0952  0.0644  0.0575
  654ERGO    C1 9615   4.290   2.385   8.646  0.0260  0.0317  0.0157
  654ERGO    C2 9616   4.557   2.381   8.369  0.2967  0.0610  0.2216
  655ERGO   ROH 9617  15.742   5.746   9.705  0.0433 -0.0981  0.0761
  655ERGO    R1 9618  15.689   5.593   9.472 -0.2336 -0.0412  0.0987
  655ERGO    R2 9619  15.482   5.653   9.299 -0.0992  0.3427  0.0608
  655ERGO    R3 9620  15.680   5.652   9.113 -0.0678 -0.0894  0.0863
  655ERGO    R4 9621  15.438   5.722   8.963  0.0954  0.4599  0.0579
  655ERGO    R5 9622  15.577   5.561   8.917 -0.2506  0.1445  0.0690
  655ERGO    C1 9623  15.599   5.761   8.593  0.2380  0.1225  0.0800
  655ERGO    C2 9624  15.346   5.861   8.316 -0.0016 -0.2159 -0.1826
  656ERGO   ROH 9625   2.043  15.313   9.665 -0.0568  0.1529  0.1354
  656ERGO    R1 9626   1.912  15.236   9.427 -0.0597  0.1047  0.1530
  656ERGO    R2 9627   1.713  15.389   9.310  0.0475  0.1574  0.0418
  656ERGO    R3 9628   1.873  15.370   9.091  0.0737 -0.0461  0.0756
  656ERGO    R4 9629   1.629  15.501   8.994  0.1721  0.0711 -0.0230
  656ERGO    R5 9630   1.722  15.322   8.911  0.0705 -0.0293  0.0723
  656ERGO    C1 9631   1.730  15.548   8.604  0.2692 -0.1700 -0.0293
  656ERGO    C2 9632   1.832  15.656   8.338  0.1132  0.0764  0.1535
  657ERGO   ROH 9633   0.896   5.917   9.347  0.3921  0.1960  0.1877
  657ERGO    R1 9634   0.875   6.094   9.128  0.0828  0.1822  0.2005
  657ERGO    R2 9635   0.975   6.033   8.878  0.3401  0.4343  0.2344
  657ERGO    R3 9636   0.722   6.090   8.798  0.2310 -0.1366  0.1323
  657ERGO    R4 9637   0.887   6.132   8.559  0.2615  0.3724  0.2367
  657ERGO    R5 9638   0.747   6.275   8.647 -0.1349  0.0029  0.2330
  657ERGO    C1 9639   0.598   6.243   8.297  0.1133 -0.1996  0.1423
  657ERGO    C2 9640   0.681   6.169   7.986  0.3542 -0.0777  0.3842
  658ERGO   ROH 9641   2.919  18.173   9.721  0.0584 -0.2036  0.0900
  658ERGO    R1 9642   2.925  18.038   9.472 -0.1909 -0.0752  0.0110
  658ERGO    R2 9643   2.772  18.118   9.256 -0.0672  0.3209  0.0601
  658ERGO    R3 9644   3.012  18.122   9.128 -0.0598 -0.0273  0.0559
  658ERGO    R4 9645   2.818  18.062   8.918 -0.1597  0.3139  0.0488
  658ERGO    R5 9646   2.996  17.947   8.966 -0.3343  0.0259  0.0228
  658ERGO    C1 9647   3.070  18.032   8.601 -0.2066 -0.0171  0.0382
  658ERGO    C2 9648   3.153  18.114   8.361 -0.2811  0.0437  0.0605
  659ERGO   ROH 9649   8.829  11.118   9.637  0.1205 -0.0686 -0.0237
  659ERGO    R1 9650   8.710  11.203   9.395  0.0370 -0.2204 -0.0369
  659ERGO    R2 9651   8.857  11.258   9.167 -0.0121 -0.0920 -0.0371
  659ERGO    R3 9652   8.686  11.079   9.054  0.1759 -0.2851 -0.0239
  659ERGO    R4 9653   8.846  11.183   8.830  0.0062 -0.0621 -0.0449
  659ERGO    R5 9654   8.628  11.179   8.844  0.0107 -0.3259  0.0010
  659ERGO    C1 9655   8.679  10.972   8.527  0.1931 -0.2261 -0.0369
  659ERGO    C2 9656   8.676  10.820   8.240  0.2086 -0.2371 -0.1794
  660ERGO   ROH 9657   8.525   1.797  10.023 -0.0735 -0.1735  0.0313
  660ERGO    R1 9658   8.576   1.708   9.759 -0.0701 -0.1913  0.0388
  660ERGO    R2 9659   8.399   1.549   9.619 -0.1837  0.0093 -0.0417
  660ERGO    R3 9660   8.419   1.747   9.433  0.0844  0.0120 -0.0151
  660ERGO    R4 9661   8.342   1.508   9.280 -0.2502  0.1264 -0.0459
  660ERGO    R5 9662   8.513   1.638   9.241 -0.0657 -0.0980 -0.0319
  660ERGO    C1 9663   8.328   1.670   8.909 -0.0372  0.1972 -0.0233
  660ERGO    C2 9664   8.264   1.480   8.613  0.0503  0.0668  0.0195
  661ERGO   ROH 9665   0.114   7.104   9.440  0.0222 -0.1767  0.0020
  661ERGO    R1 9666  -0.131   7.150   9.307 -0.0485  0.1479  0.2341
  661ERGO    R2 9667  -0.218   7.403   9.239  0.4391  0.2425 -0.0744
  661ERGO    R3 9668  -0.238   7.295   8.990 -0.1112 -0.1436  0.1175
  661ERGO    R4 9669  -0.397   7.542   8.978  0.5528  0.3073 -0.1183
  661ERGO    R5 9670  -0.464   7.341   8.924 -0.0706  0.3743  0.2864
  661ERGO    C1 9671  -0.520   7.522   8.592  0.1022 -0.0173  0.0363
  661ERGO    C2 9672  -0.512   7.818   8.288 -0.1344  0.4189 -0.0053
  662ERGO   ROH 9673  17.447   0.315   9.795 -0.0644 -0.1706  0.0725
  662ERGO    R1 9674  17.528   0.357   9.527 -0.2565 -0.1337  0.0191
  662ERGO    R2 9675  17.785   0.304   9.440 -0.2561  0.1050 -0.1141
  662ERGO    R3 9676  17.657   0.153   9.254 -0.2086 -0.0518 -0.0226
  662ERGO    R4 9677  17.922   0.205   9.139 -0.2838  0.1422 -0.1398
  662ERGO    R5 9678  17.729   0.243   9.044 -0.3613 -0.0401 -0.0766
  662ERGO    C1 9679  17.881   0.004   8.789 -0.2554  0.0167 -0.0687
  662ERGO    C2 9680  18.049  -0.113   8.497  0.1674 -0.1251  0.2108
  663ERGO   ROH 9681  10.615  13.248  10.049 -0.3761 -0.1245 -0.0906
  663ERGO    R1 9682  10.583  13.232   9.768 -0.1819 -0.0829 -0.1173
  663ERGO    R2 9683  10.585  13.455   9.605 -0.3297 -0.0299 -0.0530
  663ERGO    R3 9684  10.779  13.317   9.474 -0.0882  0.2231  0.0303
  663ERGO    R4 9685  10.715  13.542   9.297 -0.3428  0.1081 -0.0198
  663ERGO    R5 9686  10.716  13.331   9.243 -0.0273  0.1014  0.0081
  663ERGO    C1 9687  10.973  13.464   8.995 -0.1236  0.4257  0.0776
  663ERGO    C2 9688  11.076  13.461   8.589 -0.0469  0.0018  0.1572
  664ERGO   ROH 9689  13.742  16.598   9.871 -0.0992 -0.2581 -0.1217
  664ERGO    R1 9690  13.691  16.655   9.599 -0.0429 -0.3139 -0.1453
  664ERGO    R2 9691  13.783  16.884   9.475 -0.2705 -0.1878 -0.0946
  664ERGO    R3 9692  13.888  16.707   9.298  0.0396 -0.0547 -0.0480
  664ERGO    R4 9693  13.890  16.964   9.156 -0.1182 -0.0335 -0.0054
  664ERGO    R5 9694  13.802  16.777   9.085  0.1233 -0.1118 -0.0992
  664ERGO    C1 9695  14.051  16.845   8.804  0.2615  0.1818  0.0901
  664ERGO    C2 9696  14.023  16.958   8.492 -0.2413 -0.0408 -0.1711
  665ERGO   ROH 9697  11.913   7.480   9.683  0.0292  0.0216  0.0594
  665ERGO    R1 9698  11.929   7.416   9.407  0.0376 -0.1164  0.0891
  665ERGO    R2 9699  11.743   7.505   9.223 -0.0411 -0.3222  0.0522
  665ERGO    R3 9700  11.963   7.600   9.095 -0.1065 -0.2567 -0.0078
  665ERGO    R4 9701  11.769   7.552   8.881 -0.0761 -0.4704  0.0300
  665ERGO    R5 9702  11.972   7.475   8.891 -0.0391 -0.3432  0.0558
  665ERGO    C1 9703  11.991   7.669   8.563 -0.1578 -0.4954 -0.0391
  665ERGO    C2 9704  11.930   7.917   8.386 -0.2574  0.0940 -0.3313
  666ERGO   ROH 9705  11.419  10.008   9.663  0.1570  0.2369  0.1394
  666ERGO    R1 9706  11.365   9.992   9.386  0.0170  0.0837  0.1747
  666ERGO    R2 9707  11.432  10.193   9.209 -0.0937 -0.0048  0.0344
  666ERGO    R3 9708  11.560   9.992   9.078 -0.1409 -0.0602  0.0717
  666ERGO    R4 9709  11.549  10.212   8.884  0.2141  0.0334  0.1431
  666ERGO    R5 9710  11.480  10.007   8.853  0.0702  0.0981  0.0013
  666ERGO    C1 9711  11.737  10.033   8.572  0.3490  0.0037  0.2413
  666ERGO    C2 9712  11.834   9.964   8.208  0.2686  0.1597 -0.0637
  667ERGO   ROH 9713   4.772  10.442   9.415 -0.0378 -0.0276  0.0490
  667ERGO    R1 9714   4.583  10.400   9.209 -0.0114  0.0948 -0.0005
  667ERGO    R2 9715   4.609  10.513   8.957  0.1359  0.0662  0.0031
  667ERGO    R3 9716   4.584  10.256   8.875 -0.0220  0.0791  0.0056
  667ERGO    R4 9717   4.506  10.415   8.643  0.2148  0.1335 -0.0444
  667ERGO    R5 9718   4.391  10.255   8.735  0.0438  0.2244 -0.0913
  667ERGO    C1 9719   4.423  10.115   8.382  0.1125  0.1846 -0.0697
  667ERGO    C2 9720   4.535  10.135   8.147 -0.3344 -0.1155  0.0183
  668ERGO   ROH 9721   6.613   9.778   9.421 -0.0044 -0.1225 -0.0297
  668ERGO    R1 9722   6.585   9.899   9.167 -0.0180 -0.0686 -0.0026
  668ERGO    R2 9723   6.682  10.152   9.111 -0.1768  0.0151  0.0969
  668ERGO    R3 9724   6.808  10.024   8.907 -0.0313  0.1611  0.0927
  668ERGO    R4 9725   6.737  10.287   8.798 -0.4820  0.0337  0.0481
  668ERGO    R5 9726   6.688  10.093   8.711 -0.2029 -0.0711  0.1098
  668ERGO    C1 9727   6.888  10.245   8.424 -0.5231  0.1816  0.0157
  668ERGO    C2 9728   6.846  10.572   8.226  0.0596  0.1816  0.2005
  669ERGO   ROH 9729   3.469   4.612   9.588  0.0235 -0.3232  0.0614
  669ERGO    R1 9730   3.458   4.696   9.317  0.0585 -0.2031  0.0962
  669ERGO    R2 9731   3.631   4.599   9.125  0.0842 -0.1210  0.0711
  669ERGO    R3 9732   3.399   4.540   8.994  0.0976 -0.0620  0.0219
  669ERGO    R4 9733   3.602   4.557   8.783  0.1067  0.0317  0.0502
  669ERGO    R5 9734   3.413   4.665   8.790  0.1111  0.0256  0.0807
  669ERGO    C1 9735   3.369   4.477   8.461  0.1324  0.1760 -0.0084
  669ERGO    C2 9736   3.366   4.553   8.146 -0.0143 -0.0730  0.2991
  670ERGO   ROH 9737   7.930  10.533   9.503 -0.3495  0.3667  0.1487
  670ERGO    R1 9738   7.776  10.479   9.272 -0.1151  0.0492  0.0606
  670ERGO    R2 9739   7.719  10.671   9.082 -0.2883 -0.0995 -0.0372
  670ERGO    R3 9740   7.827  10.489   8.912  0.1089  0.0066  0.0885
  670ERGO    R4 9741   7.734  10.706   8.739 -0.2369 -0.2337 -0.0494
  670ERGO    R5 9742   7.684  10.495   8.720  0.1540 -0.3461  0.0335
  670ERGO    C1 9743   7.844  10.555   8.379  0.1660 -0.2123  0.0612
  670ERGO    C2 9744   7.908  10.755   8.108 -0.0047 -0.1614  0.1588
  671ERGO   ROH 9745   6.217   9.584   9.320  0.0721  0.3507 -0.1094
  671ERGO    R1 9746   6.269   9.500   9.055 -0.1032  0.1733 -0.0885
  671ERGO    R2 9747   6.177   9.639   8.834  0.0501  0.2238 -0.1180
  671ERGO    R3 9748   6.439   9.635   8.763  0.0360 -0.1825 -0.1779
  671ERGO    R4 9749   6.301   9.749   8.531  0.1627  0.0895 -0.1236
  671ERGO    R5 9750   6.437   9.579   8.530 -0.1068 -0.1338 -0.1897
  671ERGO    C1 9751   6.619   9.811   8.288  0.2150 -0.3702 -0.1831
  671ERGO    C2 9752   6.697   9.829   7.911  0.0057 -0.1970 -0.3860
  672ERGO   ROH 9753   0.824   4.024   9.513  0.1297  0.0156 -0.0561
  672ERGO    R1 9754   1.013   4.016   9.302  0.1153 -0.1477 -0.0641
  672ERGO    R2 9755   0.954   3.913   9.053 -0.0270  0.0247 -0.1011
  672ERGO    R3 9756   1.042   4.156   8.968  0.2868 -0.0533 -0.0121
  672ERGO    R4 9757   1.108   3.972   8.749 -0.0555 -0.0535 -0.1307
  672ERGO    R5 9758   1.245   4.107   8.850  0.1805 -0.2922 -0.1105
  672ERGO    C1 9759   1.280   4.234   8.492  0.2225 -0.1722 -0.0645
  672ERGO    C2 9760   1.218   4.390   8.210  0.0712  0.2099  0.3187
  673ERGO   ROH 9761   6.977   3.631   9.797 -0.3449  0.2879 -0.1909
  673ERGO    R1 9762   6.947   3.447   9.584 -0.3940  0.2380 -0.1406
  673ERGO    R2 9763   6.792   3.500   9.361 -0.2323  0.2950 -0.2382
  673ERGO    R3 9764   7.021   3.440   9.228 -0.2139  0.0471 -0.1023
  673ERGO    R4 9765   6.808   3.413   9.028 -0.1225  0.4102 -0.2643
  673ERGO    R5 9766   6.958   3.263   9.079 -0.3512  0.1863 -0.2172
  673ERGO    C1 9767   7.032   3.305   8.707 -0.0412  0.2445 -0.1518
  673ERGO    C2 9768   7.093   3.206   8.398 -0.0954  0.2142 -0.0031
  674ERGO   ROH 9769   9.234   6.805   9.563  0.1007 -0.1006  0.0578
  674ERGO    R1 9770   9.390   6.758   9.332  0.0753 -0.2157  0.0646
  674ERGO    R2 9771   9.361   6.532   9.176 -0.2786 -0.0679 -0.0872
  674ERGO    R3 9772   9.328   6.713   8.976  0.0766  0.1226  0.0168
  674ERGO    R4 9773   9.463   6.487   8.849 -0.4323 -0.1230 -0.1295
  674ERGO    R5 9774   9.528   6.695   8.845  0.0256 -0.2465 -0.0262
  674ERGO    C1 9775   9.492   6.631   8.471 -0.1883  0.0239 -0.0564
  674ERGO    C2 9776   9.188   6.584   8.147  0.0977 -0.1053 -0.0431
  675loPI    C1 9777   0.725  14.990   5.493  0.1363  0.2256 -0.1901
  675loPI    C2 9778   0.328  14.951   5.522  0.1581  0.1467  0.0270
  675loPI    C3 9779   0.485  15.236   5.289 -0.0255  0.1941 -0.0406
  675loPI   PO4 9780   0.818  14.933   5.720 -0.0335  0.1187  0.0877
  675loPI   GL1 9781   0.683  14.823   6.021 -0.0077  0.2155 -0.2408
  675loPI   GL2 9782   0.392  14.676   5.918  0.0683 -0.0117 -0.0430
  675loPI   C1A 9783   0.745  14.565   6.331  0.4312 -0.1124 -0.2860
  675loPI   C2A 9784   0.809  14.450   6.804  0.2379 -0.0682  0.3784
  675loPI   C3A 9785   0.708  14.466   7.323  0.0241 -0.3243 -0.1792
  675loPI   C4A 9786   1.062  14.391   7.642 -0.2024  0.3117  0.1951
  675loPI   C5A 9787   1.061  14.398   8.020 -0.3455  0.1187 -0.0402
  675loPI   C6A 9788   1.132  14.519   8.497  0.0234 -0.0166  0.1261
  675loPI   C1B 9789   0.217  14.528   6.312  0.2271  0.2564  0.0024
  675loPI   C2B 9790   0.258  14.624   6.762  0.0288 -0.1903  0.1569
  675loPI   C3B 9791   0.300  14.590   7.111 -0.0355  0.1108 -0.2755
  675loPI   C4B 9792   0.399  14.912   7.480 -0.2731 -0.0646  0.1479
  676loPI    C1 9793  15.623   9.142   5.258 -0.0170  0.0070  0.0856
  676loPI    C2 9794  15.655   8.951   4.908  0.2022  0.2440 -0.0264
  676loPI    C3 9795  15.513   9.325   4.920  0.3601  0.3005  0.1157
  676loPI   PO4 9796  15.549   8.975   5.407  0.2589 -0.3949  0.0546
  676loPI   GL1 9797  15.723   8.746   5.808 -0.6603 -0.0436 -0.4297
  676loPI   GL2 9798  15.793   8.959   6.114 -0.3371  0.1292  0.2271
  676loPI   C1A 9799  15.462   8.468   6.026 -0.0839 -0.2408  0.0036
  676loPI   C2A 9800  15.278   8.616   6.508  0.0889  0.2312  0.1571
  676loPI   C3A 9801  15.141   8.405   6.799 -0.0303  0.2011  0.1091
  676loPI   C4A 9802  15.391   8.238   7.228  0.2154  0.3178 -0.1660
  676loPI   C5A 9803  15.129   8.101   7.503  0.2191 -0.0113 -0.1539
  676loPI   C6A 9804  14.936   8.292   7.895  0.2517 -0.0718 -0.1849
  676loPI   C1B 9805  15.819   8.894   6.437 -0.0810 -0.0490  0.0075
  676loPI   C2B 9806  15.833   8.726   6.764  0.0208 -0.1552 -0.1841
  676loPI   C3B 9807  15.469   8.789   7.042  0.0241 -0.1778 -0.3254
  676loPI   C4B 9808  15.472   8.927   7.353  0.4049  0.0512 -0.4053
  677loPI    C1 9809   3.128  16.718   5.274 -0.0041 -0.1693 -0.0423
  677loPI    C2 9810   3.185  17.006   5.545 -0.1577  0.0546 -0.2434
  677loPI    C3 9811   3.499  16.838   5.363 -0.0768  0.2874 -0.3223
  677loPI   PO4 9812   2.853  16.588   5.389  0.0716 -0.0209 -0.0894
  677loPI   GL1 9813   3.026  16.471   5.775  0.0825  0.0669  0.3177
  677loPI   GL2 9814   3.342  16.500   5.745  0.1972 -0.1071 -0.0746
  677loPI   C1A 9815   3.066  16.860   6.017 -0.1114 -0.1164  0.0931
  677loPI   C2A 9816   3.213  17.061   6.451 -0.0974  0.1484 -0.0145
  677loPI   C3A 9817   3.238  17.062   6.921  0.0754  0.0026 -0.2915
  677loPI   C4A 9818   3.479  17.158   7.263 -0.2317 -0.3162  0.1474
  677loPI   C5A 9819   3.487  16.919   7.749  0.2000 -0.1540 -0.0432
  677loPI   C6A 9820   3.320  16.536   7.946 -0.0068 -0.0294  0.0296
  677loPI   C1B 9821   3.487  16.522   6.104 -0.4713 -0.3082 -0.2256
  677loPI   C2B 9822   3.404  16.584   6.591 -0.0708  0.2127  0.3322
  677loPI   C3B 9823   3.248  16.406   6.982 -0.0693  0.0190 -0.2308
  677loPI   C4B 9824   2.892  16.227   7.247 -0.1814 -0.1273 -0.2438
  678loPI    C1 9825  13.224  10.807   4.951 -0.2226 -0.1510 -0.2508
  678loPI    C2 9826  13.498  10.737   4.668  0.2016  0.2353  0.0495
  678loPI    C3 9827  13.162  10.934   4.577  0.0638 -0.1467 -0.2991
  678loPI   PO4 9828  13.275  10.966   5.113 -0.0181 -0.4143  0.1838
  678loPI   GL1 9829  13.161  11.207   5.391 -0.1889  0.0333 -0.1950
  678loPI   GL2 9830  12.941  11.350   5.387 -0.0054  0.2541  0.2402
  678loPI   C1A 9831  13.419  11.171   5.787  0.1752 -0.0567 -0.0616
  678loPI   C2A 9832  13.287  11.089   6.193 -0.2324  0.0119  0.0868
  678loPI   C3A 9833  13.288  11.190   6.659 -0.0125 -0.2564  0.1577
  678loPI   C4A 9834  13.325  11.081   6.974 -0.2062 -0.1974 -0.1698
  678loPI   C5A 9835  13.084  10.934   7.178 -0.0078  0.1713  0.2116
  678loPI   C6A 9836  12.773  11.036   7.568 -0.1655  0.0116 -0.2663
  678loPI   C1B 9837  12.836  11.402   5.951 -0.1909  0.1612  0.0265
  678loPI   C2B 9838  12.811  11.371   6.450 -0.0197 -0.1159  0.0316
  678loPI   C3B 9839  12.824  11.342   6.819 -0.2915 -0.0858 -0.0663
  678loPI   C4B 9840  12.833  11.347   7.224  0.0379  0.0041 -0.0423
  679loPI    C1 9841  10.741  18.372   5.159  0.0497 -0.0366  0.1517
  679loPI    C2 9842  11.134  18.412   5.100  0.0048  0.1068 -0.0647
  679loPI    C3 9843  10.894  18.323   4.793 -0.1232 -0.0619  0.0817
  679loPI   PO4 9844  10.700  18.260   5.324 -0.0283 -0.0868  0.1198
  679loPI   GL1 9845  10.706  18.033   5.675 -0.0124 -0.1195 -0.2368
  679loPI   GL2 9846  10.262  17.953   5.743  0.0825  0.0614  0.1902
  679loPI   C1A 9847  10.609  18.159   6.013  0.1175 -0.1313  0.0757
  679loPI   C2A 9848  10.348  18.126   6.286 -0.0008 -0.3691 -0.1506
  679loPI   C3A 9849  10.303  18.031   6.711 -0.2479 -0.1923 -0.1378
  679loPI   C4A 9850  10.474  17.820   7.028 -0.0131  0.2012  0.4248
  679loPI   C5A 9851  10.284  17.837   7.386  0.1736 -0.0945  0.1112
  679loPI   C6A 9852  10.271  18.102   7.746 -0.0669  0.0883  0.1017
  679loPI   C1B 9853  10.470  17.651   6.076  0.1700 -0.2604  0.3288
  679loPI   C2B 9854  10.684  17.669   6.496 -0.2896  0.0168 -0.0496
  679loPI   C3B 9855  10.910  17.887   6.861 -0.2551  0.0596 -0.2811
  679loPI   C4B 9856  11.088  18.124   7.218 -0.2411  0.0648  0.3915
  680loPI    C1 9857  10.729  11.343   4.785 -0.0369  0.3205  0.0110
  680loPI    C2 9858  11.099  11.386   4.640  0.0211 -0.0242  0.0467
  680loPI    C3 9859  10.793  11.318   4.391  0.0355 -0.0782  0.0436
  680loPI   PO4 9860  10.811  11.365   5.054 -0.0575  0.0473 -0.1056
  680loPI   GL1 9861  10.653  11.422   5.446  0.2907 -0.3278  0.3190
  680loPI   GL2 9862  10.502  11.207   5.528  0.0754 -0.1396  0.0631
  680loPI   C1A 9863  10.651  11.687   5.791 -0.0290 -0.0278 -0.0624
  680loPI   C2A 9864  10.729  11.752   6.209 -0.0077  0.1992 -0.2479
  680loPI   C3A 9865  10.642  11.648   6.625  0.1856 -0.0096 -0.0638
  680loPI   C4A 9866  10.627  11.602   7.051  0.1279  0.2108  0.1305
  680loPI   C5A 9867  10.897  11.715   7.353 -0.0171 -0.1164  0.1874
  680loPI   C6A 9868  10.830  11.934   7.748  0.0576  0.2923  0.5803
  680loPI   C1B 9869  10.276  11.281   5.936 -0.0505 -0.0306  0.1554
  680loPI   C2B 9870   9.859  11.354   6.175 -0.0457  0.2867  0.2716
  680loPI   C3B 9871   9.728  11.538   6.544 -0.0604  0.3077  0.0882
  680loPI   C4B 9872   9.654  11.424   6.987  0.0100  0.0576  0.1360
  681loPI    C1 9873  14.016   5.048   5.455 -0.2358 -0.2482 -0.0844
  681loPI    C2 9874  13.813   5.391   5.492  0.1882 -0.0190  0.1987
  681loPI    C3 9875  13.967   5.287   5.138 -0.0446  0.0198  0.0841
  681loPI   PO4 9876  13.980   4.935   5.617 -0.3064 -0.0244 -0.1587
  681loPI   GL1 9877  13.783   4.764   5.958 -0.2334  0.0001  0.1166
  681loPI   GL2 9878  13.537   4.820   6.146  0.0042  0.1393 -0.1526
  681loPI   C1A 9879  14.055   4.833   6.265  0.0297 -0.0194  0.0747
  681loPI   C2A 9880  14.062   4.608   6.602 -0.2375 -0.0051  0.1612
  681loPI   C3A 9881  14.107   4.857   6.985 -0.2413  0.2221  0.0013
  681loPI   C4A 9882  13.998   4.872   7.379  0.0568 -0.0230 -0.1127
  681loPI   C5A 9883  13.681   4.946   7.709 -0.1099  0.0501 -0.0739
  681loPI   C6A 9884  13.329   4.799   7.908  0.1891 -0.0778  0.3413
  681loPI   C1B 9885  13.518   4.701   6.524 -0.0314  0.1630 -0.2375
  681loPI   C2B 9886  13.581   4.679   6.976 -0.0842  0.2070 -0.0196
  681loPI   C3B 9887  13.476   4.609   7.415 -0.2397 -0.2822 -0.3237
  681loPI   C4B 9888  13.486   4.348   7.729  0.3884  0.1300  0.2357
  682loPI    C1 9889   3.825   9.721   5.480 -0.0571  0.0538 -0.0558
  682loPI    C2 9890   3.756   9.524   5.139  0.1075 -0.1406  0.0205
  682loPI    C3 9891   3.998   9.843   5.141  0.0894 -0.1263 -0.0478
  682loPI   PO4 9892   3.927   9.491   5.649  0.1783 -0.1872 -0.2460
  682loPI   GL1 9893   3.717   9.163   5.918  0.0970 -0.2021  0.0670
  682loPI   GL2 9894   3.602   8.836   5.792  0.1760  0.0380  0.0434
  682loPI   C1A 9895   3.894   9.017   6.299  0.1706  0.1172 -0.2282
  682loPI   C2A 9896   4.081   8.856   6.616 -0.1226 -0.1293 -0.4717
  682loPI   C3A 9897   4.187   8.503   6.898  0.0404  0.0940 -0.1829
  682loPI   C4A 9898   4.065   8.513   7.284  0.0263 -0.2393 -0.1013
  682loPI   C5A 9899   4.072   8.652   7.724  0.1176  0.4646  0.1091
  682loPI   C6A 9900   3.723   8.824   7.922  0.0192 -0.1012 -0.1681
  682loPI   C1B 9901   3.695   8.540   6.116 -0.0341  0.1200 -0.1648
  682loPI   C2B 9902   3.681   8.233   6.526  0.2418 -0.1298  0.0266
  682loPI   C3B 9903   3.764   8.234   6.953 -0.1250  0.1658  0.1966
  682loPI   C4B 9904   3.766   8.111   7.369  0.0962 -0.0053 -0.1758
  683loPI    C1 9905   2.731  14.983   5.095  0.2255  0.1733  0.0868
  683loPI    C2 9906   2.962  14.855   4.795  0.3233 -0.0686  0.2616
  683loPI    C3 9907   2.578  14.745   4.813  0.2128  0.2611  0.0194
  683loPI   PO4 9908   2.953  15.132   5.356  0.0850 -0.0557  0.2511
  683loPI   GL1 9909   3.019  15.135   5.779  0.0854  0.1149 -0.1678
  683loPI   GL2 9910   2.983  14.756   5.854 -0.0721  0.2553  0.1704
  683loPI   C1A 9911   2.935  15.046   6.239  0.0270  0.0684 -0.1353
  683loPI   C2A 9912   2.883  14.817   6.506  0.1461 -0.2160  0.1943
  683loPI   C3A 9913   2.793  14.831   6.948  0.1348  0.0495  0.1283
  683loPI   C4A 9914   2.674  14.664   7.377 -0.3253 -0.2052 -0.1046
  683loPI   C5A 9915   2.636  14.212   7.553  0.3768 -0.1296  0.1389
  683loPI   C6A 9916   2.399  13.876   7.694 -0.1173 -0.0120 -0.1210
  683loPI   C1B 9917   2.543  14.797   6.064 -0.2779  0.1090 -0.2682
  683loPI   C2B 9918   2.376  14.633   6.356  0.0220  0.0560 -0.0488
  683loPI   C3B 9919   2.314  14.493   6.842  0.1039  0.0768  0.1025
  683loPI   C4B 9920   2.289  14.380   7.223  0.1666  0.0180  0.0826
  684loPI    C1 9921   7.802  15.362   5.328 -0.0416  0.1136 -0.2080
  684loPI    C2 9922   7.720  15.069   5.068 -0.1652  0.1380 -0.1971
  684loPI    C3 9923   7.855  15.422   4.937  0.0165  0.0654 -0.2076
  684loPI   PO4 9924   7.976  15.234   5.473 -0.0612  0.0448 -0.3593
  684loPI   GL1 9925   7.795  15.148   5.795  0.1878 -0.0374  0.2193
  684loPI   GL2 9926   8.003  15.344   6.044 -0.2025  0.2460  0.1764
  684loPI   C1A 9927   7.643  14.988   6.121  0.2011 -0.1397 -0.0500
  684loPI   C2A 9928   7.827  14.958   6.496 -0.1257  0.1566 -0.2161
  684loPI   C3A 9929   7.798  14.827   6.926 -0.0462  0.1337  0.3162
  684loPI   C4A 9930   7.735  14.840   7.363  0.1052  0.1635  0.3262
  684loPI   C5A 9931   7.846  15.196   7.466 -0.1425  0.0845  0.1550
  684loPI   C6A 9932   7.781  15.580   7.617 -0.0098  0.0069 -0.3285
  684loPI   C1B 9933   7.790  15.483   6.429  0.0573 -0.0886  0.1973
  684loPI   C2B 9934   7.463  15.727   6.793  0.2355  0.0324 -0.2741
  684loPI   C3B 9935   7.424  15.761   7.265  0.0330 -0.1805 -0.0406
  684loPI   C4B 9936   7.603  16.044   7.674 -0.1035  0.2668  0.1114
  685loPI    C1 9937  10.860   4.446   5.020 -0.0582 -0.0312 -0.1296
  685loPI    C2 9938  10.508   4.602   4.911  0.0416  0.2973  0.0046
  685loPI    C3 9939  10.736   4.413   4.642 -0.2457  0.0610 -0.0777
  685loPI   PO4 9940  10.957   4.385   5.228  0.1432 -0.1320  0.0862
  685loPI   GL1 9941  10.905   4.374   5.664 -0.0670  0.0201  0.0088
  685loPI   GL2 9942  10.695   4.662   5.629 -0.2466  0.0571 -0.1960
  685loPI   C1A 9943  10.803   4.468   6.133  0.2268 -0.0959 -0.2300
  685loPI   C2A 9944  10.588   4.503   6.539  0.2254  0.0981 -0.1224
  685loPI   C3A 9945  10.326   4.450   6.940  0.0190 -0.0825  0.1422
  685loPI   C4A 9946  10.007   4.215   7.170  0.1510 -0.1547 -0.0783
  685loPI   C5A 9947   9.807   3.913   7.340  0.2276  0.0525  0.0793
  685loPI   C6A 9948   9.746   3.797   7.709 -0.3062  0.0787 -0.1311
  685loPI   C1B 9949  11.074   4.853   5.764 -0.1314 -0.0946  0.0008
  685loPI   C2B 9950  11.155   4.977   6.143 -0.4713  0.1252 -0.1431
  685loPI   C3B 9951  11.392   5.002   6.462  0.3023 -0.0186  0.1048
  685loPI   C4B 9952  11.572   4.795   6.855 -0.0627  0.0565 -0.0209
  686loPI    C1 9953   0.823  10.803   5.243  0.2581  0.1622  0.0816
  686loPI    C2 9954   0.899  10.898   4.863  0.1419  0.1373  0.0515
  686loPI    C3 9955   0.642  10.604   4.947  0.0762  0.2225  0.1509
  686loPI   PO4 9956   1.071  10.909   5.397  0.2992 -0.1616  0.1968
  686loPI   GL1 9957   1.293  10.719   5.791  0.0215 -0.0700 -0.4479
  686loPI   GL2 9958   1.129  10.549   5.948  0.1637  0.2384  0.2351
  686loPI   C1A 9959   1.454  10.860   6.144 -0.2499 -0.2735  0.2383
  686loPI   C2A 9960   1.588  11.010   6.527 -0.5034  0.1372 -0.0544
  686loPI   C3A 9961   1.669  11.053   6.976 -0.0615  0.3114 -0.1008
  686loPI   C4A 9962   1.620  11.248   7.416  0.1297 -0.1547  0.0782
  686loPI   C5A 9963   1.376  11.072   7.835 -0.2893 -0.0844 -0.4360
  686loPI   C6A 9964   1.371  11.053   8.231 -0.1748  0.1159 -0.1436
  686loPI   C1B 9965   0.844  10.640   6.187  0.0906 -0.1337 -0.1366
  686loPI   C2B 9966   0.819  10.632   6.672 -0.3286  0.3221  0.1830
  686loPI   C3B 9967   0.905  10.626   7.105  0.0098 -0.1682 -0.3786
  686loPI   C4B 9968   0.764  10.675   7.499  0.0061  0.2906  0.2815
  687loPI    C1 9969  11.875   1.349   5.053 -0.0678  0.1054 -0.0539
  687loPI    C2 9970  11.614   1.557   4.832  0.0941  0.0503 -0.3013
  687loPI    C3 9971  11.865   1.299   4.656  0.1773 -0.0481 -0.0432
  687loPI   PO4 9972  11.736   1.401   5.345 -0.1875 -0.1536 -0.2830
  687loPI   GL1 9973  11.665   1.605   5.657  0.0520  0.2088 -0.2329
  687loPI   GL2 9974  11.969   1.666   5.687 -0.1034  0.0002 -0.1751
  687loPI   C1A 9975  11.537   1.392   6.113 -0.1210  0.2665  0.0003
  687loPI   C2A 9976  11.638   1.327   6.570 -0.1237  0.1512 -0.2034
  687loPI   C3A 9977  11.635   1.370   6.992  0.1543 -0.0867 -0.0670
  687loPI   C4A 9978  11.515   1.309   7.383  0.3186 -0.0604 -0.2127
  687loPI   C5A 9979  11.445   1.359   7.810  0.2838  0.0566  0.0936
  687loPI   C6A 9980  11.166   1.626   8.122  0.2497  0.0189  0.0563
  687loPI   C1B 9981  12.001   1.576   6.054  0.2082  0.0268  0.1078
  687loPI   C2B 9982  12.148   1.720   6.374  0.1344  0.2050 -0.3947
  687loPI   C3B 9983  11.951   1.861   6.742  0.0495  0.0952  0.1208
  687loPI   C4B 9984  11.597   1.835   7.087 -0.1752  0.1358 -0.0930
  688loPI    C1 9985   0.192  11.235   5.471  0.0733  0.0701  0.1227
  688loPI    C2 9986   0.378  10.977   5.229 -0.0372 -0.1829  0.3034
  688loPI    C3 9987   0.086  11.210   5.086 -0.0630 -0.2896  0.1796
  688loPI   PO4 9988   0.245  11.163   5.715  0.1513 -0.1624  0.2841
  688loPI   GL1 9989   0.469  11.112   6.118  0.1482 -0.1141  0.1638
  688loPI   GL2 9990   0.319  10.813   6.228 -0.2029 -0.0861 -0.0071
  688loPI   C1A 9991   0.612  11.229   6.553 -0.0942  0.0106 -0.2543
  688loPI   C2A 9992   0.665  11.122   6.946 -0.1030  0.0862 -0.0504
  688loPI   C3A 9993   0.425  10.827   7.199  0.1631  0.2889  0.0559
  688loPI   C4A 9994   0.094  11.006   7.422  0.2243  0.1604 -0.2162
  688loPI   C5A 9995   0.165  10.965   7.794  0.1013  0.2694  0.0194
  688loPI   C6A 9996   0.036  10.740   8.106 -0.1327  0.1497 -0.0254
  688loPI   C1B 9997   0.355  10.650   6.610  0.1159 -0.0564 -0.0802
  688loPI   C2B 9998   0.020  10.618   6.968 -0.0939 -0.1715  0.0408
  688loPI   C3B 9999  -0.040  10.536   7.371 -0.0555 -0.0986 -0.0454
  688loPI   C4B10000  -0.263  10.556   7.731  0.2448  0.1472  0.2602
  689loPI    C110001  10.374   9.380   5.144 -0.1258 -0.1931  0.1149
  689loPI    C210002  10.705   9.551   5.289 -0.1186  0.1337 -0.2698
  689loPI    C310003  10.695   9.156   5.226  0.0640  0.0667  0.0935
  689loPI   PO410004  10.236   9.709   5.211 -0.0523 -0.1774  0.1844
  689loPI   GL110005  10.174   9.811   5.588  0.0048 -0.0974  0.0642
  689loPI   GL210006  10.411   9.701   5.674  0.0010  0.0081 -0.1063
  689loPI   C1A10007  10.002   9.915   6.036 -0.0378  0.0730 -0.1596
  689loPI   C2A10008  10.068   9.863   6.427 -0.1696  0.1925  0.1317
  689loPI   C3A10009  10.190   9.722   6.856  0.3903 -0.0771  0.1883
  689loPI   C4A10010  10.149   9.550   7.271  0.3579 -0.0232 -0.0711
  689loPI   C5A10011  10.174   9.299   7.639 -0.1231  0.3207  0.2316
  689loPI   C6A10012   9.974   9.265   8.019  0.0678 -0.1017  0.0680
  689loPI   C1B10013  10.352   9.546   6.091 -0.0511 -0.0709 -0.0735
  689loPI   C2B10014  10.297   9.347   6.492 -0.1047 -0.1533 -0.1640
  689loPI   C3B10015  10.339   8.943   6.641  0.1618  0.0479 -0.2444
  689loPI   C4B10016  10.527   8.568   6.457 -0.0381 -0.3866  0.1982
  690loPI    C110017  15.281   2.139   5.120  0.0797 -0.2216 -0.1527
  690loPI    C210018  14.957   2.027   4.914 -0.1971  0.0293  0.1362
  690loPI    C310019  15.152   2.362   4.813  0.0232 -0.1620 -0.0859
  690loPI   PO410020  15.387   1.972   5.178  0.0692  0.3591 -0.0838
  690loPI   GL110021  15.571   1.697   5.383  0.0509 -0.1510  0.3484
  690loPI   GL210022  15.401   1.509   5.656 -0.1041  0.4102 -0.0749
  690loPI   C1A10023  15.864   1.688   5.667 -0.3442  0.0354 -0.1614
  690loPI   C2A10024  15.977   1.766   6.128 -0.0393 -0.1013  0.0568
  690loPI   C3A10025  15.916   1.732   6.644  0.3196 -0.0925  0.0770
  690loPI   C4A10026  15.944   1.949   6.988  0.3946 -0.1948 -0.3381
  690loPI   C5A10027  16.167   2.225   7.303  0.0380  0.0243 -0.2101
  690loPI   C6A10028  16.317   2.619   7.486 -0.2727 -0.2739 -0.0384
  690loPI   C1B10029  15.488   1.656   6.062  0.1483 -0.1460  0.3002
  690loPI   C2B10030  15.428   1.767   6.425  0.0077  0.3388 -0.0307
  690loPI   C3B10031  15.489   1.922   6.826  0.0886  0.1795 -0.2151
  690loPI   C4B10032  15.481   2.147   7.199 -0.2742 -0.1497 -0.1351
  691loPI    C110033   9.680   2.495   5.106  0.0933 -0.0036 -0.0717
  691loPI    C210034  10.065   2.598   5.144  0.0286  0.1875  0.0853
  691loPI    C310035   9.840   2.768   4.861  0.1376 -0.1580 -0.2164
  691loPI   PO410036   9.482   2.515   5.352 -0.0436 -0.1330 -0.0792
  691loPI   GL110037   9.569   2.397   5.773  0.0119 -0.2682 -0.1469
  691loPI   GL210038   9.245   2.257   5.766 -0.1572 -0.0274 -0.0354
  691loPI   C1A10039   9.178   2.632   6.050 -0.2282 -0.0393  0.0033
  691loPI   C2A10040   8.850   2.923   6.190 -0.0529  0.0907 -0.0060
  691loPI   C3A10041   8.765   3.060   6.547 -0.1578  0.2436  0.1749
  691loPI   C4A10042   8.671   3.402   6.842 -0.1260  0.0695 -0.2473
  691loPI   C5A10043   8.347   3.312   7.245  0.1468 -0.0092 -0.1412
  691loPI   C6A10044   8.053   3.589   7.510  0.1099 -0.3529 -0.0007
  691loPI   C1B10045   9.468   2.159   6.197  0.1080 -0.0086 -0.2508
  691loPI   C2B10046   9.731   2.091   6.553 -0.1708  0.0988 -0.0696
  691loPI   C3B10047   9.859   2.285   6.936 -0.1182 -0.2086 -0.0445
  691loPI   C4B10048  10.034   2.457   7.328 -0.0912 -0.3567 -0.1069
  692loPI    C110049   1.532  15.438   5.321 -0.3202 -0.3043 -0.1675
  692loPI    C210050   1.553  15.710   5.027  0.0101 -0.1766 -0.0303
  692loPI    C310051   1.614  15.322   4.947  0.0344 -0.1497 -0.1420
  692loPI   PO410052   1.728  15.413   5.532 -0.4915  0.0854  0.1359
  692loPI   GL110053   1.941  15.515   5.894 -0.0346 -0.0958 -0.2795
  692loPI   GL210054   1.724  15.633   5.970 -0.2160  0.0865 -0.0201
  692loPI   C1A10055   2.193  15.560   6.368 -0.3225 -0.1535  0.1478
  692loPI   C2A10056   2.311  15.536   6.837  0.2885  0.1312 -0.0134
  692loPI   C3A10057   2.638  15.305   7.061 -0.1993  0.4048 -0.6784
  692loPI   C4A10058   2.940  15.241   7.453  0.0933 -0.3074 -0.2351
  692loPI   C5A10059   3.109  15.116   7.807  0.1453 -0.0147 -0.0969
  692loPI   C6A10060   3.191  14.852   8.117 -0.2461  0.2182 -0.0843
  692loPI   C1B10061   1.706  15.696   6.433 -0.0205 -0.2464  0.1363
  692loPI   C2B10062   1.802  15.808   6.939 -0.1631  0.1372  0.0549
  692loPI   C3B10063   1.771  15.956   7.306  0.5009 -0.0894 -0.2320
  692loPI   C4B10064   1.729  16.268   7.607 -0.2909  0.1488  0.1808
  693loPI    C110065  13.439  15.872   5.321  0.0806 -0.1358 -0.0477
  693loPI    C210066  13.077  16.036   5.278  0.1023 -0.0744  0.0026
  693loPI    C310067  13.251  15.853   4.968  0.0086 -0.1445 -0.0091
  693loPI   PO410068  13.624  16.055   5.526  0.0314 -0.2367  0.0361
  693loPI   GL110069  13.716  15.928   5.860 -0.0690  0.0176 -0.1408
  693loPI   GL210070  14.023  15.789   5.940 -0.1263 -0.1218  0.0067
  693loPI   C1A10071  13.616  15.667   6.156  0.0643  0.2269  0.1183
  693loPI   C2A10072  13.489  15.840   6.534  0.2163  0.0773 -0.0218
  693loPI   C3A10073  13.329  15.915   6.864 -0.0154 -0.1352  0.0477
  693loPI   C4A10074  13.270  15.750   7.301 -0.0483 -0.0102  0.2782
  693loPI   C5A10075  13.606  15.561   7.626 -0.0244 -0.3208 -0.0554
  693loPI   C6A10076  13.580  15.223   7.957  0.2035 -0.2238  0.0720
  693loPI   C1B10077  13.884  15.976   6.338  0.0226 -0.0639 -0.2445
  693loPI   C2B10078  13.964  16.286   6.643  0.1226 -0.3610  0.0157
  693loPI   C3B10079  13.609  16.368   6.815  0.1475  0.1249  0.1019
  693loPI   C4B10080  13.315  16.404   7.069 -0.2303  0.0124 -0.4193
  694loPI    C110081   6.067  18.581   5.670  0.2896  0.0384 -0.0880
  694loPI    C210082   6.203  18.266   5.464 -0.0232 -0.0171 -0.2160
  694loPI    C310083   6.172  18.623   5.286  0.4765  0.1285 -0.0278
  694loPI   PO410084   5.806  18.513   5.714  0.1533 -0.3571 -0.3179
  694loPI   GL110085   5.612  18.400   6.130  0.1228  0.0867 -0.0006
  694loPI   GL210086   5.657  18.136   6.323 -0.1804 -0.0716  0.1106
  694loPI   C1A10087   6.012  18.588   6.399  0.1062 -0.2539  0.0355
  694loPI   C2A10088   6.137  18.477   6.803 -0.2149 -0.1967 -0.0872
  694loPI   C3A10089   5.998  18.307   7.186  0.1971  0.1816 -0.0134
  694loPI   C4A10090   6.064  18.203   7.640 -0.1474 -0.0290  0.1027
  694loPI   C5A10091   6.142  17.838   7.875  0.1690  0.1891 -0.1421
  694loPI   C6A10092   6.444  17.822   8.131 -0.3634  0.2282 -0.3167
  694loPI   C1B10093   5.634  18.247   6.817 -0.2802  0.3404  0.1842
  694loPI   C2B10094   5.473  18.131   7.202  0.0600  0.0707  0.0271
  694loPI   C3B10095   5.655  17.998   7.542  0.0564  0.1827 -0.1107
  694loPI   C4B10096   5.645  17.988   7.922  0.0262 -0.0793 -0.2931
  695loPI    C110097  13.966   7.589   4.897 -0.0335 -0.0832  0.0599
  695loPI    C210098  14.319   7.422   4.981 -0.0512 -0.1377  0.0263
  695loPI    C310099  14.088   7.266   4.695 -0.0270 -0.0011 -0.0681
  695loPI   PO410100  13.842   7.641   5.174 -0.2662 -0.1997  0.2307
  695loPI   GL110101  13.737   7.645   5.528  0.0637 -0.4294 -0.1972
  695loPI   GL210102  13.587   7.785   5.626 -0.1026 -0.0357  0.2499
  695loPI   C1A10103  13.857   7.543   6.063 -0.1203 -0.0472 -0.1896
  695loPI   C2A10104  13.756   7.525   6.447  0.0886 -0.1834 -0.1396
  695loPI   C3A10105  13.754   7.461   6.848 -0.3392 -0.0200 -0.1091
  695loPI   C4A10106  13.939   7.339   7.153  0.1927 -0.1092  0.0605
  695loPI   C5A10107  13.810   7.232   7.542 -0.0371  0.2066  0.0691
  695loPI   C6A10108  13.673   7.285   7.974 -0.3345 -0.0757 -0.3963
  695loPI   C1B10109  13.516   7.862   6.053 -0.0362  0.0122  0.2694
  695loPI   C2B10110  13.347   7.881   6.420  0.1083 -0.1661 -0.0407
  695loPI   C3B10111  13.482   7.810   6.720  0.1889 -0.2993 -0.2041
  695loPI   C4B10112  13.794   7.970   7.029 -0.1776  0.3492 -0.0169
  696loPI    C110113  13.303  12.659   4.850  0.1148  0.4429 -0.0033
  696loPI    C210114  13.566  12.474   4.613  0.1170 -0.0528  0.3696
  696loPI    C310115  13.693  12.739   4.885  0.1201  0.4708 -0.1222
  696loPI   PO410116  13.113  12.531   4.953 -0.1134 -0.1264  0.0344
  696loPI   GL110117  13.042  12.291   5.400  0.0017 -0.1550 -0.3383
  696loPI   GL210118  13.116  12.132   5.692 -0.2877  0.0189 -0.0291
  696loPI   C1A10119  12.749  12.497   5.773 -0.0026  0.2854 -0.2261
  696loPI   C2A10120  12.783  12.452   6.240 -0.2133  0.0082  0.1204
  696loPI   C3A10121  12.701  12.475   6.730  0.2709 -0.1042 -0.3623
  696loPI   C4A10122  12.734  12.458   7.090 -0.2364  0.2092 -0.2286
  696loPI   C5A10123  12.728  12.384   7.516 -0.1880  0.0533 -0.0150
  696loPI   C6A10124  12.671  12.552   7.930 -0.0645  0.0892 -0.3115
  696loPI   C1B10125  13.224  12.257   6.023 -0.0913  0.3043  0.2896
  696loPI   C2B10126  13.187  12.212   6.462  0.4265 -0.0401  0.0622
  696loPI   C3B10127  13.151  12.295   6.770 -0.1311  0.1545 -0.4409
  696loPI   C4B10128  13.149  12.210   7.140 -0.1753  0.1950 -0.1146
  697loPI    C110129   3.361   3.140   4.848 -0.0426  0.0004  0.0025
  697loPI    C210130   3.038   3.145   4.612 -0.0440  0.1604  0.0072
  697loPI    C310131   3.340   2.895   4.532  0.0259  0.3251 -0.2588
  697loPI   PO410132   3.300   3.082   5.094  0.0772 -0.5330  0.0933
  697loPI   GL110133   3.464   3.315   5.434  0.0084 -0.1925  0.1627
  697loPI   GL210134   3.700   3.042   5.649  0.0545  0.0100 -0.4540
  697loPI   C1A10135   3.464   3.502   5.818 -0.3524 -0.1130  0.3839
  697loPI   C2A10136   3.461   3.515   6.200 -0.0859  0.3527 -0.1563
  697loPI   C3A10137   3.326   3.448   6.608 -0.1469  0.0039  0.1391
  697loPI   C4A10138   3.163   3.408   6.889 -0.3415  0.1351 -0.0306
  697loPI   C5A10139   2.746   3.291   7.137  0.0015  0.3890  0.3683
  697loPI   C6A10140   2.328   3.380   7.280 -0.0685  0.0726 -0.0213
  697loPI   C1B10141   3.825   3.193   6.103  0.0350  0.0057 -0.0258
  697loPI   C2B10142   3.807   3.226   6.482 -0.1200  0.0869  0.2212
  697loPI   C3B10143   3.834   3.443   6.863 -0.0120  0.2015 -0.1357
  697loPI   C4B10144   3.938   3.652   7.215  0.4107  0.1117  0.0578
  698loPI    C110145  12.778   8.883   4.877  0.0603  0.0121 -0.1081
  698loPI    C210146  12.724   8.487   4.903  0.0036  0.0214 -0.0828
  698loPI    C310147  12.601   8.685   4.578  0.0210  0.0199 -0.0902
  698loPI   PO410148  12.775   8.907   5.190 -0.2738 -0.2639 -0.0682
  698loPI   GL110149  13.019   8.970   5.500 -0.0487 -0.1247 -0.0538
  698loPI   GL210150  13.115   9.177   5.765 -0.0607 -0.1092 -0.2080
  698loPI   C1A10151  12.635   8.997   5.859 -0.0432  0.0163 -0.2218
  698loPI   C2A10152  12.778   8.732   6.191 -0.0512 -0.2214 -0.1654
  698loPI   C3A10153  12.792   8.897   6.580 -0.0183 -0.0730 -0.0250
  698loPI   C4A10154  12.634   8.938   7.039 -0.0590  0.1655 -0.2982
  698loPI   C5A10155  12.301   8.849   7.392  0.1965 -0.2948 -0.1797
  698loPI   C6A10156  12.291   8.845   7.816  0.2242 -0.0049 -0.0899
  698loPI   C1B10157  13.064   9.234   6.174 -0.0320  0.0108 -0.0834
  698loPI   C2B10158  13.218   9.293   6.638 -0.0624 -0.2129 -0.2067
  698loPI   C3B10159  13.019   9.244   7.004 -0.0659 -0.1549  0.0569
  698loPI   C4B10160  12.893   9.323   7.367  0.1053 -0.1074  0.2335
  699loPI    C110161   6.476  14.912   5.345 -0.1003 -0.0585  0.0458
  699loPI    C210162   6.780  14.791   5.115 -0.2441 -0.1892 -0.0786
  699loPI    C310163   6.438  14.913   4.947 -0.1264  0.3393  0.0451
  699loPI   PO410164   6.544  14.848   5.622  0.0615  0.1915  0.2096
  699loPI   GL110165   6.686  14.468   5.901 -0.3065  0.0772  0.0853
  699loPI   GL210166   6.717  14.097   5.848  0.1606 -0.0671  0.4331
  699loPI   C1A10167   6.618  14.589   6.290  0.1412  0.1610  0.0605
  699loPI   C2A10168   6.516  14.618   6.757  0.2691  0.2229 -0.0421
  699loPI   C3A10169   6.557  14.689   7.193  0.0578 -0.0745  0.0475
  699loPI   C4A10170   6.533  14.781   7.653  0.3100 -0.0187 -0.1929
  699loPI   C5A10171   6.465  15.157   7.954 -0.1938 -0.0776 -0.0308
  699loPI   C6A10172   6.350  15.341   8.400  0.1190  0.2650  0.3823
  699loPI   C1B10173   6.635  14.013   6.261 -0.1671  0.0123 -0.0162
  699loPI   C2B10174   6.573  13.668   6.527  0.1061 -0.0994  0.1262
  699loPI   C3B10175   6.696  13.615   6.985 -0.3078 -0.1128  0.1766
  699loPI   C4B10176   6.887  13.766   7.388 -0.1945 -0.1353 -0.0306
  700loPI    C110177   7.529  18.367   5.289 -0.0511 -0.3583  0.1642
  700loPI    C210178   7.780  18.120   5.100  0.1987  0.0315 -0.0268
  700loPI    C310179   7.562  18.382   4.891 -0.0181  0.0168  0.1768
  700loPI   PO410180   7.494  18.290   5.504  0.2552 -0.2316 -0.2578
  700loPI   GL110181   7.474  18.459   5.867 -0.3855 -0.0211 -0.1417
  700loPI   GL210182   7.811  18.507   5.909  0.1985  0.2373  0.0709
  700loPI   C1A10183   7.324  18.272   6.267 -0.2796 -0.0102 -0.0109
  700loPI   C2A10184   7.504  18.245   6.646  0.3025 -0.0517 -0.0546
  700loPI   C3A10185   7.530  18.230   7.001 -0.2391  0.0117 -0.2676
  700loPI   C4A10186   7.577  18.431   7.436  0.2566  0.0376 -0.1227
  700loPI   C5A10187   7.525  18.802   7.836 -0.2332  0.0985  0.4288
  700loPI   C6A10188   7.701  18.748   8.275 -0.0732  0.1475 -0.1912
  700loPI   C1B10189   7.833  18.605   6.346  0.0598  0.1147 -0.0354
  700loPI   C2B10190   7.865  18.537   6.817  0.0328  0.0085 -0.1061
  700loPI   C3B10191   7.990  18.660   7.161  0.2208 -0.2082 -0.1766
  700loPI   C4B10192   7.979  18.599   7.588  0.3688 -0.3288 -0.0194
  701loPI    C110193   4.417   2.636   5.111 -0.1259 -0.0272  0.0723
  701loPI    C210194   4.302   2.881   4.816  0.2110 -0.1673 -0.1819
  701loPI    C310195   4.535   2.565   4.735  0.4007 -0.1451  0.2504
  701loPI   PO410196   4.134   2.668   5.305  0.1755 -0.0214 -0.1067
  701loPI   GL110197   3.933   2.530   5.628 -0.0457 -0.1146  0.0143
  701loPI   GL210198   3.652   2.560   5.714  0.2251 -0.1520 -0.0180
  701loPI   C1A10199   4.170   2.456   6.037 -0.0729  0.2234  0.2123
  701loPI   C2A10200   4.167   2.547   6.427 -0.0228 -0.1579  0.0499
  701loPI   C3A10201   4.129   2.703   6.796 -0.1479  0.0397  0.5478
  701loPI   C4A10202   4.159   3.039   7.137  0.0015 -0.1490 -0.0098
  701loPI   C5A10203   4.097   3.279   7.506 -0.0975  0.2890 -0.1391
  701loPI   C6A10204   3.713   3.396   7.665  0.1359  0.1927 -0.0926
  701loPI   C1B10205   3.712   2.751   6.126  0.0151  0.1516 -0.1430
  701loPI   C2B10206   3.654   2.754   6.578 -0.0364  0.2250 -0.1710
  701loPI   C3B10207   3.663   2.982   6.902  0.0535 -0.1122  0.1359
  701loPI   C4B10208   3.533   3.308   7.198  0.1717  0.0422 -0.0301
  702loPI    C110209   4.836  15.730   5.402 -0.1432 -0.2270  0.2025
  702loPI    C210210   5.093  15.535   5.166 -0.1535 -0.0581  0.0489
  702loPI    C310211   4.842  15.803   5.009 -0.1538  0.0640  0.2541
  702loPI   PO410212   4.999  15.795   5.630 -0.1101  0.2513  0.0295
  702loPI   GL110213   4.922  15.734   6.029  0.1218 -0.0436  0.2894
  702loPI   GL210214   4.782  16.093   6.035 -0.1057 -0.1738  0.0924
  702loPI   C1A10215   5.157  15.725   6.396 -0.0963  0.2800 -0.0897
  702loPI   C2A10216   5.504  15.594   6.733 -0.0317 -0.1657  0.0316
  702loPI   C3A10217   5.478  15.688   7.169 -0.0841 -0.1134  0.4162
  702loPI   C4A10218   5.440  15.810   7.634 -0.1970  0.1508  0.0377
  702loPI   C5A10219   5.247  15.578   7.961 -0.3721  0.0882  0.0882
  702loPI   C6A10220   5.037  15.274   7.909 -0.1921 -0.0856 -0.0422
  702loPI   C1B10221   4.657  16.225   6.431 -0.3036 -0.2978  0.2377
  702loPI   C2B10222   4.660  16.177   6.871 -0.3409 -0.0240 -0.5086
  702loPI   C3B10223   4.666  16.310   7.313  0.5273 -0.0240  0.3886
  702loPI   C4B10224   4.807  16.014   7.563 -0.1487 -0.2507 -0.0826
  703loPI    C110225   3.722  10.520   5.018 -0.1040  0.1208 -0.1084
  703loPI    C210226   3.496  10.726   5.276  0.0181  0.0750  0.0366
  703loPI    C310227   3.323  10.491   5.003 -0.1071 -0.1042  0.2660
  703loPI   PO410228   3.895  10.303   5.194  0.4400 -0.0618  0.1138
  703loPI   GL110229   3.785  10.158   5.638  0.0950  0.0982  0.2506
  703loPI   GL210230   3.977  10.476   5.618 -0.0378 -0.3493 -0.0160
  703loPI   C1A10231   3.757  10.122   6.071 -0.2242  0.0755  0.0775
  703loPI   C2A10232   3.758  10.064   6.501  0.3380 -0.0230 -0.2296
  703loPI   C3A10233   3.772  10.189   6.935  0.1612  0.2735 -0.1881
  703loPI   C4A10234   3.674  10.157   7.280  0.1773  0.1845 -0.0621
  703loPI   C5A10235   3.361  10.233   7.573 -0.0269  0.0042  0.2141
  703loPI   C6A10236   3.288  10.164   8.006  0.0420 -0.0980 -0.1135
  703loPI   C1B10237   4.058  10.650   6.012 -0.2595 -0.0758 -0.1654
  703loPI   C2B10238   4.252  10.889   6.371 -0.0985 -0.1314  0.1138
  703loPI   C3B10239   4.436  11.227   6.679  0.1848 -0.0393 -0.0587
  703loPI   C4B10240   4.328  11.514   6.998  0.2431 -0.1148  0.0608
  704loPI    C110241   6.647  18.432   5.422 -0.2830 -0.1178  0.0181
  704loPI    C210242   6.635  18.754   5.185  0.2710 -0.0618  0.0527
  704loPI    C310243   6.543  18.394   5.038 -0.1445  0.0776 -0.0403
  704loPI   PO410244   6.568  18.572   5.653 -0.0318  0.2705 -0.0185
  704loPI   GL110245   6.667  18.462   6.109 -0.1571 -0.0740 -0.0213
  704loPI   GL210246   6.937  18.568   6.040 -0.4765 -0.2364  0.1028
  704loPI   C1A10247   6.503  18.588   6.426  0.0060  0.1101  0.1427
  704loPI   C2A10248   6.525  18.799   6.788 -0.2653  0.2983 -0.2249
  704loPI   C3A10249   6.491  19.061   7.064 -0.1100  0.0714  0.0485
  704loPI   C4A10250   6.296  19.420   7.158  0.2558  0.1380  0.1524
  704loPI   C5A10251   5.968  19.452   7.228  0.3892  0.0743  0.1350
  704loPI   C6A10252   5.771  19.583   7.619 -0.4271  0.3630  0.2329
  704loPI   C1B10253   6.996  18.608   6.491 -0.3095  0.0389  0.1110
  704loPI   C2B10254   6.965  18.441   6.849  0.1765  0.2966  0.4118
  704loPI   C3B10255   6.705  18.487   7.240  0.1848  0.0202  0.1512
  704loPI   C4B10256   6.367  18.522   7.363 -0.2213 -0.0924 -0.2657
  705loPI    C110257   9.814   4.753   5.082  0.0390  0.2937 -0.2536
  705loPI    C210258  10.030   4.417   5.108  0.0484  0.3270  0.1617
  705loPI    C310259   9.956   4.580   4.750 -0.0479 -0.1744 -0.0548
  705loPI   PO410260   9.783   4.805   5.362  0.2131  0.0334 -0.0481
  705loPI   GL110261   9.627   4.778   5.682 -0.0473  0.2041 -0.1401
  705loPI   GL210262   9.541   4.448   5.768  0.1016 -0.1354 -0.3178
  705loPI   C1A10263   9.785   4.759   6.060 -0.0730  0.1265 -0.1931
  705loPI   C2A10264   9.678   4.840   6.423 -0.0767  0.1446  0.1162
  705loPI   C3A10265   9.737   4.933   6.801 -0.1949  0.0012  0.1624
  705loPI   C4A10266  10.005   4.796   7.095  0.0597  0.1255  0.4325
  705loPI   C5A10267  10.057   4.665   7.459 -0.1499  0.1068  0.0586
  705loPI   C6A10268  10.097   4.192   7.645  0.0168  0.0216  0.2479
  705loPI   C1B10269   9.533   4.333   6.234  0.2187 -0.1982 -0.0290
  705loPI   C2B10270   9.462   4.261   6.665 -0.1853 -0.1971  0.4282
  705loPI   C3B10271   9.430   3.986   6.948 -0.1575  0.0498 -0.3525
  705loPI   C4B10272   9.308   3.812   7.330  0.2519  0.2628 -0.3223
  706loPI    C110273  15.112  14.465   5.401  0.0825  0.0823  0.0427
  706loPI    C210274  14.981  14.750   5.152  0.1408  0.0983  0.0302
  706loPI    C310275  14.738  14.603   5.434  0.0861  0.1053 -0.0131
  706loPI   PO410276  15.248  14.508   5.485  0.0469  0.0469 -0.1267
  706loPI   GL110277  15.327  14.609   5.851  0.1771  0.0123 -0.3025
  706loPI   GL210278  15.367  14.373   6.096 -0.2722 -0.2389 -0.1965
  706loPI   C1A10279  15.330  14.834   6.297 -0.2385  0.3331 -0.1996
  706loPI   C2A10280  15.282  15.007   6.655  0.2047 -0.0733  0.0030
  706loPI   C3A10281  15.116  15.345   6.796  0.0218 -0.3574  0.0714
  706loPI   C4A10282  15.079  15.543   7.165  0.1008  0.0830 -0.2489
  706loPI   C5A10283  14.741  15.525   7.332  0.1377 -0.0142  0.1161
  706loPI   C6A10284  14.531  15.472   7.725  0.1576 -0.3329 -0.1877
  706loPI   C1B10285  15.405  14.422   6.543 -0.0155 -0.1041 -0.2000
  706loPI   C2B10286  15.278  14.580   6.903 -0.1672 -0.1818  0.0956
  706loPI   C3B10287  14.996  14.891   7.033 -0.2041 -0.1508 -0.0780
  706loPI   C4B10288  14.658  15.070   7.020 -0.0051 -0.0701  0.1378
  707loPI    C110289   4.374  10.225   5.333 -0.1116  0.0442 -0.0919
  707loPI    C210290   4.481   9.922   5.096 -0.4232 -0.2620  0.1480
  707loPI    C310291   4.692  10.261   5.094 -0.1459 -0.4292 -0.2196
  707loPI   PO410292   4.308  10.092   5.593  0.1314 -0.1106  0.0375
  707loPI   GL110293   4.172   9.859   5.846 -0.1322 -0.0135 -0.1295
  707loPI   GL210294   4.285  10.146   6.075  0.0081  0.1045 -0.2317
  707loPI   C1A10295   4.102   9.757   6.250 -0.0942 -0.0842 -0.0764
  707loPI   C2A10296   4.144   9.795   6.601 -0.2168  0.1092 -0.1015
  707loPI   C3A10297   4.017   9.635   6.935  0.2256 -0.1313 -0.0230
  707loPI   C4A10298   3.890   9.515   7.346  0.0075 -0.1020  0.1919
  707loPI   C5A10299   3.929   9.496   7.851  0.1345  0.1632  0.1600
  707loPI   C6A10300   4.110   9.721   8.219 -0.0984  0.1186  0.2183
  707loPI   C1B10301   4.232  10.256   6.463 -0.0134  0.0883  0.2588
  707loPI   C2B10302   4.259  10.299   6.943  0.1729  0.4449  0.4763
  707loPI   C3B10303   4.118  10.365   7.372 -0.0831  0.2002 -0.2477
  707loPI   C4B10304   3.987  10.501   7.643 -0.0550 -0.0287  0.1726
  708loPI    C110305  17.921  16.132   5.164 -0.1026  0.0002 -0.1418
  708loPI    C210306  18.298  16.259   5.118 -0.1972  0.3671  0.0495
  708loPI    C310307  18.132  16.020   4.843  0.2078  0.1121  0.0186
  708loPI   PO410308  17.816  16.379   5.222 -0.0660 -0.0136  0.1839
  708loPI   GL110309  17.700  16.576   5.551  0.0445 -0.1101 -0.1130
  708loPI   GL210310  17.592  16.564   5.796  0.2168 -0.0116 -0.1669
  708loPI   C1A10311  18.064  16.507   5.880 -0.0879 -0.0237 -0.0175
  708loPI   C2A10312  18.029  16.349   6.267 -0.0264 -0.1503  0.3456
  708loPI   C3A10313  18.071  16.294   6.729 -0.4370 -0.0298  0.0165
  708loPI   C4A10314  18.062  16.299   7.140  0.0448 -0.0205 -0.1320
  708loPI   C5A10315  18.152  16.465   7.527 -0.0813 -0.0362  0.3065
  708loPI   C6A10316  18.009  16.811   7.824 -0.3023 -0.0267  0.2013
  708loPI   C1B10317  17.559  16.463   6.151 -0.0099 -0.2719 -0.1675
  708loPI   C2B10318  17.559  16.325   6.573  0.0604 -0.2294  0.2504
  708loPI   C3B10319  17.554  16.322   7.007 -0.0435 -0.4693 -0.0367
  708loPI   C4B10320  17.694  16.286   7.458  0.0293  0.0588 -0.0821
  709loPI    C110321   4.107  12.126   5.016 -0.0304  0.1195 -0.0596
  709loPI    C210322   4.332  12.456   5.027  0.1793 -0.0249  0.0495
  709loPI    C310323   4.418  12.164   4.767  0.0174 -0.0110 -0.0208
  709loPI   PO410324   4.044  12.135   5.263 -0.2422 -0.1525  0.0823
  709loPI   GL110325   4.295  11.972   5.578 -0.3604  0.0160  0.0038
  709loPI   GL210326   4.355  12.111   5.820 -0.2743  0.3152  0.0152
  709loPI   C1A10327   3.918  11.843   5.871  0.2350  0.0095  0.1624
  709loPI   C2A10328   3.857  11.742   6.240 -0.0399 -0.0007 -0.1230
  709loPI   C3A10329   3.798  11.929   6.681 -0.2397  0.0842  0.1439
  709loPI   C4A10330   3.717  12.082   7.167  0.0258  0.4845 -0.0021
  709loPI   C5A10331   3.532  12.304   7.460  0.0643  0.2614  0.1805
  709loPI   C6A10332   3.789  12.371   7.838  0.0685  0.0343 -0.1858
  709loPI   C1B10333   4.322  11.924   6.196  0.1734  0.2572 -0.1194
  709loPI   C2B10334   4.314  11.739   6.540 -0.0177 -0.1734  0.0539
  709loPI   C3B10335   3.945  11.446   6.652  0.4933  0.0430  0.1255
  709loPI   C4B10336   3.738  11.078   6.760 -0.0426  0.0067 -0.1223
  710loPI    C110337  13.507   8.246   5.071 -0.0689 -0.0329  0.0713
  710loPI    C210338  13.372   7.874   5.124  0.0557 -0.0665  0.1570
  710loPI    C310339  13.608   7.959   4.812 -0.0054 -0.0503  0.1150
  710loPI   PO410340  13.413   8.335   5.388 -0.2030 -0.0561 -0.1659
  710loPI   GL110341  13.406   8.496   5.799  0.0193  0.0587 -0.2254
  710loPI   GL210342  13.645   8.305   5.882  0.1288  0.1145 -0.2753
  710loPI   C1A10343  13.281   8.727   6.060 -0.0404  0.0905 -0.2437
  710loPI   C2A10344  13.447   8.791   6.504  0.4412  0.4564 -0.1822
  710loPI   C3A10345  13.388   8.917   6.968 -0.1867  0.0691 -0.1551
  710loPI   C4A10346  13.122   8.836   7.261  0.2754 -0.0061  0.2896
  710loPI   C5A10347  12.791   8.841   7.528 -0.2286 -0.0404 -0.2501
  710loPI   C6A10348  12.560   8.449   7.635  0.0356  0.0241  0.5219
  710loPI   C1B10349  13.661   8.354   6.304 -0.0076  0.1311 -0.0105
  710loPI   C2B10350  13.546   8.339   6.685 -0.0730  0.1410 -0.3329
  710loPI   C3B10351  13.606   8.495   7.107  0.0683 -0.3422  0.0035
  710loPI   C4B10352  13.540   8.673   7.472 -0.4105  0.1455 -0.0008
  711loPI    C110353   1.109  11.297   5.073 -0.1853  0.1375  0.1197
  711loPI    C210354   1.391  11.015   5.041 -0.1098  0.2153  0.0926
  711loPI    C310355   1.292  11.235   4.722 -0.3427  0.0549  0.0512
  711loPI   PO410356   1.194  11.435   5.316 -0.0059  0.0253  0.0154
  711loPI   GL110357   1.125  11.237   5.719  0.3428  0.0263  0.1233
  711loPI   GL210358   1.440  11.344   5.891 -0.0377 -0.0476  0.1164
  711loPI   C1A10359   0.973  11.133   6.151  0.0203 -0.5250  0.1783
  711loPI   C2A10360   1.095  11.029   6.526  0.2659 -0.0139 -0.1925
  711loPI   C3A10361   1.163  11.004   6.963 -0.3274 -0.1955 -0.1183
  711loPI   C4A10362   1.115  11.073   7.392  0.0793  0.1289  0.0304
  711loPI   C5A10363   0.883  11.048   7.820 -0.0597  0.1693  0.0967
  711loPI   C6A10364   0.992  10.710   8.132 -0.1236 -0.1168 -0.1473
  711loPI   C1B10365   1.351  11.476   6.353  0.1039 -0.0217 -0.1393
  711loPI   C2B10366   1.393  11.518   6.753  0.4830  0.1163  0.3793
  711loPI   C3B10367   1.338  11.675   7.148  0.0782  0.0355  0.1535
  711loPI   C4B10368   1.306  11.629   7.550  0.1455  0.1197 -0.2607
  712loPI    C110369  11.798  18.491   5.422  0.2349  0.1800 -0.0764
  712loPI    C210370  11.730  18.701   5.756 -0.1517  0.1031 -0.1020
  712loPI    C310371  11.443  18.667   5.480 -0.0026 -0.2400 -0.2194
  712loPI   PO410372  12.066  18.559   5.400 -0.0820  0.3352  0.2131
  712loPI   GL110373  12.205  18.641   5.807  0.0421  0.2788  0.0318
  712loPI   GL210374  12.210  18.255   5.827  0.2124  0.1667  0.2178
  712loPI   C1A10375  11.949  18.519   6.156 -0.3926 -0.0989 -0.1007
  712loPI   C2A10376  11.938  18.518   6.467  0.1452 -0.1143 -0.2525
  712loPI   C3A10377  11.923  18.174   6.739  0.3733 -0.2579  0.0449
  712loPI   C4A10378  12.013  18.150   7.143  0.4579  0.1923 -0.1010
  712loPI   C5A10379  12.085  17.805   7.468  0.0828 -0.1700 -0.3616
  712loPI   C6A10380  12.329  17.510   7.742 -0.1908  0.0142 -0.2152
  712loPI   C1B10381  12.149  18.105   6.285  0.2180  0.1626  0.3795
  712loPI   C2B10382  12.177  17.787   6.594  0.0949 -0.1313  0.1402
  712loPI   C3B10383  11.879  17.648   6.942  0.2495  0.1944  0.2663
  712loPI   C4B10384  11.633  17.610   7.333 -0.0121  0.2447  0.1373
  713loPI    C110385  11.370  12.517   4.696 -0.1398  0.1914 -0.0417
  713loPI    C210386  11.001  12.440   4.830 -0.1354 -0.0244 -0.1492
  713loPI    C310387  11.113  12.817   4.758 -0.3654  0.0353 -0.2034
  713loPI   PO410388  11.567  12.359   4.843 -0.1196  0.0832  0.0618
  713loPI   GL110389  11.794  12.525   5.137  0.1420  0.0654  0.1695
  713loPI   GL210390  12.052  12.514   5.395 -0.0310  0.3039 -0.1296
  713loPI   C1A10391  11.562  12.296   5.550  0.5719 -0.2176  0.2485
  713loPI   C2A10392  11.543  12.049   5.967  0.0782 -0.1950  0.0756
  713loPI   C3A10393  11.547  11.870   6.305  0.0160  0.0688 -0.2005
  713loPI   C4A10394  11.602  11.753   6.739  0.1291 -0.0005 -0.2817
  713loPI   C5A10395  11.589  11.626   7.204 -0.2568 -0.1012  0.0930
  713loPI   C6A10396  11.942  11.463   7.439 -0.0066  0.4014 -0.0430
  713loPI   C1B10397  11.908  12.411   5.838  0.0009  0.0043 -0.4436
  713loPI   C2B10398  11.936  12.368   6.262 -0.0423 -0.1998  0.0953
  713loPI   C3B10399  11.832  12.300   6.681  0.2610  0.1120 -0.1386
  713loPI   C4B10400  11.786  12.446   7.177  0.0786  0.2288  0.1655
  714loPI    C110401  11.293   1.748   5.200  0.0493  0.0296 -0.0741
  714loPI    C210402  11.172   1.408   5.026  0.1836 -0.1359  0.1510
  714loPI    C310403  11.144   1.755   4.828  0.1685 -0.2951 -0.1312
  714loPI   PO410404  11.260   1.798   5.403 -0.0231 -0.1819  0.2251
  714loPI   GL110405  11.164   1.719   5.750 -0.1532  0.1592  0.1522
  714loPI   GL210406  10.932   1.867   5.847  0.3119 -0.0707  0.1100
  714loPI   C1A10407  10.841   1.372   5.879  0.0792  0.0262  0.2537
  714loPI   C2A10408  10.686   1.005   5.980 -0.0620 -0.0038  0.2532
  714loPI   C3A10409  10.828   0.920   6.463 -0.3487 -0.2979 -0.2164
  714loPI   C4A10410  10.885   0.708   6.882 -0.1519 -0.2350 -0.0400
  714loPI   C5A10411  11.048   0.938   7.263 -0.1310  0.3432 -0.1396
  714loPI   C6A10412  11.126   0.860   7.764  0.0500 -0.1213  0.0441
  714loPI   C1B10413  10.865   1.719   6.266 -0.1798 -0.0683 -0.1972
  714loPI   C2B10414  10.790   1.424   6.611  0.2430 -0.0217  0.1988
  714loPI   C3B10415  10.617   1.146   6.929 -0.2662 -0.1435  0.1396
  714loPI   C4B10416  10.473   0.789   7.139  0.3109  0.3671  0.2422
  715loPI    C110417   0.121  14.549   5.239  0.3837 -0.0968 -0.3444
  715loPI    C210418  -0.115  14.297   5.038 -0.1182  0.0239  0.0724
  715loPI    C310419   0.134  14.539   4.839 -0.3686 -0.0805 -0.3826
  715loPI   PO410420   0.180  14.481   5.421  0.1162  0.2260  0.0988
  715loPI   GL110421  -0.032  14.434   5.830 -0.3695 -0.0442 -0.1599
  715loPI   GL210422   0.284  14.224   5.830 -0.0840  0.1390 -0.0632
  715loPI   C1A10423  -0.058  14.077   6.258  0.1551  0.2219  0.1234
  715loPI   C2A10424  -0.078  14.160   6.663 -0.2252  0.0811 -0.1689
  715loPI   C3A10425   0.048  14.158   7.099  0.0901 -0.1244  0.0454
  715loPI   C4A10426   0.306  14.059   7.506 -0.1250 -0.0729 -0.4385
  715loPI   C5A10427   0.808  13.972   7.588 -0.2948 -0.2811  0.0438
  715loPI   C6A10428   1.087  13.850   7.891  0.2088 -0.1829  0.2983
  715loPI   C1B10429   0.477  14.077   6.259 -0.1214  0.2306 -0.0464
  715loPI   C2B10430   0.477  14.137   6.687 -0.1510  0.1068 -0.2732
  715loPI   C3B10431   0.642  13.994   7.028 -0.0672 -0.1726 -0.0181
  715loPI   C4B10432   0.625  13.589   7.330 -0.0756 -0.0688  0.1598
  716loPI    C110433  13.633  17.676   5.037 -0.1358 -0.0673 -0.0153
  716loPI    C210434  13.807  18.034   5.074 -0.1346 -0.0528 -0.1535
  716loPI    C310435  13.994  17.740   4.876 -0.1388 -0.1284 -0.0466
  716loPI   PO410436  13.479  17.764   5.350 -0.1825  0.2037 -0.0334
  716loPI   GL110437  13.143  17.527   5.563 -0.2058  0.3004 -0.0865
  716loPI   GL210438  13.438  17.364   5.696  0.3495 -0.0159  0.2020
  716loPI   C1A10439  12.802  17.516   5.985  0.0560  0.0009 -0.2217
  716loPI   C2A10440  12.904  17.601   6.422 -0.1304  0.0589  0.0400
  716loPI   C3A10441  12.931  17.699   6.815 -0.0402  0.1830 -0.0765
  716loPI   C4A10442  13.150  17.734   7.257  0.0279  0.0984 -0.2144
  716loPI   C5A10443  13.622  17.901   7.352  0.1698 -0.0413  0.0537
  716loPI   C6A10444  14.065  17.976   7.379  0.1341  0.3205  0.0088
  716loPI   C1B10445  13.724  17.405   6.065 -0.2358  0.2512  0.1385
  716loPI   C2B10446  13.774  17.510   6.384  0.0972 -0.2163 -0.2414
  716loPI   C3B10447  14.060  17.339   6.640 -0.1341 -0.1311  0.1278
  716loPI   C4B10448  14.335  17.082   6.706 -0.2073  0.0501  0.1433
  717loPI    C110449  13.347   0.004   5.212  0.1694  0.2826 -0.1278
  717loPI    C210450  13.622  -0.107   4.943  0.1868  0.2390 -0.0923
  717loPI    C310451  13.265   0.025   4.821  0.0678 -0.1092 -0.1318
  717loPI   PO410452  13.528   0.063   5.468  0.1287  0.3463 -0.0362
  717loPI   GL110453  13.402   0.060   5.925  0.1460 -0.2523  0.1237
  717loPI   GL210454  13.134   0.213   6.020 -0.1554  0.0856  0.3545
  717loPI   C1A10455  13.600   0.196   6.232 -0.3061 -0.5247 -0.0055
  717loPI   C2A10456  13.745   0.451   6.483  0.0750  0.0512 -0.0389
  717loPI   C3A10457  13.915   0.590   6.799 -0.2824  0.2110 -0.0582
  717loPI   C4A10458  14.138   0.403   7.197 -0.1471  0.0040  0.0701
  717loPI   C5A10459  14.435   0.507   7.604 -0.1428  0.0197 -0.1360
  717loPI   C6A10460  14.432   0.636   8.002  0.0661 -0.1454 -0.1168
  717loPI   C1B10461  13.128   0.117   6.437  0.3569  0.1793  0.4455
  717loPI   C2B10462  13.034   0.147   6.872 -0.2369 -0.2226 -0.2301
  717loPI   C3B10463  13.128   0.148   7.254 -0.0385 -0.0672  0.1537
  717loPI   C4B10464  12.957   0.450   7.631 -0.2388  0.0672  0.2661
  718loPI    C110465   5.836  17.395   5.413 -0.0843  0.0549  0.1405
  718loPI    C210466   5.697  17.434   5.039 -0.3742  0.1392  0.2543
  718loPI    C310467   5.730  17.071   5.203  0.3260  0.0448 -0.0605
  718loPI   PO410468   5.640  17.585   5.670 -0.0109  0.0895  0.1672
  718loPI   GL110469   5.301  17.422   6.039 -0.0990 -0.1006 -0.1104
  718loPI   GL210470   5.309  17.818   5.997  0.2409  0.1481 -0.0888
  718loPI   C1A10471   5.239  17.316   6.414 -0.1952 -0.2249  0.0203
  718loPI   C2A10472   5.100  17.129   6.769  0.2522 -0.0239 -0.1153
  718loPI   C3A10473   5.204  17.128   7.202  0.0019 -0.0596  0.1795
  718loPI   C4A10474   5.234  17.151   7.731 -0.0721  0.2744 -0.1183
  718loPI   C5A10475   5.189  17.353   8.110 -0.1401  0.0787 -0.2431
  718loPI   C6A10476   5.023  17.742   8.243  0.0206  0.0542  0.0377
  718loPI   C1B10477   5.216  17.924   6.406  0.1754  0.1081 -0.2915
  718loPI   C2B10478   5.189  18.024   6.817 -0.1271 -0.1383 -0.0226
  718loPI   C3B10479   5.013  17.994   7.295  0.2129  0.0249  0.0504
  718loPI   C4B10480   5.199  17.902   7.754 -0.0982  0.0376 -0.1986
  719loPI    C110481   0.747   2.045   5.507 -0.0724  0.0432  0.0236
  719loPI    C210482   0.642   1.962   5.884  0.1247  0.0621  0.0844
  719loPI    C310483   0.872   1.706   5.680 -0.0333  0.0220 -0.0458
  719loPI   PO410484   0.896   2.286   5.534  0.4632  0.1145 -0.0161
  719loPI   GL110485   1.193   2.414   5.870 -0.1450  0.2616  0.2334
  719loPI   GL210486   1.504   2.311   5.939 -0.3439 -0.1940  0.0264
  719loPI   C1A10487   1.228   2.429   6.329  0.0206  0.3568 -0.5146
  719loPI   C2A10488   1.144   2.429   6.785 -0.1334  0.0076  0.0972
  719loPI   C3A10489   1.092   2.468   7.206 -0.2596  0.1164  0.0602
  719loPI   C4A10490   1.141   2.729   7.453 -0.0491 -0.0826 -0.2002
  719loPI   C5A10491   1.202   3.062   7.840 -0.0092  0.2696  0.3419
  719loPI   C6A10492   1.045   3.013   8.336 -0.1169  0.0488 -0.0963
  719loPI   C1B10493   1.566   2.006   6.173 -0.0370  0.2240  0.1787
  719loPI   C2B10494   1.366   1.967   6.493 -0.0373  0.0553  0.0821
  719loPI   C3B10495   1.290   1.923   6.867  0.0092  0.1047 -0.1763
  719loPI   C4B10496   1.098   1.986   7.338  0.1104 -0.1714 -0.2116
  720loPI    C110497   1.353   6.228   4.747 -0.0549  0.2855  0.1355
  720loPI    C210498   1.515   6.052   4.426  0.1044  0.1861  0.2685
  720loPI    C310499   1.118   6.046   4.480  0.0763  0.2111  0.0699
  720loPI   PO410500   1.627   6.108   4.948  0.3210  0.1789  0.3084
  720loPI   GL110501   1.727   6.200   5.267  0.3149 -0.0420 -0.0894
  720loPI   GL210502   1.591   6.562   5.345 -0.0577  0.2440 -0.0329
  720loPI   C1A10503   1.762   6.162   5.698 -0.0015  0.1759  0.0186
  720loPI   C2A10504   1.669   6.132   6.083 -0.0959  0.1240  0.2842
  720loPI   C3A10505   1.483   6.352   6.370  0.2237 -0.2407 -0.0311
  720loPI   C4A10506   1.328   6.652   6.616 -0.2555 -0.1527 -0.0235
  720loPI   C5A10507   1.127   6.815   6.991 -0.2094 -0.0167  0.0030
  720loPI   C6A10508   0.753   6.757   7.219 -0.1454  0.0489  0.1490
  720loPI   C1B10509   1.333   6.417   5.698  0.1248 -0.0869 -0.2295
  720loPI   C2B10510   1.203   6.658   6.092 -0.0948 -0.1595 -0.0371
  720loPI   C3B10511   0.972   6.927   6.375  0.0440 -0.3219 -0.4741
  720loPI   C4B10512   0.703   6.829   6.685  0.0574  0.0382 -0.1132
  721loPI    C110513   6.838  10.071   5.006  0.1559 -0.0077 -0.1635
  721loPI    C210514   6.518  10.037   4.768 -0.0190  0.0125  0.0652
  721loPI    C310515   6.767  10.348   4.726 -0.0457  0.0136 -0.0924
  721loPI   PO410516   6.811   9.985   5.272 -0.2705 -0.1490  0.0315
  721loPI   GL110517   6.903  10.316   5.653  0.0361  0.0207 -0.1825
  721loPI   GL210518   6.521  10.287   5.534 -0.2102  0.0761 -0.3376
  721loPI   C1A10519   6.999  10.242   6.105  0.0707 -0.0115 -0.0367
  721loPI   C2A10520   7.029  10.277   6.627 -0.0297 -0.4287 -0.4035
  721loPI   C3A10521   7.049  10.033   7.082 -0.0444  0.0605  0.2069
  721loPI   C4A10522   7.040   9.891   7.504  0.2066  0.0353  0.2074
  721loPI   C5A10523   7.113   9.552   7.779  0.1679 -0.1997 -0.1376
  721loPI   C6A10524   7.311   9.121   7.812 -0.1180  0.1013  0.2940
  721loPI   C1B10525   6.521  10.164   5.954 -0.0759  0.1040 -0.0832
  721loPI   C2B10526   6.609  10.099   6.359  0.0162  0.2808  0.0181
  721loPI   C3B10527   6.568  10.058   6.869  0.0292  0.3168 -0.0169
  721loPI   C4B10528   6.598  10.019   7.275 -0.1809 -0.1987  0.4069
  722loPI    C110529  10.104  16.069   5.439  0.0566 -0.1817  0.0169
  722loPI    C210530  10.025  15.678   5.416 -0.2064 -0.1176 -0.2393
  722loPI    C310531  10.026  15.901   5.084  0.1620  0.0604 -0.1240
  722loPI   PO410532   9.987  16.141   5.738  0.0168 -0.3992 -0.0137
  722loPI   GL110533  10.226  16.363   6.137  0.4224 -0.0723 -0.0354
  722loPI   GL210534   9.830  16.250   6.211 -0.0467  0.0845  0.0686
  722loPI   C1A10535  10.177  16.172   6.470 -0.5146  0.3042 -0.0816
  722loPI   C2A10536   9.950  16.090   6.876  0.2767 -0.0837 -0.1317
  722loPI   C3A10537   9.751  16.089   7.228 -0.1084  0.5202  0.1592
  722loPI   C4A10538   9.602  16.060   7.556 -0.0381 -0.2215  0.2398
  722loPI   C5A10539   9.557  16.459   7.869 -0.2309 -0.3420  0.3611
  722loPI   C6A10540   9.826  16.797   7.815 -0.0508 -0.0632 -0.0904
  722loPI   C1B10541   9.871  16.517   6.560  0.0075 -0.2066 -0.0838
  722loPI   C2B10542   9.897  16.598   6.933  0.1174  0.1456  0.0043
  722loPI   C3B10543   9.645  16.538   7.338  0.0109  0.0831  0.3426
  722loPI   C4B10544   9.172  16.601   7.494  0.1327  0.0927  0.1546
  723loPI    C110545  16.826   0.918   4.915  0.1470 -0.1507  0.0608
  723loPI    C210546  16.536   1.055   4.676  0.2031 -0.0130  0.0703
  723loPI    C310547  16.804   0.792   4.536  0.1495 -0.0438  0.0249
  723loPI   PO410548  16.767   0.756   5.137 -0.4319 -0.1461  0.3131
  723loPI   GL110549  16.769   0.964   5.512 -0.0601  0.3522  0.3804
  723loPI   GL210550  16.527   0.634   5.537 -0.1546  0.1617  0.2084
  723loPI   C1A10551  16.753   1.195   5.749  0.0781  0.0136  0.0640
  723loPI   C2A10552  16.705   1.347   6.145 -0.1627  0.0228  0.0238
  723loPI   C3A10553  16.792   1.359   6.574 -0.2584  0.1500  0.2508
  723loPI   C4A10554  16.763   1.440   7.045 -0.2335  0.1197  0.0001
  723loPI   C5A10555  16.602   1.275   7.406 -0.3447  0.3458 -0.2808
  723loPI   C6A10556  16.682   1.056   7.810 -0.0239 -0.1595  0.1387
  723loPI   C1B10557  16.425   0.811   5.874 -0.0020  0.0378 -0.1285
  723loPI   C2B10558  16.480   0.952   6.337  0.0551  0.4009  0.2031
  723loPI   C3B10559  16.437   0.957   6.863 -0.1688  0.0109 -0.1052
  723loPI   C4B10560  16.350   0.883   7.299 -0.1670 -0.0225  0.2154
  724loPI    C110561   6.250  14.453   5.408 -0.0594  0.0612 -0.0450
  724loPI    C210562   6.648  14.420   5.388 -0.0757 -0.1278 -0.0829
  724loPI    C310563   6.425  14.334   5.068 -0.1478 -0.0246 -0.0609
  724loPI   PO410564   6.231  14.429   5.686  0.1453  0.2719 -0.0843
  724loPI   GL110565   6.143  14.388   6.021  0.1596 -0.0374 -0.2618
  724loPI   GL210566   6.155  13.989   5.961  0.2419 -0.1605 -0.4634
  724loPI   C1A10567   6.258  14.311   6.484 -0.1313  0.2628 -0.1210
  724loPI   C2A10568   6.168  14.274   6.936 -0.2537  0.2443 -0.0669
  724loPI   C3A10569   6.261  14.303   7.253  0.1428 -0.0071 -0.3074
  724loPI   C4A10570   6.123  14.081   7.657 -0.0470 -0.1324  0.1335
  724loPI   C5A10571   6.258  13.978   8.072 -0.0983 -0.0711 -0.0342
  724loPI   C6A10572   6.370  14.197   8.425 -0.0316  0.1619 -0.0928
  724loPI   C1B10573   6.087  13.837   6.409 -0.0853 -0.0552 -0.3564
  724loPI   C2B10574   6.166  13.795   6.797 -0.1744  0.0770  0.0985
  724loPI   C3B10575   6.294  13.819   7.259 -0.0960  0.0128  0.1009
  724loPI   C4B10576   6.489  13.753   7.610 -0.2893  0.2430  0.1520
  725loPI    C110577   1.772   6.990   4.527 -0.1666 -0.1255 -0.2230
  725loPI    C210578   1.808   7.098   4.144 -0.1054 -0.3598 -0.2847
  725loPI    C310579   1.979   6.760   4.274  0.0215 -0.1942 -0.0109
  725loPI   PO410580   1.495   7.098   4.620  0.0670  0.0078  0.0041
  725loPI   GL110581   1.253   7.137   5.034  0.0626  0.1642  0.1908
  725loPI   GL210582   0.950   7.210   5.052 -0.0875 -0.1548 -0.2729
  725loPI   C1A10583   1.367   7.030   5.462  0.1100 -0.2144  0.1912
  725loPI   C2A10584   1.539   6.895   5.705  0.0037  0.0196  0.0165
  725loPI   C3A10585   1.704   6.658   6.091 -0.2244  0.0941  0.3614
  725loPI   C4A10586   1.886   6.705   6.442 -0.1369 -0.4327  0.0566
  725loPI   C5A10587   1.756   6.636   6.922 -0.2666  0.1824  0.2343
  725loPI   C6A10588   1.669   6.971   7.189 -0.0666  0.0515  0.1006
  725loPI   C1B10589   0.855   7.201   5.557  0.0482  0.0203 -0.0770
  725loPI   C2B10590   1.135   7.094   5.915 -0.7083 -0.0374  0.1013
  725loPI   C3B10591   1.497   7.097   6.211  0.3214  0.3048  0.1420
  725loPI   C4B10592   1.577   7.082   6.609  0.0987 -0.0532 -0.2218
  726loPI    C110593   6.529   7.190   4.884 -0.0788  0.1889  0.2723
  726loPI    C210594   6.652   7.543   4.743  0.0926 -0.0044 -0.0742
  726loPI    C310595   6.755   7.205   4.554 -0.1754 -0.2333  0.1803
  726loPI   PO410596   6.508   7.191   5.108 -0.2915 -0.1088  0.2254
  726loPI   GL110597   6.754   7.021   5.412 -0.2686 -0.0686  0.1182
  726loPI   GL210598   6.576   6.813   5.568  0.1409  0.0330  0.0383
  726loPI   C1A10599   6.875   7.068   5.823 -0.1315  0.1683 -0.0119
  726loPI   C2A10600   6.946   7.252   6.185 -0.0066  0.0647 -0.3599
  726loPI   C3A10601   6.907   7.081   6.682 -0.2642 -0.0302 -0.0785
  726loPI   C4A10602   7.081   7.226   7.142  0.1109  0.0256 -0.4700
  726loPI   C5A10603   7.265   7.049   7.583  0.2862  0.0393  0.0623
  726loPI   C6A10604   7.551   7.250   7.906  0.1168  0.1744 -0.4416
  726loPI   C1B10605   6.602   6.679   6.050 -0.0897  0.0135  0.2045
  726loPI   C2B10606   6.720   6.624   6.465 -0.1543  0.0553  0.0515
  726loPI   C3B10607   6.596   6.664   6.780  0.0600 -0.0570 -0.2937
  726loPI   C4B10608   6.411   6.542   7.188 -0.3502  0.0469  0.0845
  727loPI    C110609   3.111  14.638   5.304  0.0328 -0.2669 -0.0345
  727loPI    C210610   3.315  14.524   4.979  0.0547 -0.0498 -0.0982
  727loPI    C310611   3.400  14.872   5.158  0.0085 -0.1441  0.1112
  727loPI   PO410612   3.141  14.500   5.462  0.4360  0.2016 -0.0310
  727loPI   GL110613   3.385  14.302   5.810  0.0205 -0.0591  0.0273
  727loPI   GL210614   3.174  13.961   5.641  0.0183  0.1996 -0.2281
  727loPI   C1A10615   3.543  14.173   6.293  0.0012  0.1327 -0.0457
  727loPI   C2A10616   3.691  14.284   6.677 -0.0826  0.0793  0.0027
  727loPI   C3A10617   3.718  14.299   7.123 -0.0603  0.1225  0.2372
  727loPI   C4A10618   3.936  14.361   7.526  0.0515  0.0034 -0.0380
  727loPI   C5A10619   4.164  14.415   7.859  0.0557  0.1178 -0.3984
  727loPI   C6A10620   4.465  14.306   8.143 -0.1414 -0.2328 -0.0733
  727loPI   C1B10621   3.048  13.974   6.044 -0.0416  0.0443  0.0770
  727loPI   C2B10622   3.087  13.897   6.477 -0.1039  0.0395  0.0204
  727loPI   C3B10623   3.200  14.137   6.745 -0.0893  0.0305 -0.0855
  727loPI   C4B10624   3.305  14.570   6.904 -0.2585  0.0086  0.1780
  728loPI    C110625   4.354   8.417   4.677 -0.0076 -0.2243  0.2499
  728loPI    C210626   4.048   8.180   4.577  0.0065 -0.2395  0.2426
  728loPI    C310627   4.016   8.577   4.535  0.1070 -0.2623 -0.0742
  728loPI   PO410628   4.364   8.399   4.976 -0.1354  0.1163  0.4486
  728loPI   GL110629   4.404   8.480   5.480 -0.0678 -0.1476  0.1194
  728loPI   GL210630   4.169   8.611   5.348 -0.1486 -0.2134  0.2716
  728loPI   C1A10631   4.367   8.245   5.831 -0.2971  0.1897 -0.1125
  728loPI   C2A10632   4.241   8.087   6.199 -0.0839 -0.1422 -0.0847
  728loPI   C3A10633   4.165   8.055   6.667 -0.0400 -0.1582 -0.1131
  728loPI   C4A10634   4.136   7.847   7.133  0.0465  0.0025 -0.1247
  728loPI   C5A10635   4.024   7.657   7.569  0.2075  0.1144  0.2630
  728loPI   C6A10636   3.592   7.786   7.743  0.1185  0.1637 -0.0576
  728loPI   C1B10637   3.918   8.514   5.652 -0.3396  0.0632 -0.0885
  728loPI   C2B10638   3.835   8.025   5.857 -0.0024  0.0494 -0.0421
  728loPI   C3B10639   3.882   7.712   6.267  0.4339 -0.3258 -0.3674
  728loPI   C4B10640   3.819   7.437   6.506  0.1147  0.2819 -0.0587
  729loPI    C110641   3.437  10.001   4.984 -0.0000  0.2860 -0.0174
  729loPI    C210642   3.762  10.113   4.780  0.0524  0.1184 -0.0279
  729loPI    C310643   3.401  10.130   4.607  0.0799  0.1115 -0.0862
  729loPI   PO410644   3.474  10.057   5.218  0.1334  0.1283 -0.0490
  729loPI   GL110645   3.327  10.305   5.519 -0.0364 -0.0192  0.2846
  729loPI   GL210646   3.311  10.087   5.820  0.0988 -0.0884  0.0102
  729loPI   C1A10647   3.507  10.580   5.821 -0.0643 -0.2037  0.1681
  729loPI   C2A10648   3.643  10.607   6.247 -0.1835 -0.1237  0.1782
  729loPI   C3A10649   3.853  10.552   6.538  0.0313 -0.0519 -0.3092
  729loPI   C4A10650   3.958  10.676   6.998  0.2360 -0.1143 -0.1230
  729loPI   C5A10651   4.192  11.026   7.172  0.0678  0.1257  0.1210
  729loPI   C6A10652   4.648  11.132   7.241  0.2973 -0.0067  0.0483
  729loPI   C1B10653   3.106   9.866   6.227  0.0477  0.2240 -0.1022
  729loPI   C2B10654   3.300   9.829   6.642 -0.1306 -0.5795 -0.0631
  729loPI   C3B10655   3.507   9.667   7.033  0.2359  0.0844 -0.3023
  729loPI   C4B10656   3.518   9.747   7.563 -0.1078  0.2789 -0.0344
  730loPI    C110657  16.499   5.460   5.072  0.0214  0.0383 -0.0017
  730loPI    C210658  16.807   5.481   4.817  0.0482 -0.0223  0.0252
  730loPI    C310659  16.467   5.302   4.705  0.0209  0.0486 -0.0061
  730loPI   PO410660  16.597   5.363   5.282  0.1969  0.2567 -0.0098
  730loPI   GL110661  16.703   5.294   5.673 -0.1027 -0.3828  0.0358
  730loPI   GL210662  17.037   5.273   5.620  0.0519 -0.0460  0.2803
  730loPI   C1A10663  16.518   5.417   6.098  0.1418 -0.3426 -0.0077
  730loPI   C2A10664  16.489   5.253   6.621  0.1501  0.1287 -0.0873
  730loPI   C3A10665  16.570   5.200   6.972 -0.1535 -0.0933  0.1864
  730loPI   C4A10666  16.811   5.248   7.297  0.1773  0.1954 -0.1549
  730loPI   C5A10667  16.907   5.393   7.804 -0.2151 -0.1603 -0.2412
  730loPI   C6A10668  17.000   5.294   8.180 -0.0601 -0.0690 -0.1849
  730loPI   C1B10669  17.044   5.453   6.049  0.1627  0.3453  0.1470
  730loPI   C2B10670  16.913   5.597   6.420 -0.1429 -0.0620 -0.1800
  730loPI   C3B10671  17.028   5.524   6.864 -0.1449 -0.2407  0.0437
  730loPI   C4B10672  17.483   5.683   7.073 -0.1664  0.2980 -0.0548
  731loPI    C110673  11.710   8.027   5.641 -0.0675 -0.1465 -0.0200
  731loPI    C210674  11.544   7.964   5.283 -0.1824 -0.0496  0.0154
  731loPI    C310675  11.312   8.026   5.603 -0.0794 -0.0765  0.0961
  731loPI   PO410676  11.811   8.281   5.577  0.0954  0.2195 -0.2689
  731loPI   GL110677  11.964   8.611   5.868 -0.0350  0.0571 -0.1968
  731loPI   GL210678  11.838   8.383   6.092 -0.0804  0.0220  0.0981
  731loPI   C1A10679  12.257   8.770   6.098  0.2398  0.0885 -0.0284
  731loPI   C2A10680  12.282   8.784   6.563  0.0109 -0.0992  0.1297
  731loPI   C3A10681  12.419   8.548   6.884  0.0043  0.1310 -0.0705
  731loPI   C4A10682  12.277   8.426   7.202  0.0910 -0.2017  0.1319
  731loPI   C5A10683  12.022   8.466   7.598  0.0143  0.3165 -0.1770
  731loPI   C6A10684  11.596   8.531   7.712  0.1330  0.1375  0.0567
  731loPI   C1B10685  12.077   8.328   6.448  0.1006  0.3419  0.1716
  731loPI   C2B10686  12.096   8.058   6.823  0.0416  0.0147  0.7173
  731loPI   C3B10687  12.045   8.018   7.329 -0.1706  0.1765  0.2797
  731loPI   C4B10688  12.276   8.013   7.731  0.0568 -0.0544 -0.0860
  732loPI    C110689  14.652   1.537   5.024 -0.0420  0.0165  0.0683
  732loPI    C210690  14.325   1.654   4.826 -0.0358  0.0606  0.0840
  732loPI    C310691  14.685   1.681   4.653 -0.0032  0.3242  0.1882
  732loPI   PO410692  14.618   1.581   5.288  0.0524 -0.3890  0.0037
  732loPI   GL110693  14.628   1.580   5.790 -0.0416 -0.0697 -0.2233
  732loPI   GL210694  14.947   1.677   5.810  0.0320 -0.0471  0.1129
  732loPI   C1A10695  14.429   1.561   6.203 -0.4719  0.2859  0.1747
  732loPI   C2A10696  14.248   1.810   6.637  0.1315  0.0309  0.0692
  732loPI   C3A10697  14.355   2.021   7.008  0.1228  0.2162  0.1027
  732loPI   C4A10698  14.377   2.145   7.477  0.0598  0.1071 -0.0708
  732loPI   C5A10699  14.730   2.302   7.848 -0.0153  0.2940 -0.1739
  732loPI   C6A10700  14.862   2.763   8.074  0.3699  0.2140 -0.0051
  732loPI   C1B10701  14.945   1.594   6.247  0.0168 -0.3550 -0.3492
  732loPI   C2B10702  14.995   1.819   6.645  0.2642  0.1780  0.2915
  732loPI   C3B10703  14.695   1.684   6.804 -0.1035 -0.0797  0.0789
  732loPI   C4B10704  14.683   1.700   7.196  0.2237  0.0338  0.0577
  733loPI    C110705  15.423  18.223   5.083 -0.2001  0.0488  0.0501
  733loPI    C210706  15.304  18.247   4.702  0.1311 -0.2044 -0.0744
  733loPI    C310707  15.631  18.443   4.823  0.2144 -0.3860 -0.0008
  733loPI   PO410708  15.086  18.262   5.262  0.0599  0.1066 -0.0465
  733loPI   GL110709  14.999  18.432   5.712  0.3674 -0.0956 -0.1685
  733loPI   GL210710  15.293  18.552   5.624  0.0459  0.2518  0.3461
  733loPI   C1A10711  15.032  18.432   6.139 -0.2218 -0.0292 -0.1541
  733loPI   C2A10712  15.042  18.450   6.660 -0.1622 -0.3222 -0.1617
  733loPI   C3A10713  15.096  18.420   6.989  0.1019  0.2045 -0.0096
  733loPI   C4A10714  15.100  18.421   7.459  0.0583 -0.2001  0.0724
  733loPI   C5A10715  15.243  18.694   7.809 -0.4259  0.3484 -0.0001
  733loPI   C6A10716  15.434  18.541   8.223 -0.1952  0.2351 -0.2563
  733loPI   C1B10717  15.597  18.482   6.010  0.1537 -0.2675 -0.1098
  733loPI   C2B10718  15.458  18.358   6.360  0.5405 -0.1190  0.2058
  733loPI   C3B10719  15.548  18.194   6.719 -0.1007  0.0789  0.1157
  733loPI   C4B10720  15.821  18.285   6.921 -0.1948 -0.0013  0.0605
  734loPI    C110721   9.563  16.441   5.441 -0.3110  0.1070  0.0732
  734loPI    C210722   9.526  16.652   5.103 -0.1354  0.1251  0.0639
  734loPI    C310723   9.820  16.384   5.140 -0.2604 -0.0036  0.1366
  734loPI   PO410724   9.298  16.634   5.562 -0.1382  0.1607 -0.2079
  734loPI   GL110725   8.922  16.536   5.878  0.3679 -0.1984  0.2147
  734loPI   GL210726   9.214  16.630   6.021  0.3900  0.4673  0.2061
  734loPI   C1A10727   8.784  16.334   6.249  0.0535  0.0825 -0.0550
  734loPI   C2A10728   8.959  16.222   6.619 -0.0416 -0.1654  0.3246
  734loPI   C3A10729   8.781  16.268   6.949  0.1204 -0.0799 -0.2683
  734loPI   C4A10730   8.718  16.408   7.314 -0.0747  0.2904 -0.0201
  734loPI   C5A10731   8.970  16.177   7.661 -0.1003  0.1199 -0.1086
  734loPI   C6A10732   9.206  16.002   7.905  0.1417  0.0612  0.1844
  734loPI   C1B10733   9.365  16.488   6.411 -0.3609  0.0598 -0.1436
  734loPI   C2B10734   9.466  16.096   6.625  0.1414 -0.0595 -0.0572
  734loPI   C3B10735   9.487  15.809   6.894 -0.0700  0.3026 -0.1490
  734loPI   C4B10736   9.715  15.614   7.177 -0.1043 -0.0411  0.1663
  735loPI    C110737  14.385  13.283   5.043  0.2198 -0.1469  0.0356
  735loPI    C210738  14.106  12.996   5.037  0.0062  0.0584  0.0382
  735loPI    C310739  14.123  13.266   4.741  0.1506  0.0956  0.0798
  735loPI   PO410740  14.413  13.286   5.338  0.0466 -0.2876  0.4809
  735loPI   GL110741  14.362  13.198   5.739 -0.1565  0.0622 -0.0906
  735loPI   GL210742  14.081  13.071   5.589 -0.1572  0.1937  0.2193
  735loPI   C1A10743  14.120  13.270   6.089 -0.0198 -0.5405  0.0550
  735loPI   C2A10744  14.035  13.180   6.424  0.1608  0.1256 -0.2701
  735loPI   C3A10745  13.979  13.027   6.919 -0.2794  0.3445 -0.1519
  735loPI   C4A10746  13.966  12.825   7.240  0.1373 -0.0827 -0.1534
  735loPI   C5A10747  14.151  12.878   7.717 -0.2204  0.0645 -0.0323
  735loPI   C6A10748  14.039  12.739   8.132  0.0615 -0.0583 -0.2365
  735loPI   C1B10749  14.039  12.738   5.886 -0.0086  0.2130  0.2532
  735loPI   C2B10750  14.122  12.697   6.285  0.1174  0.0300  0.1879
  735loPI   C3B10751  14.023  12.635   6.612 -0.0230  0.0228  0.0271
  735loPI   C4B10752  14.029  12.417   6.932  0.2983  0.0638  0.3903
  736loPI    C110753  12.414   7.290   5.107  0.1441 -0.4920  0.0350
  736loPI    C210754  12.415   7.008   4.823  0.0149 -0.2476 -0.2126
  736loPI    C310755  12.582   7.365   4.752 -0.1340 -0.1388 -0.0273
  736loPI   PO410756  12.485   7.154   5.368 -0.0815  0.3510 -0.3179
  736loPI   GL110757  12.621   7.408   5.727 -0.2629  0.0220 -0.1122
  736loPI   GL210758  12.271   7.443   5.699 -0.2061 -0.3737  0.0162
  736loPI   C1A10759  12.562   7.210   6.125  0.2119  0.1999  0.1680
  736loPI   C2A10760  12.762   7.178   6.560 -0.1385  0.0877 -0.1354
  736loPI   C3A10761  12.607   7.060   6.998  0.0321  0.0853 -0.0500
  736loPI   C4A10762  12.360   6.852   7.391 -0.0933  0.1662 -0.0784
  736loPI   C5A10763  12.446   6.710   7.724  0.0919  0.2469 -0.3469
  736loPI   C6A10764  12.783   6.786   7.910  0.2395 -0.1487 -0.2172
  736loPI   C1B10765  12.096   7.380   6.187 -0.2285  0.2486  0.1239
  736loPI   C2B10766  12.173   7.133   6.561 -0.2612  0.1915  0.0942
  736loPI   C3B10767  12.083   7.180   7.005 -0.1436  0.0298  0.2133
  736loPI   C4B10768  12.300   7.306   7.482 -0.4372 -0.2647 -0.2513
  737loPI    C110769   8.026   1.323   5.005  0.0735  0.0555 -0.0226
  737loPI    C210770   8.308   1.206   4.747  0.0697  0.0867 -0.0409
  737loPI    C310771   7.952   1.327   4.612  0.0125 -0.0479 -0.0128
  737loPI   PO410772   8.204   1.250   5.213 -0.2168 -0.0666 -0.2081
  737loPI   GL110773   8.115   1.218   5.603 -0.1641  0.3012  0.1059
  737loPI   GL210774   8.293   1.454   5.882 -0.1237 -0.2196 -0.1338
  737loPI   C1A10775   8.176   0.903   6.031 -0.1016  0.0101 -0.3652
  737loPI   C2A10776   8.236   0.842   6.540 -0.0680 -0.1372  0.0687
  737loPI   C3A10777   8.597   0.762   6.866  0.1380 -0.0453  0.0987
  737loPI   C4A10778   8.604   0.796   7.297 -0.1478 -0.3720  0.0518
  737loPI   C5A10779   8.774   1.083   7.566  0.0286 -0.2818  0.0240
  737loPI   C6A10780   8.929   1.200   7.899 -0.1292 -0.0079 -0.0168
  737loPI   C1B10781   8.184   1.382   6.308  0.0347  0.0461  0.0632
  737loPI   C2B10782   8.081   1.611   6.757  0.2033  0.0151  0.2962
  737loPI   C3B10783   7.979   1.513   7.208  0.0661 -0.0245  0.0471
  737loPI   C4B10784   7.599   1.280   7.413 -0.1844 -0.0237 -0.1139
  738loPI    C110785  14.650  12.778   5.158  0.0161  0.3281 -0.1833
  738loPI    C210786  14.685  12.395   5.046 -0.1542  0.2273  0.0970
  738loPI    C310787  14.899  12.678   4.861  0.1373 -0.0299  0.0319
  738loPI   PO410788  14.479  12.769   5.329  0.2118  0.0319  0.1749
  738loPI   GL110789  14.489  12.723   5.673  0.0241  0.0627 -0.3701
  738loPI   GL210790  14.760  12.703   5.794 -0.3037 -0.1166 -0.1280
  738loPI   C1A10791  14.556  13.016   6.127 -0.2230  0.1705  0.1459
  738loPI   C2A10792  14.463  13.000   6.526  0.2122  0.0690  0.1008
  738loPI   C3A10793  14.449  12.749   6.921  0.0310  0.2126 -0.1639
  738loPI   C4A10794  14.426  12.539   7.280 -0.1115 -0.1714 -0.3220
  738loPI   C5A10795  14.143  12.341   7.495 -0.0015  0.4116  0.2253
  738loPI   C6A10796  14.221  12.353   7.934  0.3794 -0.0433  0.0177
  738loPI   C1B10797  14.601  12.476   6.082  0.1020  0.0413 -0.3803
  738loPI   C2B10798  14.510  12.326   6.523  0.0733 -0.3172  0.1220
  738loPI   C3B10799  14.759  12.247   6.913  0.0014  0.3099  0.1586
  738loPI   C4B10800  14.762  12.108   7.284 -0.2350 -0.1982  0.1300
  739loPI    C110801   0.296  10.146   5.440 -0.2059 -0.1034  0.0736
  739loPI    C210802   0.161  10.479   5.265 -0.0147 -0.1397 -0.1485
  739loPI    C310803   0.535  10.464   5.406 -0.0441 -0.2395 -0.0798
  739loPI   PO410804   0.150  10.159   5.724  0.0041  0.0082 -0.0721
  739loPI   GL110805   0.185  10.142   6.176 -0.0163  0.0385  0.2096
  739loPI   GL210806   0.489   9.938   6.078  0.1728 -0.1565 -0.2573
  739loPI   C1A10807   0.239  10.137   6.582 -0.3106 -0.1526 -0.0628
  739loPI   C2A10808   0.409   9.816   6.870  0.1343 -0.0411  0.0267
  739loPI   C3A10809   0.439   9.878   7.278 -0.0988 -0.1292 -0.1814
  739loPI   C4A10810   0.429   9.805   7.684  0.1275 -0.0880 -0.2576
  739loPI   C5A10811   0.626   9.521   7.964  0.1887 -0.0268  0.0239
  739loPI   C6A10812   0.809   9.156   8.172 -0.1413 -0.1954 -0.2250
  739loPI   C1B10813   0.673  10.198   6.462  0.0059 -0.1360  0.1043
  739loPI   C2B10814   0.801  10.181   6.876 -0.2445  0.3750 -0.1104
  739loPI   C3B10815   0.487  10.322   7.076  0.4058 -0.0372 -0.1285
  739loPI   C4B10816   0.365  10.320   7.543  0.0482 -0.0957 -0.0285
  740loPI    C110817   3.869  15.621   5.404 -0.2360  0.0535 -0.1003
  740loPI    C210818   3.626  15.933   5.464 -0.1136  0.1496 -0.1007
  740loPI    C310819   3.614  15.734   5.117 -0.1541  0.1874 -0.1211
  740loPI   PO410820   3.840  15.507   5.685 -0.0744  0.1182 -0.0231
  740loPI   GL110821   3.637  15.698   6.125  0.0589 -0.5559  0.0008
  740loPI   GL210822   3.680  16.036   5.991  0.2011  0.2165 -0.1596
  740loPI   C1A10823   3.934  15.681   6.435  0.1665  0.1839 -0.0330
  740loPI   C2A10824   4.012  15.681   6.868  0.4187 -0.1857  0.1146
  740loPI   C3A10825   3.998  15.588   7.320  0.0767  0.0960  0.3266
  740loPI   C4A10826   4.022  15.365   7.727  0.1044 -0.1733  0.4119
  740loPI   C5A10827   4.444  15.185   7.841  0.0033 -0.0344  0.2263
  740loPI   C6A10828   4.512  14.879   8.159  0.0687  0.2204 -0.1664
  740loPI   C1B10829   3.523  16.126   6.456 -0.0055  0.1377  0.3936
  740loPI   C2B10830   3.693  16.140   6.912  0.1649 -0.2725  0.1334
  740loPI   C3B10831   3.529  15.922   7.283  0.0217  0.2213 -0.0109
  740loPI   C4B10832   3.227  15.661   7.556 -0.2050 -0.2677  0.0496
  741loPI    C110833  11.430   7.476   5.107  0.0932  0.0703 -0.0504
  741loPI    C210834  11.152   7.356   4.845 -0.0206  0.2071  0.0063
  741loPI    C310835  11.535   7.383   4.733 -0.0004 -0.1532 -0.0230
  741loPI   PO410836  11.407   7.404   5.374 -0.1544 -0.2292 -0.2025
  741loPI   GL110837  11.391   7.335   5.760  0.2775 -0.1473 -0.1416
  741loPI   GL210838  11.698   7.571   5.730 -0.1034  0.1637 -0.3585
  741loPI   C1A10839  11.254   7.573   6.077  0.1422  0.2579  0.1210
  741loPI   C2A10840  11.249   7.468   6.446  0.0434  0.0790 -0.0642
  741loPI   C3A10841  11.263   7.262   6.821 -0.0729 -0.0582 -0.4201
  741loPI   C4A10842  11.424   7.222   7.177  0.1040  0.1578  0.0849
  741loPI   C5A10843  11.271   7.170   7.550  0.0245  0.1098 -0.0056
  741loPI   C6A10844  11.096   7.032   7.998  0.1045  0.0519 -0.1467
  741loPI   C1B10845  11.692   7.757   6.102  0.0421 -0.1310 -0.0649
  741loPI   C2B10846  11.730   7.701   6.528 -0.0992  0.0689 -0.2816
  741loPI   C3B10847  11.767   7.540   6.901  0.0968  0.2115 -0.1193
  741loPI   C4B10848  11.916   7.555   7.307  0.1778 -0.1539 -0.0967
  742loPI    C110849   7.944   2.762   5.125  0.0396 -0.1689  0.0667
  742loPI    C210850   7.746   3.098   5.033 -0.0311 -0.1960  0.1194
  742loPI    C310851   7.953   2.904   4.751 -0.1373 -0.2056  0.0477
  742loPI   PO410852   8.002   2.751   5.360  0.0412 -0.3304 -0.1026
  742loPI   GL110853   7.790   2.688   5.719 -0.0543  0.3682 -0.1464
  742loPI   GL210854   7.431   2.925   5.821  0.0435  0.0485  0.1124
  742loPI   C1A10855   7.562   2.559   6.150 -0.0538 -0.2375 -0.4092
  742loPI   C2A10856   7.287   2.527   6.461 -0.3109 -0.1317 -0.0137
  742loPI   C3A10857   7.295   2.626   6.919 -0.1880  0.0693 -0.1234
  742loPI   C4A10858   7.364   2.797   7.312 -0.1129 -0.0180  0.1796
  742loPI   C5A10859   7.411   3.085   7.627 -0.0423  0.0157  0.0994
  742loPI   C6A10860   7.336   3.378   8.018  0.1151 -0.0878 -0.0516
  742loPI   C1B10861   7.282   3.028   6.217  0.0241  0.5469  0.0528
  742loPI   C2B10862   7.356   3.168   6.726  0.1629 -0.0257  0.1574
  742loPI   C3B10863   7.598   3.232   7.104  0.1571 -0.0871  0.1381
  742loPI   C4B10864   7.889   3.122   7.358  0.1438  0.1891 -0.2181
  743loPI    C110865   7.058  11.109   5.098  0.1388 -0.0940 -0.1087
  743loPI    C210866   6.832  11.166   4.773 -0.0100  0.1707  0.0378
  743loPI    C310867   7.113  11.434   4.870  0.2912 -0.0972 -0.0774
  743loPI   PO410868   6.907  11.002   5.321 -0.1987  0.1069  0.1535
  743loPI   GL110869   6.789  11.133   5.754 -0.0973 -0.1489  0.1253
  743loPI   GL210870   7.008  11.267   5.866 -0.2129  0.0142 -0.0584
  743loPI   C1A10871   6.430  11.234   5.960  0.1572 -0.1220  0.1480
  743loPI   C2A10872   6.417  11.061   6.381  0.2784 -0.0744  0.2254
  743loPI   C3A10873   6.437  11.388   6.710 -0.1202 -0.0645  0.0031
  743loPI   C4A10874   6.668  11.410   7.067 -0.0374  0.0965  0.2013
  743loPI   C5A10875   6.985  11.391   7.372  0.1055  0.0759 -0.1569
  743loPI   C6A10876   7.023  11.590   7.784 -0.1465  0.1462 -0.0903
  743loPI   C1B10877   6.843  11.206   6.265  0.0064 -0.0329  0.0790
  743loPI   C2B10878   6.948  11.384   6.631 -0.0558 -0.0452 -0.0235
  743loPI   C3B10879   7.153  11.600   6.981  0.2995 -0.1260 -0.1141
  743loPI   C4B10880   6.913  11.887   7.133  0.0510 -0.0454  0.1025
  744loPI    C110881   3.580   3.700   4.844 -0.2151  0.0720 -0.0001
  744loPI    C210882   3.235   3.591   4.675 -0.1070  0.1181 -0.2553
  744loPI    C310883   3.292   3.971   4.786 -0.1625  0.0963 -0.1506
  744loPI   PO410884   3.632   3.592   5.069 -0.3199 -0.2316  0.0624
  744loPI   GL110885   4.081   3.623   5.314 -0.0839 -0.2410 -0.3613
  744loPI   GL210886   3.848   3.759   5.584  0.0106 -0.1395 -0.1734
  744loPI   C1A10887   4.183   3.446   5.705 -0.2595  0.2539  0.1291
  744loPI   C2A10888   4.319   3.594   6.080  0.0428  0.0591 -0.1140
  744loPI   C3A10889   4.363   3.569   6.482  0.1069  0.0354 -0.3400
  744loPI   C4A10890   4.344   3.503   6.943 -0.2813 -0.0133 -0.0666
  744loPI   C5A10891   4.600   3.370   7.372 -0.0869  0.2614 -0.2507
  744loPI   C6A10892   4.419   3.293   7.883 -0.4281  0.2295 -0.3530
  744loPI   C1B10893   3.878   3.746   5.972  0.2227 -0.3417 -0.0709
  744loPI   C2B10894   3.870   3.756   6.432  0.1981  0.2423 -0.1844
  744loPI   C3B10895   3.586   3.855   6.796 -0.0593  0.0665  0.4102
  744loPI   C4B10896   3.645   4.211   7.173 -0.0801  0.4484  0.0075
  745loPI    C110897   7.263   4.343   4.922 -0.0325  0.0412  0.2155
  745loPI    C210898   6.976   4.246   4.662  0.3346 -0.1529 -0.1297
  745loPI    C310899   7.056   4.630   4.737  0.0953 -0.0969 -0.1518
  745loPI   PO410900   7.301   4.076   5.141 -0.1304 -0.1402  0.1623
  745loPI   GL110901   7.373   3.949   5.575 -0.2661 -0.0635 -0.1896
  745loPI   GL210902   7.150   4.133   5.644  0.0503 -0.4373 -0.0325
  745loPI   C1A10903   7.721   3.770   5.916  0.2710  0.0716  0.2155
  745loPI   C2A10904   7.798   3.598   6.307 -0.0305  0.0334  0.1144
  745loPI   C3A10905   7.656   3.565   6.728 -0.1742  0.2498  0.0031
  745loPI   C4A10906   7.718   3.741   7.120 -0.0801  0.1288  0.0659
  745loPI   C5A10907   8.034   4.022   7.264 -0.1981 -0.0233  0.1929
  745loPI   C6A10908   8.210   4.344   7.344 -0.0026 -0.0797  0.1035
  745loPI   C1B10909   7.143   3.797   6.052 -0.4931 -0.1905  0.1332
  745loPI   C2B10910   7.224   3.687   6.494 -0.0977 -0.1644  0.6420
  745loPI   C3B10911   7.171   3.622   6.951  0.0392  0.2937 -0.1588
  745loPI   C4B10912   7.061   3.313   7.301  0.0575 -0.1627  0.1593
  746loPI    C110913  14.364  11.433   4.923 -0.3804  0.4098 -0.1196
  746loPI    C210914  14.661  11.347   4.669 -0.1821  0.1686  0.1856
  746loPI    C310915  14.280  11.309   4.552 -0.0964  0.3082 -0.1522
  746loPI   PO410916  14.518  11.576   5.085 -0.0578 -0.0825 -0.0964
  746loPI   GL110917  14.491  11.637   5.433 -0.0883  0.1282  0.2286
  746loPI   GL210918  14.831  11.488   5.498  0.1353  0.2690 -0.0572
  746loPI   C1A10919  14.141  11.781   5.780 -0.2514  0.0031  0.1960
  746loPI   C2A10920  14.074  11.634   6.164 -0.0694  0.3002  0.0790
  746loPI   C3A10921  14.179  11.397   6.564 -0.0712  0.1319 -0.1163
  746loPI   C4A10922  14.232  11.434   6.979  0.2585  0.2568  0.0664
  746loPI   C5A10923  14.117  11.400   7.356 -0.0962 -0.2673  0.1304
  746loPI   C6A10924  13.826  11.483   7.611  0.0694 -0.0521  0.3659
  746loPI   C1B10925  14.997  11.462   5.981 -0.0081 -0.0701  0.1362
  746loPI   C2B10926  14.994  11.672   6.364  0.2888  0.0452 -0.1901
  746loPI   C3B10927  15.002  11.610   6.822 -0.0988  0.2725 -0.1108
  746loPI   C4B10928  14.865  11.590   7.221 -0.1554 -0.2182 -0.0912
  747loPI    C110929  17.916  15.418   5.642 -0.1239  0.2419 -0.0561
  747loPI    C210930  17.588  15.201   5.569 -0.0406  0.1378 -0.1260
  747loPI    C310931  17.905  15.031   5.744 -0.0439  0.2524 -0.0065
  747loPI   PO410932  17.894  15.681   5.764 -0.2602  0.0231  0.2067
  747loPI   GL110933  18.082  15.613   6.191 -0.0140  0.0381  0.1205
  747loPI   GL210934  18.129  15.289   6.095  0.1588  0.0801 -0.0901
  747loPI   C1A10935  18.135  15.464   6.686 -0.0347 -0.0270  0.0591
  747loPI   C2A10936  18.319  15.502   7.034  0.2803  0.2113 -0.0107
  747loPI   C3A10937  18.553  15.524   7.423  0.0439  0.0835 -0.1864
  747loPI   C4A10938  18.869  15.409   7.646 -0.0636 -0.2860 -0.2134
  747loPI   C5A10939  19.045  15.626   7.919  0.0934 -0.2896  0.0732
  747loPI   C6A10940  19.082  16.075   8.017  0.1517  0.0669  0.0944
  747loPI   C1B10941  18.030  15.034   6.463 -0.3195 -0.1945 -0.0259
  747loPI   C2B10942  18.100  15.025   6.885 -0.3042  0.1027 -0.0870
  747loPI   C3B10943  18.006  14.737   7.128 -0.1712 -0.1191  0.1668
  747loPI   C4B10944  17.855  14.591   7.521  0.2333 -0.3089  0.1350
  748loPI    C110945   2.405   5.019   4.806  0.0616  0.0817 -0.1468
  748loPI    C210946   2.538   5.216   5.128  0.0529 -0.2021  0.0341
  748loPI    C310947   2.678   5.308   4.765  0.0165  0.1632  0.1092
  748loPI   PO410948   2.355   4.802   4.884  0.0645  0.3183  0.0148
  748loPI   GL110949   2.550   4.500   5.228 -0.2168 -0.2657  0.0538
  748loPI   GL210950   2.501   4.794   5.426 -0.3658 -0.1917 -0.2828
  748loPI   C1A10951   2.500   4.410   5.699 -0.2343  0.1461  0.3142
  748loPI   C2A10952   2.523   4.491   6.094  0.0132  0.0265 -0.2485
  748loPI   C3A10953   2.372   4.451   6.463  0.0498 -0.1045  0.0818
  748loPI   C4A10954   2.309   4.620   6.913 -0.2535  0.2666 -0.2177
  748loPI   C5A10955   2.569   4.831   7.244  0.3593 -0.1459  0.0625
  748loPI   C6A10956   2.639   4.753   7.663  0.1318  0.0293 -0.0078
  748loPI   C1B10957   2.437   4.931   5.867  0.0695  0.0313  0.1296
  748loPI   C2B10958   2.443   4.924   6.344 -0.1294  0.2968 -0.3498
  748loPI   C3B10959   2.457   5.144   6.758 -0.0289 -0.3402  0.2257
  748loPI   C4B10960   2.580   5.378   7.273 -0.0980  0.0967 -0.3586
  749loPI    C110961   9.812   9.901   4.953  0.1223  0.1306 -0.1842
  749loPI    C210962  10.040   9.629   4.768 -0.0765 -0.0348 -0.1897
  749loPI    C310963  10.163  10.009   4.796  0.2976 -0.1653 -0.0053
  749loPI   PO410964   9.724   9.749   5.179 -0.0719  0.0861 -0.1480
  749loPI   GL110965   9.699   9.910   5.599 -0.0488  0.1215 -0.2762
  749loPI   GL210966   9.749  10.175   5.618 -0.2629  0.0709 -0.3779
  749loPI   C1A10967   9.678   9.590   5.906  0.1605 -0.1332  0.0718
  749loPI   C2A10968   9.835   9.449   6.217  0.1174 -0.1118 -0.2983
  749loPI   C3A10969   9.859   9.295   6.695  0.2139 -0.3942 -0.0993
  749loPI   C4A10970  10.038   9.006   7.044  0.1835 -0.0250  0.3374
  749loPI   C5A10971  10.406   8.927   7.247  0.0348 -0.0949 -0.1396
  749loPI   C6A10972  10.616   8.808   7.579 -0.1166 -0.1101  0.2045
  749loPI   C1B10973   9.716  10.445   5.875 -0.0838 -0.1352  0.0059
  749loPI   C2B10974   9.526  10.534   6.233  0.3002  0.0604 -0.1996
  749loPI   C3B10975   9.379  10.519   6.675 -0.0872  0.0087  0.1911
  749loPI   C4B10976   9.501  10.523   7.074 -0.1280 -0.0626 -0.1934
  750loPI    C110977   0.203  13.351   5.061  0.0897 -0.1334  0.0657
  750loPI    C210978   0.353  13.569   4.761 -0.0744  0.1074  0.1552
  750loPI    C310979   0.342  13.170   4.733 -0.0761  0.1267 -0.1520
  750loPI   PO410980   0.344  13.575   5.319  0.0957  0.0956  0.3567
  750loPI   GL110981   0.365  13.514   5.742  0.0713 -0.0967 -0.0896
  750loPI   GL210982   0.091  13.749   5.853 -0.2421  0.4852 -0.1420
  750loPI   C1A10983   0.521  13.526   6.157 -0.1684  0.0242 -0.2871
  750loPI   C2A10984   0.564  13.588   6.542  0.3394 -0.2837  0.1615
  750loPI   C3A10985   0.371  13.546   6.924  0.0359 -0.1296  0.1427
  750loPI   C4A10986  -0.061  13.681   7.293  0.0756 -0.2113  0.3902
  750loPI   C5A10987  -0.185  13.992   7.490 -0.0072  0.3343  0.1882
  750loPI   C6A10988  -0.053  14.058   7.935 -0.1470 -0.1702  0.0671
  750loPI   C1B10989   0.054  13.605   6.316  0.2691 -0.2689 -0.1652
  750loPI   C2B10990  -0.104  13.608   6.745  0.0844 -0.1505 -0.2229
  750loPI   C3B10991  -0.423  13.832   6.979  0.1154  0.4407  0.2267
  750loPI   C4B10992  -0.449  14.271   7.162  0.1344  0.0711 -0.1368
  751loPI    C110993   7.794   1.715   5.188  0.2501 -0.3040 -0.1098
  751loPI    C210994   8.001   1.875   4.885  0.1898 -0.1714 -0.0816
  751loPI    C310995   7.651   1.694   4.815  0.0995 -0.0024 -0.0715
  751loPI   PO410996   8.015   1.706   5.363 -0.1667 -0.0392 -0.2497
  751loPI   GL110997   8.029   1.926   5.681  0.0253 -0.0600 -0.1116
  751loPI   GL210998   7.809   2.154   5.773 -0.1752 -0.3327 -0.0317
  751loPI   C1A10999   8.180   1.965   6.089 -0.1215 -0.2030 -0.3443
  751loPI   C2A11000   8.434   2.091   6.546 -0.1477 -0.0433  0.0454
  751loPI   C3A11001   8.740   2.201   6.899  0.0538 -0.0718 -0.0867
  751loPI   C4A11002   8.921   2.028   7.283 -0.1418  0.2411 -0.0718
  751loPI   C5A11003   8.980   1.665   7.537  0.2051 -0.0914 -0.1156
  751loPI   C6A11004   8.733   1.633   7.935 -0.2263  0.2984 -0.2322
  751loPI   C1B11005   7.774   2.121   6.274  0.1146  0.1543  0.0055
  751loPI   C2B11006   7.727   2.133   6.764 -0.0194  0.0757  0.0138
  751loPI   C3B11007   7.973   2.021   7.004 -0.1316  0.1774 -0.3107
  751loPI   C4B11008   8.387   1.818   7.056 -0.2478 -0.3970 -0.1793
  752loPI    C111009   1.885   9.153   5.584  0.0556  0.0062 -0.1030
  752loPI    C211010   1.991   8.987   5.236 -0.2155  0.2793 -0.3214
  752loPI    C311011   1.688   8.833   5.447  0.0665  0.0021 -0.1092
  752loPI   PO411012   2.047   9.121   5.704  0.0690 -0.1871  0.1057
  752loPI   GL111013   2.107   8.980   6.114 -0.1504  0.0916 -0.0280
  752loPI   GL211014   2.422   9.202   6.142  0.0741 -0.1679 -0.0591
  752loPI   C1A11015   1.931   9.049   6.543 -0.1428 -0.0492 -0.2087
  752loPI   C2A11016   1.754   8.931   6.935 -0.0492 -0.1744 -0.0643
  752loPI   C3A11017   1.785   8.500   7.099 -0.0924 -0.2078 -0.1722
  752loPI   C4A11018   2.198   8.349   7.209  0.0154  0.0151  0.1029
  752loPI   C5A11019   2.502   8.275   7.514 -0.0251 -0.2361 -0.2576
  752loPI   C6A11020   2.624   7.939   7.661  0.1513  0.0439 -0.1295
  752loPI   C1B11021   2.808   9.452   6.222  0.3738 -0.1170 -0.1881
  752loPI   C2B11022   2.935   9.447   6.573 -0.1194  0.2153 -0.0376
  752loPI   C3B11023   2.849   9.533   7.013 -0.1034 -0.3100  0.0578
  752loPI   C4B11024   3.087   9.614   7.400  0.1491 -0.1419 -0.2091
  753loPI    C111025  12.143  13.551   4.833  0.1298  0.1863  0.5250
  753loPI    C211026  12.447  13.741   4.654  0.1457 -0.2706  0.0428
  753loPI    C311027  12.110  13.939   4.741  0.3835  0.1153  0.1059
  753loPI   PO411028  12.311  13.444   5.032 -0.0602 -0.0171 -0.0981
  753loPI   GL111029  12.327  13.350   5.562 -0.0145 -0.1882 -0.4478
  753loPI   GL211030  12.093  13.606   5.717  0.3826  0.0332  0.0329
  753loPI   C1A11031  12.238  13.193   5.993 -0.1840 -0.1451  0.1536
  753loPI   C2A11032  12.237  13.080   6.446  0.1673 -0.3596  0.1079
  753loPI   C3A11033  12.125  13.156   6.845  0.1074  0.0175  0.0640
  753loPI   C4A11034  12.131  13.216   7.201 -0.0097 -0.0197  0.2701
  753loPI   C5A11035  12.391  13.304   7.524 -0.0460 -0.2025 -0.2657
  753loPI   C6A11036  12.451  13.058   7.931 -0.0537 -0.1984 -0.0953
  753loPI   C1B11037  12.142  13.805   6.115  0.1220  0.2202 -0.1187
  753loPI   C2B11038  12.171  13.778   6.518  0.1876 -0.0164 -0.2090
  753loPI   C3B11039  12.201  13.787   6.978 -0.0515  0.2516  0.2426
  753loPI   C4B11040  12.311  13.975   7.324  0.1928 -0.1263  0.0602
  754loPI    C111041  12.150  17.207   5.150 -0.0161  0.1324 -0.0008
  754loPI    C211042  12.030  17.398   5.481  0.2755  0.1346  0.1075
  754loPI    C311043  12.055  17.595   5.134 -0.0014  0.1402  0.0883
  754loPI   PO411044  12.390  17.049   5.241  0.0752 -0.0537  0.0614
  754loPI   GL111045  12.478  17.051   5.655  0.5589  0.2307  0.0881
  754loPI   GL211046  12.319  16.713   5.690  0.3626 -0.0292 -0.0844
  754loPI   C1A11047  12.594  17.072   6.051  0.0040 -0.0555  0.0605
  754loPI   C2A11048  12.856  17.052   6.449 -0.2521 -0.4133  0.0294
  754loPI   C3A11049  12.932  17.105   6.779 -0.1955 -0.2095  0.0475
  754loPI   C4A11050  13.043  17.261   7.118  0.0488 -0.0287 -0.0289
  754loPI   C5A11051  12.816  17.338   7.524  0.0141  0.2591  0.3067
  754loPI   C6A11052  12.733  17.198   7.925 -0.0803 -0.3916  0.2694
  754loPI   C1B11053  12.239  16.629   6.101 -0.1708  0.0065 -0.0604
  754loPI   C2B11054  12.365  16.491   6.452 -0.0666 -0.1049  0.1441
  754loPI   C3B11055  12.479  16.404   6.908  0.2066 -0.2756 -0.2418
  754loPI   C4B11056  12.345  16.403   7.301 -0.2317  0.0292 -0.2266
  755loPI    C111057   4.090  16.136   5.408  0.0835  0.1778 -0.0203
  755loPI    C211058   3.876  16.473   5.442  0.2077  0.2329  0.2409
  755loPI    C311059   4.226  16.476   5.248 -0.0354  0.1362 -0.2140
  755loPI   PO411060   4.092  15.998   5.643  0.3822 -0.0634  0.1112
  755loPI   GL111061   4.133  15.988   6.117 -0.3635 -0.1220  0.2234
  755loPI   GL211062   4.434  15.769   6.255  0.0862 -0.1506 -0.2311
  755loPI   C1A11063   4.205  16.090   6.569 -0.3677 -0.0998  0.0280
  755loPI   C2A11064   4.176  16.107   7.080  0.0366 -0.1355  0.0174
  755loPI   C3A11065   4.426  15.838   7.189  0.2974  0.1199 -0.3051
  755loPI   C4A11066   4.474  15.535   7.560 -0.1802  0.1382  0.0026
  755loPI   C5A11067   4.738  15.686   7.923 -0.0116 -0.0115  0.3238
  755loPI   C6A11068   4.728  15.756   8.421 -0.0508 -0.1059  0.1277
  755loPI   C1B11069   4.691  15.770   6.660  0.0555  0.2005 -0.1406
  755loPI   C2B11070   4.892  15.776   7.066  0.2031  0.2533  0.1475
  755loPI   C3B11071   4.979  15.482   7.418 -0.1753 -0.0830  0.0836
  755loPI   C4B11072   5.038  14.976   7.479 -0.0268 -0.1438  0.1480
  756loPI    C111073  10.178  17.761   5.215 -0.0148  0.0978 -0.1768
  756loPI    C211074  10.041  17.422   5.053  0.0579  0.0627 -0.1653
  756loPI    C311075  10.081  17.749   4.827 -0.4667  0.1994 -0.0718
  756loPI   PO411076  10.257  17.551   5.461  0.1554  0.0342 -0.0556
  756loPI   GL111077  10.267  17.329   5.830  0.1637  0.0732  0.1513
  756loPI   GL211078  10.109  17.075   5.815 -0.5285 -0.2568  0.1485
  756loPI   C1A11079   9.978  17.717   6.046 -0.2202 -0.0197 -0.1419
  756loPI   C2A11080  10.064  17.675   6.438  0.3471 -0.3982 -0.0614
  756loPI   C3A11081   9.910  17.656   6.852 -0.2704  0.0981  0.1115
  756loPI   C4A11082   9.957  17.528   7.185 -0.3104 -0.1555  0.0362
  756loPI   C5A11083   9.791  17.568   7.551  0.1396  0.0683  0.2138
  756loPI   C6A11084   9.844  17.471   7.945  0.3459 -0.1092 -0.0395
  756loPI   C1B11085   9.823  17.227   6.088  0.1438 -0.0887 -0.0765
  756loPI   C2B11086   9.675  17.375   6.399  0.0181 -0.3237  0.0429
  756loPI   C3B11087   9.458  17.432   6.742  0.0883  0.1367  0.0393
  756loPI   C4B11088   9.460  17.522   7.182 -0.0387  0.1516  0.0282
  757loPI    C111089  10.154   0.441   5.195  0.0979  0.0021 -0.1913
  757loPI    C211090  10.061   0.241   5.529  0.0678  0.4368  0.0681
  757loPI    C311091  10.386   0.140   5.320 -0.1902 -0.1701 -0.0608
  757loPI   PO411092  10.038   0.670   5.208 -0.0286  0.0740  0.1099
  757loPI   GL111093   9.848   0.848   5.677 -0.4230  0.1501 -0.3831
  757loPI   GL211094   9.944   1.133   5.639  0.0443 -0.0378 -0.0812
  757loPI   C1A11095   9.629   1.093   6.022  0.2487 -0.0546 -0.0910
  757loPI   C2A11096   9.585   1.172   6.318  0.0000 -0.3523 -0.1856
  757loPI   C3A11097   9.559   0.962   6.671 -0.1196 -0.1111 -0.3851
  757loPI   C4A11098   9.440   0.873   7.105 -0.0044 -0.2186 -0.0097
  757loPI   C5A11099   9.775   0.898   7.369 -0.1331 -0.3032  0.1028
  757loPI   C6A11100  10.221   1.089   7.430  0.2600 -0.0482  0.1728
  757loPI   C1B11101   9.959   1.454   5.974  0.1050  0.0000 -0.0038
  757loPI   C2B11102   9.639   1.631   6.172 -0.2861  0.1726 -0.2101
  757loPI   C3B11103   9.619   1.620   6.684 -0.2947 -0.1364  0.0393
  757loPI   C4B11104   9.684   1.309   7.010 -0.0623  0.1793 -0.0436
  758loPI    C111105  15.833  14.234   5.449 -0.2801  0.0992 -0.0094
  758loPI    C211106  15.501  14.130   5.253 -0.2537  0.2371 -0.1295
  758loPI    C311107  15.859  14.032   5.105 -0.2406  0.0305  0.0336
  758loPI   PO411108  15.764  14.331   5.697 -0.0879  0.0310  0.3490
  758loPI   GL111109  16.191  14.378   5.966 -0.2282 -0.0199 -0.2342
  758loPI   GL211110  16.066  14.054   6.069  0.1087 -0.2533 -0.1407
  758loPI   C1A11111  16.372  14.661   6.345 -0.2645  0.0184 -0.2872
  758loPI   C2A11112  16.465  14.800   6.760  0.2825  0.0957 -0.4788
  758loPI   C3A11113  16.352  14.861   7.162 -0.1418  0.1093 -0.2953
  758loPI   C4A11114  16.343  14.991   7.605  0.0566 -0.1935  0.0722
  758loPI   C5A11115  16.201  15.177   7.880  0.2007  0.1049  0.1831
  758loPI   C6A11116  15.964  15.564   7.913 -0.1553  0.2079  0.0026
  758loPI   C1B11117  15.863  14.250   6.363  0.2316  0.1442  0.0615
  758loPI   C2B11118  15.686  14.188   6.786 -0.1863  0.0275 -0.0772
  758loPI   C3B11119  15.496  14.263   7.226  0.2967  0.0903  0.1511
  758loPI   C4B11120  15.693  14.344   7.498  0.3178 -0.1890 -0.2430
  759loPI    C111121   5.214   9.134   4.895 -0.1518 -0.1671  0.2724
  759loPI    C211122   4.836   9.159   4.764 -0.0711  0.2370  0.1014
  759loPI    C311123   5.033   9.490   4.872  0.1802  0.0108  0.3563
  759loPI   PO411124   5.169   8.955   5.059  0.0799 -0.1659 -0.1403
  759loPI   GL111125   5.147   8.946   5.488  0.1623  0.0633  0.2593
  759loPI   GL211126   5.233   8.597   5.499 -0.0966  0.3124  0.0379
  759loPI   C1A11127   5.221   8.989   5.939  0.0841 -0.2373 -0.0086
  759loPI   C2A11128   5.036   9.220   6.305 -0.1540 -0.5690 -0.2219
  759loPI   C3A11129   4.869   9.336   6.720 -0.2839  0.2643  0.0758
  759loPI   C4A11130   4.799   9.199   7.108 -0.0947 -0.1124  0.3447
  759loPI   C5A11131   4.749   9.085   7.525 -0.0290 -0.3187  0.1560
  759loPI   C6A11132   4.693   8.773   7.780 -0.3275  0.2794  0.0214
  759loPI   C1B11133   5.515   8.633   5.855 -0.2387  0.2949  0.1805
  759loPI   C2B11134   5.501   8.558   6.362 -0.0633  0.1210 -0.1065
  759loPI   C3B11135   5.167   8.353   6.693  0.1758 -0.1629 -0.0653
  759loPI   C4B11136   5.115   7.898   6.807 -0.0521 -0.0541  0.1421
  760loPI    C111137  16.458  16.873   5.347 -0.0303  0.2054  0.0545
  760loPI    C211138  16.213  17.024   5.069  0.0827  0.1606 -0.0700
  760loPI    C311139  16.590  16.929   4.974  0.0945  0.0591  0.0761
  760loPI   PO411140  16.359  17.048   5.572  0.1912  0.1401 -0.0201
  760loPI   GL111141  16.286  17.195   5.959 -0.4101 -0.2444 -0.1609
  760loPI   GL211142  16.036  17.357   5.922 -0.1037  0.2366  0.2790
  760loPI   C1A11143  16.260  17.161   6.401 -0.1930  0.3683 -0.2028
  760loPI   C2A11144  16.235  17.306   6.819  0.2267 -0.1105 -0.0534
  760loPI   C3A11145  16.270  17.352   7.204  0.1083  0.2180 -0.0170
  760loPI   C4A11146  16.253  17.469   7.651  0.1315 -0.1046 -0.0743
  760loPI   C5A11147  16.172  17.315   8.137 -0.0881  0.3221 -0.0580
  760loPI   C6A11148  15.943  17.363   8.496 -0.0784 -0.2379  0.2207
  760loPI   C1B11149  16.078  17.572   6.361 -0.0339 -0.1100  0.2256
  760loPI   C2B11150  15.917  17.749   6.733 -0.0342 -0.3136  0.1409
  760loPI   C3B11151  15.767  17.691   7.185  0.1184 -0.1392 -0.3759
  760loPI   C4B11152  15.788  17.357   7.430  0.1428 -0.0693 -0.0798
  761loPI    C111153   6.751   3.132   5.052  0.0846  0.1465  0.3011
  761loPI    C211154   6.728   2.777   4.868 -0.2487  0.1852  0.2605
  761loPI    C311155   6.913   3.084   4.689  0.1979 -0.0112  0.3718
  761loPI   PO411156   6.812   3.119   5.259 -0.0171 -0.0307 -0.0343
  761loPI   GL111157   6.965   3.080   5.715  0.2236 -0.0183 -0.1347
  761loPI   GL211158   6.652   2.991   5.687  0.1836 -0.1127 -0.0700
  761loPI   C1A11159   6.961   3.345   6.073  0.2058 -0.0348  0.0188
  761loPI   C2A11160   6.812   3.466   6.581  0.1286 -0.1393 -0.0208
  761loPI   C3A11161   6.640   3.470   7.030  0.2974  0.1756  0.0198
  761loPI   C4A11162   6.476   3.209   7.288 -0.0156 -0.0331 -0.2761
  761loPI   C5A11163   6.549   3.243   7.639  0.1223 -0.1783  0.0648
  761loPI   C6A11164   6.849   3.138   7.930 -0.1259  0.1844  0.0148
  761loPI   C1B11165   6.471   3.354   5.931  0.0623 -0.0329 -0.1082
  761loPI   C2B11166   6.037   3.546   6.065  0.0893 -0.1312  0.1113
  761loPI   C3B11167   5.797   3.697   6.491  0.1337 -0.0878  0.0186
  761loPI   C4B11168   5.656   3.741   6.798  0.0968  0.1059 -0.0789
  762loPI    C111169  10.991  15.596   5.525 -0.0122 -0.2688 -0.1612
  762loPI    C211170  10.863  15.358   5.230 -0.1404 -0.1372 -0.2130
  762loPI    C311171  11.072  15.688   5.144  0.0778 -0.2542 -0.1388
  762loPI   PO411172  11.044  15.433   5.713  0.1142  0.2739  0.0120
  762loPI   GL111173  10.842  15.348   6.094 -0.0359 -0.0216 -0.1205
  762loPI   GL211174  10.919  15.593   6.336 -0.3135 -0.0462 -0.1240
  762loPI   C1A11175  10.880  15.002   6.329 -0.0242  0.2360 -0.3274
  762loPI   C2A11176  10.724  14.853   6.593 -0.0047  0.4041 -0.1812
  762loPI   C3A11177  10.631  14.723   7.014  0.1928 -0.1133  0.3361
  762loPI   C4A11178  10.700  14.570   7.422 -0.1461  0.1333 -0.1654
  762loPI   C5A11179  10.758  14.631   7.832 -0.2233  0.3843 -0.0745
  762loPI   C6A11180  10.917  14.644   8.156 -0.2367 -0.0774  0.0870
  762loPI   C1B11181  10.984  15.614   6.810  0.1344 -0.2122  0.1724
  762loPI   C2B11182  11.060  15.503   7.290 -0.0497 -0.0775  0.1431
  762loPI   C3B11183  11.348  15.489   7.572  0.1440  0.3018 -0.0795
  762loPI   C4B11184  11.730  15.258   7.709 -0.2473  0.0873  0.0062
  763loPI    C111185   6.506   3.471   5.334 -0.1315  0.0538 -0.0821
  763loPI    C211186   6.169   3.408   5.539  0.0086 -0.1081  0.1018
  763loPI    C311187   6.285   3.146   5.260 -0.0354 -0.0342  0.0137
  763loPI   PO411188   6.452   3.822   5.277  0.3513  0.0997  0.0305
  763loPI   GL111189   6.293   4.238   5.426 -0.0490  0.0268 -0.1650
  763loPI   GL211190   6.635   4.315   5.613  0.1363  0.3237 -0.2086
  763loPI   C1A11191   6.195   4.564   5.781  0.5222  0.1862  0.1005
  763loPI   C2A11192   6.345   4.655   6.126 -0.1118  0.0285  0.1996
  763loPI   C3A11193   6.327   4.528   6.600  0.2443 -0.0166  0.4387
  763loPI   C4A11194   6.163   4.526   6.949 -0.1783  0.0326  0.0459
  763loPI   C5A11195   6.360   4.841   7.193  0.0627 -0.0226 -0.0870
  763loPI   C6A11196   6.530   5.062   7.574 -0.2364  0.2482 -0.0554
  763loPI   C1B11197   6.811   4.262   5.976  0.0193 -0.1699  0.0117
  763loPI   C2B11198   6.938   4.165   6.398  0.0080  0.1898 -0.3567
  763loPI   C3B11199   6.785   3.975   6.696  0.0408 -0.1314 -0.0490
  763loPI   C4B11200   6.824   3.925   7.121  0.0596  0.0236  0.0890
  764loPI    C111201  11.224  16.181   5.373 -0.0877 -0.0653 -0.0970
  764loPI    C211202  10.860  16.040   5.461 -0.1145 -0.1227 -0.2948
  764loPI    C311203  10.905  16.311   5.170 -0.0627  0.2790  0.0760
  764loPI   PO411204  11.341  16.187   5.676  0.3083  0.2308  0.1709
  764loPI   GL111205  11.118  16.141   6.025 -0.0711  0.1092 -0.2044
  764loPI   GL211206  10.929  15.915   5.913 -0.2898 -0.1829  0.1468
  764loPI   C1A11207  11.172  15.983   6.449  0.0643  0.1055  0.0673
  764loPI   C2A11208  11.041  16.138   6.887 -0.1014  0.0012 -0.1090
  764loPI   C3A11209  11.038  16.127   7.225  0.0519 -0.0073 -0.3395
  764loPI   C4A11210  10.872  15.912   7.478 -0.3026  0.0562 -0.0125
  764loPI   C5A11211  10.936  15.779   7.877 -0.2344 -0.1987  0.0627
  764loPI   C6A11212  11.345  15.604   8.129  0.3046  0.1255  0.1024
  764loPI   C1B11213  10.715  16.091   6.356  0.2520 -0.1250 -0.0323
  764loPI   C2B11214  10.584  15.900   6.641 -0.2265 -0.0626 -0.3684
  764loPI   C3B11215  10.490  15.855   7.056  0.1277  0.2266  0.0313
  764loPI   C4B11216  10.176  15.778   7.254  0.0453 -0.1767 -0.1042
  765loPI    C111217   3.152  12.156   5.157  0.1811 -0.3372  0.0215
  765loPI    C211218   3.468  12.296   5.358  0.1284 -0.0430 -0.0955
  765loPI    C311219   3.355  12.470   5.016 -0.0299 -0.2832 -0.1684
  765loPI   PO411220   3.012  12.067   5.394 -0.4026  0.2947  0.1516
  765loPI   GL111221   2.636  12.120   5.625  0.1147  0.0439 -0.1589
  765loPI   GL211222   2.890  12.203   5.895 -0.1491  0.0454 -0.1910
  765loPI   C1A11223   2.542  11.869   6.023  0.3368 -0.0493  0.1088
  765loPI   C2A11224   2.608  11.895   6.467  0.2561  0.1344 -0.1727
  765loPI   C3A11225   2.671  12.031   6.927 -0.3446 -0.2284 -0.2396
  765loPI   C4A11226   2.951  12.334   7.240 -0.1938 -0.0615  0.1525
  765loPI   C5A11227   2.850  12.697   7.649  0.0640 -0.2092  0.0646
  765loPI   C6A11228   2.477  13.061   7.589 -0.0419  0.0393  0.0703
  765loPI   C1B11229   3.110  12.058   6.202  0.0020 -0.0756 -0.1252
  765loPI   C2B11230   3.072  12.172   6.627  0.0483 -0.1635 -0.1241
  765loPI   C3B11231   3.210  11.978   7.017  0.1429 -0.0346  0.2322
  765loPI   C4B11232   3.367  11.707   7.334  0.1704 -0.1111 -0.1551
  766loPI    C111233  16.391  15.779   5.532  0.0286 -0.0044  0.0669
  766loPI    C211234  16.606  16.110   5.467 -0.0860  0.0551 -0.0133
  766loPI    C311235  16.710  15.766   5.291  0.0754  0.0306  0.1267
  766loPI   PO411236  16.118  15.862   5.578  0.3649 -0.1242 -0.1035
  766loPI   GL111237  15.802  16.131   5.794  0.3650  0.0817  0.0411
  766loPI   GL211238  15.669  16.401   5.794 -0.0625  0.0217  0.1991
  766loPI   C1A11239  15.825  15.930   6.201 -0.1485 -0.1442 -0.0256
  766loPI   C2A11240  15.939  15.966   6.626  0.6483 -0.0429 -0.2341
  766loPI   C3A11241  15.961  15.972   7.062  0.2963  0.1446  0.3105
  766loPI   C4A11242  16.011  15.891   7.465 -0.0495  0.0563  0.1626
  766loPI   C5A11243  16.233  16.067   7.738 -0.2455  0.1039 -0.3168
  766loPI   C6A11244  16.586  16.090   8.036 -0.3562 -0.0624  0.0193
  766loPI   C1B11245  15.668  16.411   6.214  0.0776 -0.0644 -0.0298
  766loPI   C2B11246  15.882  16.421   6.553 -0.0323 -0.0008  0.1837
  766loPI   C3B11247  16.016  16.452   6.962 -0.2591 -0.2192 -0.2335
  766loPI   C4B11248  16.087  16.474   7.405 -0.1011  0.4222 -0.2197
  767loPI    C111249  12.210   6.542   5.006 -0.1456 -0.2128 -0.1184
  767loPI    C211250  12.068   6.880   5.165  0.1751 -0.1195 -0.0224
  767loPI    C311251  11.904   6.732   4.831 -0.2765 -0.1295  0.1950
  767loPI   PO411252  12.270   6.332   5.231 -0.1449 -0.0094  0.1561
  767loPI   GL111253  12.121   6.281   5.634 -0.0107  0.0242 -0.1232
  767loPI   GL211254  12.200   6.647   5.592 -0.5878  0.0093  0.2919
  767loPI   C1A11255  12.010   6.208   6.070  0.3488  0.1745 -0.5493
  767loPI   C2A11256  11.877   6.134   6.477  0.2171 -0.1378  0.0789
  767loPI   C3A11257  11.830   6.312   6.843 -0.2176  0.3322  0.1063
  767loPI   C4A11258  11.970   6.446   7.204  0.2561  0.3340  0.1669
  767loPI   C5A11259  11.878   6.809   7.339 -0.1738 -0.0725  0.0555
  767loPI   C6A11260  11.758   7.160   7.573 -0.1197  0.0153  0.1115
  767loPI   C1B11261  12.345   6.705   6.018 -0.2281  0.1268 -0.4301
  767loPI   C2B11262  12.486   6.716   6.364 -0.0200 -0.2483 -0.4265
  767loPI   C3B11263  12.809   6.541   6.575 -0.1660  0.3053 -0.1292
  767loPI   C4B11264  13.121   6.865   6.797 -0.2362 -0.2303  0.0164
  768loPI    C111265   0.184  17.428   5.015  0.2210 -0.0878  0.0007
  768loPI    C211266  -0.140  17.252   4.861  0.2127 -0.1799  0.1222
  768loPI    C311267   0.181  17.032   4.956  0.2886 -0.0974  0.0589
  768loPI   PO411268   0.115  17.575   5.181 -0.2462 -0.0557 -0.1366
  768loPI   GL111269   0.136  17.566   5.668 -0.1283  0.1604  0.3042
  768loPI   GL211270   0.320  17.816   5.595  0.1781  0.0694  0.2424
  768loPI   C1A11271   0.175  17.623   6.133  0.2839 -0.1629  0.0212
  768loPI   C2A11272   0.147  17.545   6.504 -0.2179  0.0413 -0.0066
  768loPI   C3A11273   0.159  17.590   6.998  0.1829  0.0444 -0.0584
  768loPI   C4A11274   0.171  17.761   7.438  0.2659  0.2272 -0.1817
  768loPI   C5A11275  -0.119  18.011   7.609  0.1224 -0.0292 -0.0311
  768loPI   C6A11276  -0.277  18.384   7.700  0.0345 -0.2119  0.0422
  768loPI   C1B11277  -0.058  18.031   5.921 -0.1572 -0.1064  0.1428
  768loPI   C2B11278  -0.196  18.106   6.269 -0.2827  0.3786  0.0903
  768loPI   C3B11279  -0.144  18.412   6.590 -0.2158  0.3581  0.1800
  768loPI   C4B11280  -0.364  18.635   7.043  0.1592  0.1961 -0.1588
  769loPI    C111281  15.236  10.801   5.194  0.1094 -0.1094 -0.0154
  769loPI    C211282  14.969  10.652   4.937  0.0963 -0.2866  0.0999
  769loPI    C311283  15.240  10.411   5.106  0.2563 -0.1281  0.0713
  769loPI   PO411284  15.124  11.069   5.360 -0.0994 -0.2819 -0.1019
  769loPI   GL111285  15.043  10.912   5.735 -0.3654  0.1995 -0.0337
  769loPI   GL211286  14.732  10.948   5.717  0.1312  0.0857 -0.1317
  769loPI   C1A11287  14.922  10.806   6.194 -0.1514  0.1102 -0.1417
  769loPI   C2A11288  14.801  10.788   6.654 -0.4280 -0.0669 -0.2478
  769loPI   C3A11289  14.708  10.682   7.065  0.1464 -0.1099 -0.2477
  769loPI   C4A11290  14.414  10.466   7.372  0.0650  0.4114  0.1434
  769loPI   C5A11291  14.461  10.646   7.710  0.2214 -0.3064 -0.0745
  769loPI   C6A11292  14.519  10.620   8.187  0.1098 -0.2230 -0.3872
  769loPI   C1B11293  14.359  10.888   6.001  0.2307 -0.1933 -0.1842
  769loPI   C2B11294  14.251  10.740   6.450 -0.0169 -0.0220 -0.0314
  769loPI   C3B11295  14.290  10.875   6.813 -0.1536  0.0747 -0.0210
  769loPI   C4B11296  14.181  10.932   7.253  0.0044  0.0041  0.3876
  770loPI    C111297  17.090  18.517   4.897  0.0873  0.1490  0.1948
  770loPI    C211298  17.351  18.741   4.692 -0.0900  0.2327  0.0584
  770loPI    C311299  17.032  18.586   4.507  0.0456 -0.1594  0.1441
  770loPI   PO411300  17.055  18.646   5.096  0.1057  0.2883  0.1323
  770loPI   GL111301  17.016  18.813   5.513  0.2527 -0.0430  0.3040
  770loPI   GL211302  17.036  19.112   5.523 -0.3256 -0.2765  0.0364
  770loPI   C1A11303  16.772  18.942   5.880  0.2682  0.0091 -0.0407
  770loPI   C2A11304  16.748  19.021   6.294  0.1836 -0.1937 -0.1449
  770loPI   C3A11305  16.729  19.070   6.686  0.0597  0.0615 -0.0108
  770loPI   C4A11306  16.732  19.127   7.115  0.1020 -0.0202  0.1401
  770loPI   C5A11307  16.527  19.082   7.541 -0.2278  0.0850  0.1619
  770loPI   C6A11308  16.592  19.238   7.951 -0.1732  0.1487 -0.1022
  770loPI   C1B11309  17.074  19.386   5.907 -0.0433 -0.0616 -0.3596
  770loPI   C2B11310  16.968  19.586   6.298  0.2385 -0.1271  0.1289
  770loPI   C3B11311  16.924  19.505   6.695 -0.3734  0.1318 -0.3337
  770loPI   C4B11312  16.936  19.608   7.159 -0.1319  0.2860  0.1438
  771loPI    C111313   8.248   0.131   5.296  0.1033  0.1119  0.0302
  771loPI    C211314   8.136   0.307   4.954 -0.0475 -0.1693 -0.0686
  771loPI    C311315   8.040  -0.075   5.024  0.2275 -0.1996  0.1664
  771loPI   PO411316   8.280   0.276   5.480 -0.1671  0.0021 -0.0984
  771loPI   GL111317   8.496   0.435   5.761 -0.1700  0.3374  0.1337
  771loPI   GL211318   8.724   0.649   5.813  0.1129  0.0066 -0.2712
  771loPI   C1A11319   8.187   0.293   6.181 -0.0896 -0.0830 -0.1086
  771loPI   C2A11320   8.161   0.362   6.622 -0.1752  0.0379 -0.2814
  771loPI   C3A11321   8.161   0.548   7.021  0.2198  0.3492 -0.1627
  771loPI   C4A11322   8.277   0.390   7.444  0.1391 -0.0005 -0.2477
  771loPI   C5A11323   8.375   0.152   7.842 -0.4076 -0.0897 -0.1270
  771loPI   C6A11324   8.324   0.014   8.269  0.1799 -0.1069 -0.3432
  771loPI   C1B11325   8.639   0.672   6.246  0.0134 -0.0646  0.1320
  771loPI   C2B11326   8.668   0.363   6.631  0.2887  0.0852  0.0137
  771loPI   C3B11327   8.527   0.167   6.989  0.4167  0.2213 -0.3401
  771loPI   C4B11328   8.559  -0.074   7.416  0.0580  0.1903 -0.3568
  772loPI    C111329   0.965   2.524   4.851  0.0992  0.0164  0.0245
  772loPI    C211330   0.793   2.217   5.040 -0.1373  0.3007  0.2810
  772loPI    C311331   0.634   2.357   4.701 -0.0134  0.1259  0.1489
  772loPI   PO411332   1.021   2.756   5.073 -0.1712  0.0917 -0.3243
  772loPI   GL111333   0.879   3.071   5.313 -0.1664 -0.2363  0.0716
  772loPI   GL211334   0.957   2.810   5.621 -0.0274 -0.0973  0.1489
  772loPI   C1A11335   0.876   3.239   5.734 -0.0854 -0.1542 -0.1518
  772loPI   C2A11336   0.880   3.325   6.221 -0.0769  0.4324 -0.1666
  772loPI   C3A11337   0.872   3.453   6.543 -0.0298  0.1391  0.2143
  772loPI   C4A11338   0.866   3.478   6.985  0.2329 -0.0855 -0.4726
  772loPI   C5A11339   1.312   3.368   7.262 -0.0940  0.2367 -0.1152
  772loPI   C6A11340   1.580   3.097   7.484  0.2068 -0.0523 -0.1132
  772loPI   C1B11341   0.978   2.828   6.112  0.1738 -0.1530  0.1849
  772loPI   C2B11342   0.936   2.846   6.536 -0.1855  0.1933 -0.0329
  772loPI   C3B11343   0.851   2.908   7.071  0.0232 -0.2857 -0.0283
  772loPI   C4B11344   0.813   3.237   7.440  0.0641  0.2033  0.0620
  773loPI    C111345   4.772  12.021   5.126  0.0567 -0.0288 -0.0392
  773loPI    C211346   4.442  11.798   5.091 -0.0019  0.0788 -0.1761
  773loPI    C311347   4.796  11.648   4.982 -0.0089 -0.0271 -0.0549
  773loPI   PO411348   4.702  12.196   5.384 -0.2457 -0.0212 -0.1194
  773loPI   GL111349   4.800  12.333   5.737  0.2852  0.0089  0.0019
  773loPI   GL211350   5.061  12.456   5.686  0.1014 -0.1705 -0.3382
  773loPI   C1A11351   4.798  11.985   6.014 -0.0652 -0.2520  0.0772
  773loPI   C2A11352   4.766  12.045   6.397 -0.0252  0.0079  0.0955
  773loPI   C3A11353   4.634  12.072   6.844  0.3386 -0.1383  0.0027
  773loPI   C4A11354   4.486  12.138   7.359  0.1290  0.0289  0.2181
  773loPI   C5A11355   4.230  12.142   7.852  0.0225  0.0301 -0.2719
  773loPI   C6A11356   4.306  12.009   8.272 -0.0698 -0.0511  0.0341
  773loPI   C1B11357   4.976  12.456   6.188 -0.3241 -0.2258 -0.2889
  773loPI   C2B11358   4.459  12.434   6.215  0.3572 -0.5370  0.1454
  773loPI   C3B11359   3.977  12.299   6.209 -0.0514 -0.0003 -0.0758
  773loPI   C4B11360   3.589  12.171   6.165 -0.0061 -0.0102 -0.2869
  774loPI    C111361  16.785   6.549   5.169  0.0346 -0.0946 -0.0141
  774loPI    C211362  16.643   6.550   4.795 -0.1684 -0.0391  0.0619
  774loPI    C311363  16.995   6.377   4.875 -0.2585 -0.3046 -0.1046
  774loPI   PO411364  16.650   6.804   5.229  0.4408  0.3458  0.2273
  774loPI   GL111365  16.589   7.047   5.691  0.3166  0.1187  0.0431
  774loPI   GL211366  16.465   6.772   5.795 -0.2607 -0.0275  0.0701
  774loPI   C1A11367  16.760   7.244   6.091  0.2246 -0.0100 -0.0831
  774loPI   C2A11368  16.862   7.150   6.447 -0.4116  0.1025 -0.0873
  774loPI   C3A11369  16.630   6.943   6.713  0.0913  0.0150 -0.5007
  774loPI   C4A11370  16.641   6.740   7.109  0.2181  0.0967 -0.1418
  774loPI   C5A11371  16.442   6.747   7.511  0.1339  0.1883 -0.1274
  774loPI   C6A11372  16.555   6.665   7.954  0.3712 -0.0604 -0.1013
  774loPI   C1B11373  16.333   6.889   6.077  0.0206  0.3735 -0.3247
  774loPI   C2B11374  16.245   6.971   6.422  0.1520  0.0688  0.0330
  774loPI   C3B11375  16.061   7.285   6.671  0.1703  0.0274 -0.0535
  774loPI   C4B11376  15.697   7.487   6.681 -0.1904 -0.0984 -0.2154
  775loPI    C111377  11.294   9.994   4.792 -0.1454  0.1543  0.1649
  775loPI    C211378  10.986   9.780   4.653  0.1027 -0.1375  0.0525
  775loPI    C311379  11.212   9.992   4.401  0.0395  0.0176  0.1252
  775loPI   PO411380  11.157  10.090   5.015 -0.0915  0.0115 -0.4556
  775loPI   GL111381  10.961  10.012   5.430  0.2129 -0.2500  0.1209
  775loPI   GL211382  11.125  10.242   5.523  0.0480 -0.0447 -0.0662
  775loPI   C1A11383  10.718  10.010   5.859 -0.1519  0.1838  0.1182
  775loPI   C2A11384  10.490  10.005   6.173 -0.1012 -0.0086  0.0885
  775loPI   C3A11385  10.501  10.009   6.648 -0.1526 -0.0253 -0.0992
  775loPI   C4A11386  10.484  10.271   6.991 -0.1925  0.2863 -0.0632
  775loPI   C5A11387  10.574  10.681   7.255 -0.0257  0.1754  0.0904
  775loPI   C6A11388  10.642  11.088   7.241 -0.0752 -0.0877 -0.0679
  775loPI   C1B11389  10.861  10.458   5.695 -0.3325  0.1121  0.1648
  775loPI   C2B11390  10.689  10.460   6.088 -0.1252  0.1778 -0.0698
  775loPI   C3B11391  10.570  10.496   6.434 -0.0372 -0.1034 -0.2338
  775loPI   C4B11392  10.413  10.800   6.789 -0.0896  0.3578 -0.0140
  776loPI    C111393   8.629   5.769   5.001  0.1037  0.0874 -0.2259
  776loPI    C211394   8.960   5.801   5.223  0.1583 -0.5275 -0.2038
  776loPI    C311395   8.988   5.728   4.830  0.0499 -0.3012 -0.2549
  776loPI   PO411396   8.531   6.009   5.082  0.0079 -0.1445  0.0456
  776loPI   GL111397   8.662   6.163   5.433  0.1154 -0.0399  0.1433
  776loPI   GL211398   8.984   6.202   5.496  0.1352 -0.0823 -0.2130
  776loPI   C1A11399   8.428   6.319   5.806  0.3401 -0.0726 -0.0461
  776loPI   C2A11400   8.470   6.375   6.209  0.1076  0.0215  0.1702
  776loPI   C3A11401   8.459   6.443   6.546  0.0496 -0.1522 -0.0806
  776loPI   C4A11402   8.522   6.420   7.018  0.0515 -0.1364  0.0793
  776loPI   C5A11403   8.545   6.768   7.501 -0.1121 -0.3140  0.0592
  776loPI   C6A11404   8.444   6.995   7.866  0.4074 -0.0126  0.0537
  776loPI   C1B11405   8.867   6.416   5.888 -0.1997  0.1112  0.1168
  776loPI   C2B11406   8.979   6.690   6.217  0.0695  0.0099  0.0498
  776loPI   C3B11407   8.813   6.843   6.648 -0.0064 -0.2910 -0.0255
  776loPI   C4B11408   8.619   7.022   7.085  0.2039  0.1556 -0.2681
  777loPI    C111409   9.706   7.105   4.733  0.3604  0.0297 -0.0899
  777loPI    C211410   9.548   6.876   4.445 -0.4630  0.2738  0.1417
  777loPI    C311411   9.644   7.256   4.368  0.1491  0.0956 -0.0281
  777loPI   PO411412   9.517   6.995   5.016  0.1845 -0.0927  0.0578
  777loPI   GL111413   9.458   7.046   5.466 -0.0250 -0.2367  0.0032
  777loPI   GL211414   9.188   6.790   5.493 -0.0992  0.1992  0.1946
  777loPI   C1A11415   9.507   7.243   5.767 -0.1373 -0.0028  0.0411
  777loPI   C2A11416   9.635   7.162   6.226 -0.1467  0.1998  0.0986
  777loPI   C3A11417   9.898   7.329   6.561  0.2174 -0.0708  0.1550
  777loPI   C4A11418  10.200   7.393   6.949 -0.3459 -0.0340 -0.1027
  777loPI   C5A11419  10.370   7.127   7.250 -0.3380 -0.2511 -0.0789
  777loPI   C6A11420  10.392   6.716   7.534 -0.1012 -0.1650 -0.0273
  777loPI   C1B11421   9.465   6.673   5.913  0.1796 -0.0710 -0.2344
  777loPI   C2B11422   9.570   6.605   6.277  0.0413  0.1780  0.1853
  777loPI   C3B11423   9.428   6.684   6.742 -0.0176  0.2299 -0.1923
  777loPI   C4B11424   9.064   6.726   7.080  0.0732 -0.0860  0.2002
  778loPI    C111425   2.282  14.920   5.317  0.0177  0.1446  0.0760
  778loPI    C211426   1.884  14.965   5.322  0.0127  0.1248 -0.0967
  778loPI    C311427   2.070  14.859   4.983  0.1459 -0.0432  0.0272
  778loPI   PO411428   2.445  15.184   5.456  0.0737  0.2070 -0.3190
  778loPI   GL111429   2.454  15.324   5.953  0.2300 -0.4007 -0.2798
  778loPI   GL211430   2.615  15.522   6.080  0.0690  0.1659  0.2836
  778loPI   C1A11431   2.507  15.160   6.427  0.1571  0.0585 -0.2146
  778loPI   C2A11432   2.313  14.954   6.760 -0.0181 -0.0459  0.0267
  778loPI   C3A11433   2.310  14.963   7.187  0.0861  0.1817 -0.1703
  778loPI   C4A11434   2.370  15.175   7.497 -0.2645 -0.0339  0.0898
  778loPI   C5A11435   2.159  15.054   7.963  0.0224  0.2301  0.0101
  778loPI   C6A11436   2.270  14.742   8.304 -0.0062  0.0603  0.1520
  778loPI   C1B11437   3.074  15.557   6.197 -0.1797  0.0073  0.1148
  778loPI   C2B11438   3.144  15.823   6.427 -0.3226 -0.1900 -0.0599
  778loPI   C3B11439   3.143  15.950   6.854 -0.3349  0.0998 -0.0299
  778loPI   C4B11440   2.942  15.656   7.132  0.6175  0.1934 -0.1039
  779loPI    C111441  17.167  11.560   5.575 -0.1146 -0.1081 -0.1121
  779loPI    C211442  17.119  11.955   5.618 -0.0119 -0.1195  0.1260
  779loPI    C311443  17.442  11.812   5.430 -0.2127 -0.0832 -0.2569
  779loPI   PO411444  17.103  11.442   5.889 -0.1961  0.0536 -0.1351
  779loPI   GL111445  17.132  11.033   6.088  0.1193 -0.1148  0.3562
  779loPI   GL211446  17.420  11.259   6.207  0.0943  0.0960 -0.0453
  779loPI   C1A11447  17.138  11.035   6.600 -0.1597  0.0892 -0.1686
  779loPI   C2A11448  17.206  11.217   7.005 -0.0862  0.0999  0.2736
  779loPI   C3A11449  17.334  11.301   7.355  0.1281  0.1791  0.1884
  779loPI   C4A11450  17.200  11.221   7.828 -0.3370 -0.0022 -0.4464
  779loPI   C5A11451  17.446  11.064   8.177  0.1377  0.0875  0.2873
  779loPI   C6A11452  17.714  10.739   8.518 -0.0234 -0.4080  0.1030
  779loPI   C1B11453  17.493  11.450   6.607 -0.3630  0.1490  0.1447
  779loPI   C2B11454  17.665  11.521   7.061 -0.0874 -0.2736  0.0701
  779loPI   C3B11455  17.781  11.672   7.463  0.4098  0.1680 -0.1620
  779loPI   C4B11456  18.148  11.658   7.684  0.1270 -0.0191 -0.2462
  780loPI    C111457   2.554   6.677   4.813  0.0307 -0.0219  0.0010
  780loPI    C211458   2.274   6.935   4.690 -0.0275 -0.0843  0.0020
  780loPI    C311459   2.549   6.800   4.432 -0.0687 -0.1121 -0.0274
  780loPI   PO411460   2.426   6.512   4.989  0.1012  0.1566  0.1452
  780loPI   GL111461   2.449   6.326   5.403  0.2449 -0.0141  0.2454
  780loPI   GL211462   2.475   5.935   5.378 -0.3835 -0.1576 -0.0272
  780loPI   C1A11463   2.313   6.239   5.803  0.0473  0.2482 -0.0101
  780loPI   C2A11464   2.349   6.294   6.233  0.0356  0.1197  0.2222
  780loPI   C3A11465   2.301   6.338   6.597  0.0264 -0.1380 -0.0734
  780loPI   C4A11466   2.182   6.292   7.025  0.3926  0.3843 -0.2513
  780loPI   C5A11467   1.883   6.090   7.307  0.1940 -0.1142 -0.3497
  780loPI   C6A11468   1.595   5.892   7.580 -0.0770 -0.1200 -0.0419
  780loPI   C1B11469   2.606   5.681   5.801  0.1059  0.0883 -0.1463
  780loPI   C2B11470   2.614   5.708   6.311  0.2892  0.3723 -0.2680
  780loPI   C3B11471   2.705   6.050   6.636  0.1080 -0.1658  0.0564
  780loPI   C4B11472   2.771   6.326   7.003  0.4508 -0.0019  0.0042
  781loPI    C111473  13.530  13.170   5.142 -0.1485  0.0529  0.1288
  781loPI    C211474  13.446  13.537   5.279  0.0248  0.1384  0.0098
  781loPI    C311475  13.549  13.485   4.895  0.0952 -0.0211  0.0494
  781loPI   PO411476  13.665  13.045   5.326 -0.0555 -0.1102  0.0622
  781loPI   GL111477  13.568  12.926   5.656  0.0310 -0.1825  0.2604
  781loPI   GL211478  13.231  12.812   5.577  0.1427  0.2483 -0.0188
  781loPI   C1A11479  13.610  12.982   6.149  0.0092 -0.1057 -0.0743
  781loPI   C2A11480  13.615  13.015   6.557  0.0934 -0.0105  0.1596
  781loPI   C3A11481  13.521  13.021   6.981  0.1610 -0.1844  0.0457
  781loPI   C4A11482  13.504  12.969   7.406  0.1272 -0.0313  0.2310
  781loPI   C5A11483  13.174  12.665   7.524 -0.0367 -0.1079  0.2135
  781loPI   C6A11484  13.263  12.323   7.625  0.0325 -0.1346 -0.0885
  781loPI   C1B11485  13.112  12.784   6.001 -0.2021 -0.0907  0.2299
  781loPI   C2B11486  13.130  12.702   6.417  0.5779  0.2579  0.0879
  781loPI   C3B11487  13.156  12.831   6.717  0.2408 -0.5429  0.2319
  781loPI   C4B11488  13.062  12.802   7.090  0.3470 -0.0284 -0.0141
  782loPI    C111489   5.641  12.428   5.119 -0.0031 -0.0827  0.0088
  782loPI    C211490   5.996  12.521   4.959  0.1256  0.0799  0.3765
  782loPI    C311491   5.659  12.649   4.786  0.2457 -0.0133  0.0660
  782loPI   PO411492   5.656  12.194   5.145 -0.1585 -0.3836  0.1281
  782loPI   GL111493   5.691  11.964   5.536 -0.0473 -0.0977 -0.0090
  782loPI   GL211494   5.585  12.300   5.610  0.2462  0.0419  0.2724
  782loPI   C1A11495   5.842  11.958   5.990 -0.0560 -0.1971  0.0183
  782loPI   C2A11496   5.749  11.820   6.413  0.1882 -0.1951 -0.0034
  782loPI   C3A11497   5.691  11.892   6.867 -0.0924  0.0173 -0.1418
  782loPI   C4A11498   5.888  12.044   7.234 -0.0211  0.1609 -0.0251
  782loPI   C5A11499   6.166  12.276   7.552 -0.2324  0.0127 -0.1021
  782loPI   C6A11500   6.375  12.681   7.539  0.0111  0.0262 -0.0308
  782loPI   C1B11501   5.448  12.382   5.979 -0.0958  0.0874  0.0299
  782loPI   C2B11502   5.450  12.682   6.285  0.1730  0.1273 -0.0468
  782loPI   C3B11503   5.248  12.946   6.589  0.0963  0.1360 -0.1250
  782loPI   C4B11504   5.040  12.951   6.949  0.0406 -0.1258 -0.2399
  783loPI    C111505  18.283   2.748   5.456 -0.1847 -0.0263  0.2760
  783loPI    C211506  18.101   2.975   5.182  0.4000 -0.0862 -0.1814
  783loPI    C311507  17.890   2.709   5.393 -0.1867  0.4547 -0.0565
  783loPI   PO411508  18.542   2.561   5.311 -0.3428 -0.1549 -0.3960
  783loPI   GL111509  18.422   2.174   5.418  0.0054 -0.1656 -0.1628
  783loPI   GL211510  18.085   2.240   5.474 -0.1961 -0.3149 -0.0365
  783loPI   C1A11511  18.395   2.218   5.989 -0.0630 -0.0985 -0.1780
  783loPI   C2A11512  18.260   2.291   6.448 -0.2032 -0.1525  0.0536
  783loPI   C3A11513  18.343   2.235   6.822  0.2472 -0.2596 -0.1983
  783loPI   C4A11514  18.200   2.410   7.303  0.3393 -0.0280 -0.0067
  783loPI   C5A11515  18.096   2.476   7.803  0.0750 -0.0940 -0.1383
  783loPI   C6A11516  18.126   2.871   7.981  0.1665  0.1871  0.2459
  783loPI   C1B11517  18.076   2.543   5.888 -0.1428  0.0966 -0.1133
  783loPI   C2B11518  18.203   2.742   6.192 -0.0525 -0.0871 -0.2205
  783loPI   C3B11519  18.292   2.796   6.629 -0.0147 -0.1722 -0.3653
  783loPI   C4B11520  18.388   2.789   7.000 -0.2305  0.0641  0.0001
  784loPI    C111521   6.338  11.911   5.093 -0.0992  0.0973  0.2529
  784loPI    C211522   6.055  12.024   4.833 -0.2357 -0.0538  0.3337
  784loPI    C311523   6.439  12.012   4.719 -0.3035 -0.1942  0.1151
  784loPI   PO411524   6.212  11.884   5.332 -0.0469  0.3247 -0.0789
  784loPI   GL111525   6.136  11.600   5.704 -0.0693 -0.1538  0.2606
  784loPI   GL211526   5.757  11.394   5.715  0.0594  0.0349  0.1922
  784loPI   C1A11527   6.200  11.641   6.140 -0.0757 -0.0003 -0.1340
  784loPI   C2A11528   6.035  11.424   6.420  0.3031 -0.0029 -0.0461
  784loPI   C3A11529   5.789  11.360   6.660 -0.0074 -0.0570 -0.2844
  784loPI   C4A11530   5.927  11.460   7.073  0.0043  0.0463 -0.0702
  784loPI   C5A11531   6.098  11.643   7.509 -0.1049 -0.3434 -0.2197
  784loPI   C6A11532   6.132  11.808   7.909  0.3550  0.3213  0.4469
  784loPI   C1B11533   5.707  11.378   6.098  0.0919 -0.2328 -0.0198
  784loPI   C2B11534   5.804  11.015   6.243 -0.2250  0.1879  0.0551
  784loPI   C3B11535   5.930  10.904   6.676  0.0477  0.0124 -0.0469
  784loPI   C4B11536   6.287  10.969   6.861  0.1721 -0.2951  0.3643
  785loPI    C111537   4.101   3.964   4.815 -0.0066  0.0990  0.1046
  785loPI    C211538   3.794   4.122   4.613 -0.0610  0.1887  0.2556
  785loPI    C311539   3.979   3.796   4.474  0.0797  0.4071 -0.0815
  785loPI   PO411540   3.945   4.011   5.103  0.2999  0.1426  0.0858
  785loPI   GL111541   3.748   4.162   5.351  0.0446  0.3703 -0.1553
  785loPI   GL211542   3.367   3.999   5.281 -0.0409 -0.4478  0.2329
  785loPI   C1A11543   3.791   4.281   5.796  0.1748  0.2353  0.0163
  785loPI   C2A11544   3.745   4.406   6.218  0.4468 -0.3030 -0.1114
  785loPI   C3A11545   3.824   4.358   6.615  0.1329  0.0198  0.1166
  785loPI   C4A11546   4.037   4.565   7.124 -0.0859 -0.1004  0.5160
  785loPI   C5A11547   4.173   4.898   7.471 -0.2278  0.5395 -0.0370
  785loPI   C6A11548   4.001   5.205   7.832 -0.0534  0.0953 -0.4040
  785loPI   C1B11549   3.388   3.984   5.683 -0.0065  0.0759  0.3504
  785loPI   C2B11550   3.405   3.997   6.131  0.3322 -0.1860  0.0382
  785loPI   C3B11551   3.136   3.896   6.356  0.0103 -0.2126 -0.0648
  785loPI   C4B11552   2.821   3.768   6.626 -0.0938 -0.0246  0.0122
  786loPI    C111553  13.454  10.243   4.918  0.0246 -0.0346 -0.1077
  786loPI    C211554  13.835  10.321   4.825  0.0013  0.0194 -0.1581
  786loPI    C311555  13.687   9.953   4.770  0.0979 -0.0494  0.0355
  786loPI   PO411556  13.397  10.368   5.128  0.2264  0.1349 -0.0586
  786loPI   GL111557  13.250  10.603   5.501 -0.2977 -0.2302  0.0330
  786loPI   GL211558  12.951  10.733   5.426  0.3623 -0.4720 -0.0401
  786loPI   C1A11559  13.315  10.545   5.921  0.0621 -0.3408 -0.2048
  786loPI   C2A11560  13.354  10.678   6.412 -0.2065  0.0527  0.1147
  786loPI   C3A11561  13.258  10.620   6.792  0.0737  0.3053 -0.2830
  786loPI   C4A11562  13.337  10.575   7.309 -0.3697  0.2548  0.1264
  786loPI   C5A11563  13.328  10.264   7.672 -0.0590 -0.1770 -0.0435
  786loPI   C6A11564  13.494  10.403   8.149  0.1491  0.0704  0.0428
  786loPI   C1B11565  12.987  10.973   5.751 -0.2660 -0.1874 -0.0123
  786loPI   C2B11566  12.782  10.924   6.129  0.0335 -0.0586 -0.0002
  786loPI   C3B11567  12.796  10.883   6.611  0.2372  0.0461 -0.0050
  786loPI   C4B11568  12.549  10.782   7.027  0.4552  0.0848  0.2919
  787loPI    C111569  16.844  12.845   5.689  0.1456 -0.0023 -0.0473
  787loPI    C211570  16.607  12.777   5.374  0.3850 -0.2305 -0.1815
  787loPI    C311571  16.790  13.130   5.414  0.0060 -0.0428 -0.0628
  787loPI   PO411572  16.704  12.777   5.903 -0.2431 -0.5279 -0.0982
  787loPI   GL111573  16.319  12.926   6.264  0.1245 -0.2142 -0.0536
  787loPI   GL211574  16.045  13.014   6.116  0.0455 -0.2889  0.1482
  787loPI   C1A11575  16.547  13.042   6.627  0.2725  0.1198  0.0068
  787loPI   C2A11576  16.444  13.035   7.070 -0.0309 -0.3539  0.3298
  787loPI   C3A11577  16.294  12.932   7.599  0.0207  0.0157 -0.2844
  787loPI   C4A11578  16.037  12.942   7.969 -0.2621  0.1398 -0.0250
  787loPI   C5A11579  15.701  12.845   8.071 -0.1034  0.1379 -0.0155
  787loPI   C6A11580  15.243  12.848   7.920 -0.0402  0.0580  0.1516
  787loPI   C1B11581  16.071  13.270   6.492  0.2407 -0.0961  0.0297
  787loPI   C2B11582  16.115  13.368   6.944 -0.0303 -0.0362  0.0001
  787loPI   C3B11583  16.091  13.332   7.409  0.0150 -0.0606 -0.1223
  787loPI   C4B11584  16.168  13.535   7.820  0.0868 -0.3161 -0.1033
  788loPI    C111585   7.359   7.440   5.154 -0.1066  0.0906  0.0460
  788loPI    C211586   6.960   7.456   5.134 -0.1048  0.0305 -0.0461
  788loPI    C311587   7.167   7.268   4.848 -0.0198 -0.0734  0.0824
  788loPI   PO411588   7.426   7.774   5.168 -0.2407  0.1126  0.0576
  788loPI   GL111589   7.339   8.143   5.467  0.1845  0.0025  0.1770
  788loPI   GL211590   7.303   7.988   5.798  0.0072 -0.0750  0.0620
  788loPI   C1A11591   7.133   8.427   5.790 -0.0431 -0.1626  0.3032
  788loPI   C2A11592   6.961   8.501   6.227 -0.0119 -0.1419  0.1082
  788loPI   C3A11593   6.850   8.678   6.648  0.2577  0.0993  0.0959
  788loPI   C4A11594   6.852   8.616   7.074  0.0941 -0.1833  0.1353
  788loPI   C5A11595   6.832   8.380   7.323  0.0721  0.1630  0.4010
  788loPI   C6A11596   6.799   7.990   7.547 -0.0241  0.0173  0.0932
  788loPI   C1B11597   7.248   8.131   6.186  0.0086 -0.0450 -0.1524
  788loPI   C2B11598   7.253   8.175   6.546  0.2666 -0.0196 -0.0389
  788loPI   C3B11599   7.204   8.250   6.974 -0.0059 -0.2542 -0.2153
  788loPI   C4B11600   7.269   8.163   7.462  0.2900 -0.0851  0.1752
  789loPI    C111601  11.424   4.500   5.051  0.0833 -0.0220 -0.0958
  789loPI    C211602  11.564   4.304   4.732  0.0077 -0.1081 -0.0767
  789loPI    C311603  11.275   4.577   4.688  0.2836  0.1808 -0.1372
  789loPI   PO411604  11.461   4.266   5.254 -0.1468 -0.0713  0.1632
  789loPI   GL111605  11.464   4.263   5.670  0.1078 -0.0004 -0.1148
  789loPI   GL211606  11.459   3.929   5.732  0.2620 -0.2585 -0.0169
  789loPI   C1A11607  11.393   4.478   6.038  0.1314 -0.0208 -0.2638
  789loPI   C2A11608  11.323   4.520   6.457  0.0278 -0.0832 -0.0902
  789loPI   C3A11609  11.070   4.544   6.821 -0.3306 -0.0321  0.2951
  789loPI   C4A11610  10.795   4.520   7.050  0.0108 -0.2869 -0.2952
  789loPI   C5A11611  10.578   4.400   7.388 -0.1535 -0.2037 -0.0416
  789loPI   C6A11612  10.503   4.754   7.705 -0.3218 -0.2722  0.0106
  789loPI   C1B11613  11.498   3.964   6.195 -0.0541  0.1641 -0.2826
  789loPI   C2B11614  11.504   4.078   6.625 -0.2337  0.1311  0.0269
  789loPI   C3B11615  11.489   4.209   7.048  0.3539 -0.1342 -0.1579
  789loPI   C4B11616  11.264   4.489   7.258  0.1873  0.0695  0.2709
  790loPI    C111617  10.345   3.753   5.045 -0.1057 -0.1505 -0.0487
  790loPI    C211618  10.418   4.102   4.865 -0.1365 -0.1347 -0.0307
  790loPI    C311619  10.719   3.893   5.023 -0.0950 -0.2002 -0.1943
  790loPI   PO411620  10.033   3.803   5.127 -0.1374 -0.1351 -0.0822
  790loPI   GL111621   9.806   3.668   5.548  0.1854  0.0358 -0.0413
  790loPI   GL211622   9.580   3.881   5.580 -0.2292 -0.0840 -0.3025
  790loPI   C1A11623   9.635   3.418   5.828 -0.3917  0.1773 -0.1640
  790loPI   C2A11624   9.369   3.227   6.128 -0.2651  0.1481  0.2448
  790loPI   C3A11625   9.262   3.031   6.497  0.0344 -0.0727  0.1898
  790loPI   C4A11626   9.169   2.947   6.959 -0.2166  0.2863 -0.1223
  790loPI   C5A11627   9.195   3.012   7.387 -0.0431 -0.0291  0.1073
  790loPI   C6A11628   9.268   3.429   7.676 -0.3717  0.0672 -0.2628
  790loPI   C1B11629   9.858   4.094   5.937  0.1246  0.2315  0.0348
  790loPI   C2B11630   9.881   4.031   6.369  0.0551  0.1341 -0.0103
  790loPI   C3B11631   9.874   3.883   6.797  0.0834  0.1287 -0.1034
  790loPI   C4B11632   9.963   3.462   6.883  0.0615  0.0381  0.0678
  791loPI    C111633   5.953   8.485   4.931  0.2058 -0.3827 -0.0153
  791loPI    C211634   5.831   8.358   4.572 -0.1567  0.0455 -0.0514
  791loPI    C311635   6.046   8.694   4.603  0.1109 -0.1372  0.1117
  791loPI   PO411636   6.046   8.259   5.054 -0.1341 -0.1460  0.2517
  791loPI   GL111637   6.334   8.174   5.400 -0.0285 -0.0182  0.1579
  791loPI   GL211638   6.692   8.233   5.582 -0.2371 -0.3233  0.3203
  791loPI   C1A11639   6.254   8.168   5.858 -0.3467 -0.0982  0.0977
  791loPI   C2A11640   6.301   8.011   6.192 -0.0484  0.1209 -0.0951
  791loPI   C3A11641   6.270   7.967   6.582 -0.1883  0.1363  0.0110
  791loPI   C4A11642   5.964   7.912   6.810  0.3057 -0.0839 -0.1538
  791loPI   C5A11643   5.631   7.916   7.229  0.0340 -0.0895 -0.0356
  791loPI   C6A11644   5.519   8.050   7.553  0.0917 -0.2033  0.2022
  791loPI   C1B11645   6.709   8.088   5.955 -0.1197 -0.3030  0.0336
  791loPI   C2B11646   6.771   8.037   6.404  0.1188  0.1653  0.2601
  791loPI   C3B11647   6.735   8.115   6.874  0.0084  0.0749  0.3168
  791loPI   C4B11648   6.410   8.021   7.212  0.1101 -0.1753 -0.0851
  792loPI    C111649  10.756   0.955   5.139  0.1261  0.1624  0.0851
  792loPI    C211650  11.078   0.746   5.025 -0.0962 -0.0555 -0.1565
  792loPI    C311651  10.928   1.029   4.785 -0.1987 -0.0875 -0.1310
  792loPI   PO411652  10.596   0.785   5.263 -0.1594 -0.0607 -0.1085
  792loPI   GL111653  10.339   0.831   5.549 -0.0932 -0.0932 -0.0169
  792loPI   GL211654  10.457   0.479   5.758  0.3558 -0.2241  0.4599
  792loPI   C1A11655  10.205   0.956   6.005 -0.0585 -0.2603  0.0060
  792loPI   C2A11656  10.028   0.867   6.438 -0.1732  0.1599 -0.1722
  792loPI   C3A11657  10.076   0.859   6.786 -0.0428 -0.2051  0.1568
  792loPI   C4A11658  10.055   0.498   7.128  0.0113  0.1556  0.0144
  792loPI   C5A11659  10.246   0.112   7.374  0.1645  0.1572 -0.0212
  792loPI   C6A11660  10.361  -0.068   7.832  0.1772  0.1258  0.0536
  792loPI   C1B11661  10.086   0.386   6.103  0.1061  0.2078 -0.1484
  792loPI   C2B11662  10.123   0.253   6.598 -0.0738  0.0043  0.2339
  792loPI   C3B11663  10.222  -0.107   6.830 -0.1886  0.0211 -0.0284
  792loPI   C4B11664  10.186  -0.341   7.146  0.2525  0.4212 -0.1468
  793loPI    C111665  15.338   4.789   5.430  0.1865 -0.2922  0.0003
  793loPI    C211666  15.615   4.907   5.167  0.0607 -0.0695 -0.0341
  793loPI    C311667  15.291   4.710   5.041  0.2016 -0.3307  0.0063
  793loPI   PO411668  15.308   4.791   5.690 -0.2765  0.3365 -0.0638
  793loPI   GL111669  15.337   4.459   5.909 -0.0754 -0.0141  0.1057
  793loPI   GL211670  15.603   4.340   5.822  0.1721  0.1748  0.4201
  793loPI   C1A11671  15.446   4.455   6.331 -0.1507  0.4885  0.0207
  793loPI   C2A11672  15.449   4.770   6.607 -0.0071 -0.3685 -0.5173
  793loPI   C3A11673  15.062   4.750   6.767 -0.1516  0.1384 -0.3066
  793loPI   C4A11674  14.907   4.539   7.226 -0.0554  0.3969 -0.1372
  793loPI   C5A11675  14.651   4.191   7.440  0.0942 -0.2599 -0.3283
  793loPI   C6A11676  14.329   3.907   7.286 -0.2792 -0.0846  0.2810
  793loPI   C1B11677  15.856   4.194   6.176  0.2343  0.1696  0.4219
  793loPI   C2B11678  15.801   4.053   6.603  0.0531 -0.1013 -0.0450
  793loPI   C3B11679  15.828   3.851   7.064 -0.0956 -0.0472 -0.1953
  793loPI   C4B11680  15.857   3.645   7.523  0.2770 -0.1154  0.1502
  794loPI    C111681   2.877   0.945   5.291  0.2633  0.1640  0.2125
  794loPI    C211682   2.961   1.336   5.281  0.2390  0.1697  0.2280
  794loPI    C311683   3.109   1.092   5.001  0.2767  0.1856  0.2340
  794loPI   PO411684   2.771   0.874   5.532  0.0886 -0.0312 -0.0280
  794loPI   GL111685   2.584   1.112   5.894 -0.3115  0.0535  0.1165
  794loPI   GL211686   2.732   1.302   5.749  0.2055  0.1064  0.0443
  794loPI   C1A11687   2.564   1.173   6.283 -0.0727  0.0226 -0.0314
  794loPI   C2A11688   2.443   1.055   6.665  0.0974 -0.1224 -0.0022
  794loPI   C3A11689   2.448   0.982   7.126 -0.0362  0.3756 -0.2094
  794loPI   C4A11690   2.371   0.886   7.478  0.0682  0.0932  0.1820
  794loPI   C5A11691   2.509   1.130   7.845 -0.0424 -0.0692 -0.3345
  794loPI   C6A11692   2.527   1.096   8.335  0.0624  0.0603 -0.1981
  794loPI   C1B11693   2.878   1.588   6.226  0.2279  0.0704  0.1840
  794loPI   C2B11694   2.951   1.716   6.597  0.2916 -0.1294 -0.0932
  794loPI   C3B11695   2.907   1.698   6.967  0.0730  0.1408  0.0742
  794loPI   C4B11696   2.843   2.025   7.283  0.2051 -0.2745 -0.0590
  795loPI    C111697  16.025   3.542   5.280 -0.1245 -0.2188 -0.1462
  795loPI    C211698  16.135   3.295   4.986  0.2864 -0.0696 -0.1254
  795loPI    C311699  16.031   3.672   4.902 -0.3994 -0.2539 -0.1642
  795loPI   PO411700  16.163   3.537   5.503 -0.2439 -0.2043 -0.2850
  795loPI   GL111701  16.592   3.675   5.676  0.0839  0.1786 -0.1458
  795loPI   GL211702  16.561   4.049   5.642 -0.1597  0.1889  0.1904
  795loPI   C1A11703  16.595   3.488   6.144  0.0323  0.1985 -0.0140
  795loPI   C2A11704  16.524   3.419   6.586 -0.0515  0.2018  0.0727
  795loPI   C3A11705  16.422   3.591   7.002  0.0531  0.3148 -0.1316
  795loPI   C4A11706  16.469   3.758   7.448  0.1992  0.3167 -0.0818
  795loPI   C5A11707  16.400   4.173   7.716  0.0238 -0.0108  0.1021
  795loPI   C6A11708  16.628   4.095   8.143  0.1505  0.1963 -0.1897
  795loPI   C1B11709  16.756   4.139   6.005  0.0605 -0.0579  0.2395
  795loPI   C2B11710  16.750   4.341   6.427  0.1419 -0.0116 -0.0418
  795loPI   C3B11711  16.739   4.367   6.867  0.0858 -0.0835  0.0769
  795loPI   C4B11712  16.683   4.574   7.273  0.0841 -0.1722 -0.0514
  796loPI    C111713  12.958   5.799   4.942  0.1943  0.0581  0.2007
  796loPI    C211714  13.309   5.815   4.750  0.2748 -0.0089  0.3410
  796loPI    C311715  13.024   6.082   4.666  0.1496 -0.2917 -0.1782
  796loPI   PO411716  13.040   5.769   5.233  0.1833 -0.1339 -0.1471
  796loPI   GL111717  12.708   5.521   5.596  0.2290 -0.0227  0.0579
  796loPI   GL211718  12.836   5.841   5.780  0.1000 -0.1329 -0.1864
  796loPI   C1A11719  12.331   5.668   5.893 -0.0133 -0.1770 -0.2064
  796loPI   C2A11720  12.259   5.581   6.267 -0.0091  0.4268  0.0103
  796loPI   C3A11721  12.145   5.598   6.669  0.0449 -0.0619  0.0385
  796loPI   C4A11722  12.053   5.917   7.021  0.2424 -0.2127 -0.1948
  796loPI   C5A11723  12.065   6.065   7.467 -0.0147  0.2325  0.2257
  796loPI   C6A11724  12.095   6.165   7.910 -0.2114 -0.1585  0.1674
  796loPI   C1B11725  12.792   5.687   6.166 -0.0117 -0.0031 -0.1927
  796loPI   C2B11726  12.646   5.602   6.599 -0.0247 -0.1549  0.4653
  796loPI   C3B11727  12.537   5.724   6.949 -0.1064 -0.2909  0.3283
  796loPI   C4B11728  12.465   5.697   7.302  0.1924 -0.3487 -0.1319
  797loPI    C111729  17.649   0.069   5.063 -0.1288 -0.0314 -0.0938
  797loPI    C211730  17.549  -0.313   5.125 -0.1092 -0.0232 -0.0099
  797loPI    C311731  17.738  -0.208   4.789  0.0666 -0.1205  0.0573
  797loPI   PO411732  17.542   0.129   5.338  0.2706  0.2208  0.0765
  797loPI   GL111733  17.715   0.411   5.630  0.1077  0.1511  0.0172
  797loPI   GL211734  17.851   0.619   5.881 -0.1189  0.0540  0.2928
  797loPI   C1A11735  17.428   0.370   5.910  0.0135 -0.0615 -0.3279
  797loPI   C2A11736  17.302   0.484   6.256 -0.1489  0.0501 -0.2918
  797loPI   C3A11737  17.226   0.505   6.659 -0.3091 -0.1489  0.2837
  797loPI   C4A11738  17.254   0.580   7.083 -0.0815  0.0738  0.1579
  797loPI   C5A11739  17.457   0.565   7.477 -0.1145 -0.2434  0.0273
  797loPI   C6A11740  17.371   0.805   7.850 -0.1733 -0.0558  0.0424
  797loPI   C1B11741  17.498   0.925   6.110  0.1843  0.0277 -0.2161
  797loPI   C2B11742  17.381   0.948   6.511 -0.0491  0.0931 -0.3576
  797loPI   C3B11743  17.711   0.849   6.819  0.1465 -0.0019  0.4011
  797loPI   C4B11744  18.065   0.795   6.938 -0.0859 -0.1864  0.2638
  798loPI    C111745  18.088   0.538   4.505  0.0289  0.1981  0.0099
  798loPI    C211746  18.448   0.373   4.564 -0.1396 -0.1498  0.0962
  798loPI    C311747  18.287   0.376   4.198  0.0456  0.2140  0.0125
  798loPI   PO411748  18.118   0.794   4.715  0.2004 -0.3481 -0.0873
  798loPI   GL111749  18.239   1.001   5.191  0.0410  0.0413  0.0316
  798loPI   GL211750  18.237   0.709   5.529  0.2391 -0.0602 -0.1389
  798loPI   C1A11751  18.209   1.227   5.605 -0.1533  0.1572 -0.0271
  798loPI   C2A11752  18.187   1.038   5.999  0.2382 -0.1499  0.0592
  798loPI   C3A11753  17.867   1.117   6.394  0.0567  0.0554  0.0072
  798loPI   C4A11754  17.755   1.360   6.694  0.3532  0.3448  0.3162
  798loPI   C5A11755  17.704   1.254   7.186 -0.0596  0.0825  0.0282
  798loPI   C6A11756  17.398   1.052   7.439  0.0450 -0.2117 -0.0751
  798loPI   C1B11757  18.302   0.373   5.962  0.0093  0.2148  0.0311
  798loPI   C2B11758  18.150   0.281   6.358 -0.1905  0.2189  0.3560
  798loPI   C3B11759  18.096   0.373   6.747 -0.0074 -0.0082  0.1171
  798loPI   C4B11760  17.901   0.476   7.267  0.1501 -0.0847  0.0141
  799loPI    C111761  12.905  16.453   5.132 -0.0140  0.1059 -0.0585
  799loPI    C211762  13.146  16.728   4.970  0.0178  0.0108 -0.1749
  799loPI    C311763  12.833  16.591   4.763 -0.0968  0.0829 -0.0510
  799loPI   PO411764  12.886  16.514   5.338  0.1196  0.0267 -0.0567
  799loPI   GL111765  12.791  16.603   5.778  0.0996  0.0277  0.2812
  799loPI   GL211766  12.725  16.192   5.787  0.0166 -0.2846  0.1696
  799loPI   C1A11767  12.860  16.610   6.214 -0.0198 -0.1064  0.1779
  799loPI   C2A11768  12.923  16.626   6.666  0.0096 -0.1215 -0.4243
  799loPI   C3A11769  12.910  16.733   7.076 -0.2973 -0.1244  0.0342
  799loPI   C4A11770  12.815  16.595   7.419 -0.2572  0.1226 -0.0072
  799loPI   C5A11771  12.546  16.445   7.720 -0.1694 -0.0249  0.1665
  799loPI   C6A11772  12.206  16.326   7.806  0.0968 -0.0107 -0.1831
  799loPI   C1B11773  12.692  16.167   6.248  0.0740 -0.0517 -0.1557
  799loPI   C2B11774  12.461  15.972   6.608 -0.4078 -0.0699 -0.0832
  799loPI   C3B11775  12.415  15.924   7.059  0.0112  0.0253  0.2000
  799loPI   C4B11776  12.409  15.871   7.513  0.1752  0.4784 -0.4672
  800loPI    C111777  14.239   7.600   5.568  0.2261 -0.1352  0.1393
  800loPI    C211778  14.618   7.728   5.581  0.1719  0.0470 -0.0261
  800loPI    C311779  14.360   7.893   5.323  0.0098 -0.1581  0.0024
  800loPI   PO411780  14.280   7.359   5.482 -0.0114  0.2251 -0.1182
  800loPI   GL111781  14.471   7.033   5.803  0.0520  0.0005 -0.1153
  800loPI   GL211782  14.477   7.321   5.953 -0.1980  0.0146 -0.0625
  800loPI   C1A11783  14.229   7.040   6.225  0.3402  0.1364  0.0341
  800loPI   C2A11784  14.218   7.207   6.603 -0.2833  0.3092  0.1959
  800loPI   C3A11785  14.055   6.908   6.897 -0.1534  0.2579  0.1849
  800loPI   C4A11786  13.951   6.704   7.226  0.0734 -0.2428  0.0660
  800loPI   C5A11787  13.851   6.533   7.696 -0.1399 -0.1344  0.0492
  800loPI   C6A11788  13.683   6.698   7.993  0.0578  0.1901 -0.0512
  800loPI   C1B11789  14.847   7.214   6.327 -0.1412  0.1576  0.1849
  800loPI   C2B11790  14.713   7.100   6.731  0.4671 -0.0133  0.1248
  800loPI   C3B11791  14.537   6.930   7.053  0.0022  0.1081  0.1545
  800loPI   C4B11792  14.423   6.789   7.386 -0.1499  0.1686  0.0836
  801loPI    C111793   4.422  18.502   5.348 -0.0301 -0.0133  0.0829
  801loPI    C211794   4.654  18.826   5.314  0.1526 -0.1226  0.2617
  801loPI    C311795   4.257  18.866   5.346  0.1115  0.0532 -0.3505
  801loPI   PO411796   4.557  18.379   5.596  0.0758 -0.2164  0.0313
  801loPI   GL111797   4.719  18.228   5.953  0.2391  0.2543 -0.0383
  801loPI   GL211798   4.897  18.062   5.862  0.0589  0.0958  0.1146
  801loPI   C1A11799   4.728  18.096   6.391 -0.2938 -0.0471  0.0503
  801loPI   C2A11800   4.775  18.195   6.651  0.2461 -0.2908 -0.0431
  801loPI   C3A11801   4.656  18.269   6.994  0.2880  0.3764  0.0003
  801loPI   C4A11802   4.567  18.359   7.367  0.2198  0.0864 -0.2849
  801loPI   C5A11803   4.621  18.699   7.678  0.0176 -0.0885 -0.2982
  801loPI   C6A11804   4.743  18.757   8.081 -0.1758  0.0345  0.3278
  801loPI   C1B11805   5.149  18.349   6.177 -0.0445 -0.1255  0.1064
  801loPI   C2B11806   5.239  18.466   6.591 -0.1684  0.1052 -0.2187
  801loPI   C3B11807   5.145  18.532   6.966  0.1444  0.0377 -0.1227
  801loPI   C4B11808   5.061  18.502   7.326 -0.1824  0.2661 -0.3285
  802loPI    C111809   2.052  11.376   5.292  0.0364  0.1164 -0.0392
  802loPI    C211810   1.959  11.299   4.910 -0.0169 -0.0863  0.0139
  802loPI    C311811   1.695  11.484   5.146 -0.1439 -0.3235  0.0613
  802loPI   PO411812   2.149  11.194   5.426 -0.2208  0.0897  0.0510
  802loPI   GL111813   2.408  11.325   5.772  0.0223 -0.1056  0.2875
  802loPI   GL211814   2.737  11.148   5.851  0.0580 -0.0831 -0.1573
  802loPI   C1A11815   2.392  11.342   6.190 -0.1818 -0.3119  0.0804
  802loPI   C2A11816   2.410  11.438   6.556  0.2528 -0.4394  0.0661
  802loPI   C3A11817   2.461  11.450   6.988  0.2531  0.0873  0.0952
  802loPI   C4A11818   2.561  11.383   7.457 -0.3403  0.0874 -0.3209
  802loPI   C5A11819   2.316  11.317   7.782 -0.0089 -0.0339 -0.0453
  802loPI   C6A11820   1.881  11.253   7.826  0.0169  0.1272 -0.1581
  802loPI   C1B11821   2.751  11.015   6.222 -0.1182  0.0799  0.2727
  802loPI   C2B11822   2.604  10.934   6.601  0.1662  0.2306  0.1203
  802loPI   C3B11823   2.748  11.042   6.952  0.0301 -0.0816  0.1316
  802loPI   C4B11824   2.980  11.177   7.340  0.2458  0.0940  0.4797
  803loPI    C111825   3.825  12.577   5.084  0.0707 -0.1391  0.1178
  803loPI    C211826   3.970  12.799   4.785 -0.4766  0.0492 -0.0188
  803loPI    C311827   3.854  12.423   4.716 -0.1395 -0.0751  0.0732
  803loPI   PO411828   3.932  12.711   5.310 -0.0159 -0.0515 -0.2480
  803loPI   GL111829   3.743  13.073   5.636  0.0366  0.0563 -0.0593
  803loPI   GL211830   3.842  12.860   5.748  0.0395 -0.0509 -0.0157
  803loPI   C1A11831   3.700  13.142   6.076  0.0034  0.0629  0.2286
  803loPI   C2A11832   3.614  13.034   6.512 -0.1366  0.2061  0.0184
  803loPI   C3A11833   3.786  12.855   6.762 -0.0924  0.0314  0.1143
  803loPI   C4A11834   3.946  12.586   6.972 -0.3126 -0.0298  0.2609
  803loPI   C5A11835   4.354  12.478   6.992 -0.2478 -0.0153  0.0391
  803loPI   C6A11836   4.722  12.601   7.169 -0.1586 -0.0912 -0.1919
  803loPI   C1B11837   4.070  12.815   6.161 -0.0798  0.0739 -0.5376
  803loPI   C2B11838   4.179  12.673   6.516  0.2039 -0.1268 -0.2214
  803loPI   C3B11839   4.243  12.245   6.621  0.2942  0.3469 -0.1658
  803loPI   C4B11840   4.185  11.970   7.008 -0.2591 -0.1276  0.1246
  804loPI    C111841   5.545   2.336   5.330 -0.2128  0.0361  0.1253
  804loPI    C211842   5.444   2.257   4.951 -0.3277  0.1170  0.1383
  804loPI    C311843   5.661   1.993   5.160 -0.2452  0.0820  0.0096
  804loPI   PO411844   5.330   2.467   5.415 -0.1245  0.1556 -0.0661
  804loPI   GL111845   4.907   2.415   5.706  0.1283 -0.1586  0.0341
  804loPI   GL211846   4.514   2.574   5.633 -0.0464  0.0180  0.2316
  804loPI   C1A11847   5.048   2.387   6.113  0.2238 -0.2680  0.1608
  804loPI   C2A11848   4.996   2.187   6.508 -0.1315 -0.0255 -0.1034
  804loPI   C3A11849   5.159   2.071   6.962  0.1111 -0.2077  0.0312
  804loPI   C4A11850   5.123   2.194   7.343  0.0150  0.5445  0.0297
  804loPI   C5A11851   4.938   2.409   7.636  0.1035  0.0723 -0.0535
  804loPI   C6A11852   4.686   2.281   7.889 -0.0826  0.1665 -0.3363
  804loPI   C1B11853   4.254   2.956   5.828 -0.2670  0.1417 -0.1595
  804loPI   C2B11854   4.228   3.081   6.303  0.1217  0.0978  0.0450
  804loPI   C3B11855   4.379   3.095   6.620 -0.1447  0.0753 -0.0058
  804loPI   C4B11856   4.706   3.057   6.962 -0.1250  0.0024 -0.1241
  805loPI    C111857   0.623   2.827   4.749  0.0847 -0.0021  0.0682
  805loPI    C211858   0.603   3.143   4.505 -0.3980 -0.0172  0.0783
  805loPI    C311859   0.533   2.776   4.363 -0.2921 -0.0698  0.1609
  805loPI   PO411860   0.499   3.016   4.964  0.1159 -0.1578  0.1187
  805loPI   GL111861   0.405   3.072   5.403 -0.1986  0.1670  0.1203
  805loPI   GL211862   0.234   2.827   5.592 -0.2719  0.0312  0.1261
  805loPI   C1A11863   0.516   3.027   5.934  0.0634 -0.0792  0.0673
  805loPI   C2A11864   0.448   2.827   6.440  0.2062 -0.0285 -0.0032
  805loPI   C3A11865   0.438   2.997   6.750  0.0363 -0.0554 -0.1471
  805loPI   C4A11866   0.266   2.967   7.205  0.2963 -0.0287  0.0066
  805loPI   C5A11867   0.321   3.163   7.528 -0.1555  0.2272  0.0192
  805loPI   C6A11868   0.479   3.533   7.741  0.0171  0.1157  0.1500
  805loPI   C1B11869   0.111   2.643   5.912  0.1091 -0.4008  0.0674
  805loPI   C2B11870   0.039   2.590   6.248 -0.0776 -0.1577  0.1182
  805loPI   C3B11871   0.145   2.602   6.752  0.1844  0.1096  0.0749
  805loPI   C4B11872   0.166   2.423   7.173 -0.1075 -0.1176 -0.2091
  806loPI    C111873  18.020   7.339   5.063 -0.1845  0.0164  0.0388
  806loPI    C211874  18.167   7.051   5.298 -0.2026 -0.2212 -0.2340
  806loPI    C311875  18.050   6.964   4.926  0.0511  0.1935 -0.4185
  806loPI   PO411876  17.910   7.527   5.268 -0.2480 -0.1079  0.1841
  806loPI   GL111877  18.038   7.392   5.668  0.0086  0.0673  0.0441
  806loPI   GL211878  17.716   7.296   5.642  0.0984 -0.1387 -0.3462
  806loPI   C1A11879  18.213   7.420   6.142 -0.3271 -0.0214  0.0935
  806loPI   C2A11880  18.430   7.424   6.474 -0.0602 -0.1669  0.1125
  806loPI   C3A11881  18.571   7.438   6.891  0.3115  0.0523  0.0238
  806loPI   C4A11882  18.579   7.423   7.392 -0.3273 -0.0067 -0.2697
  806loPI   C5A11883  18.199   7.376   7.640  0.0069 -0.3930 -0.0879
  806loPI   C6A11884  17.968   6.998   7.818  0.1747  0.0839  0.1411
  806loPI   C1B11885  17.706   7.154   6.053  0.1731  0.2066  0.1241
  806loPI   C2B11886  17.909   7.074   6.497  0.1650  0.0852 -0.3884
  806loPI   C3B11887  17.979   7.061   7.029 -0.3031  0.0174 -0.3083
  806loPI   C4B11888  17.759   6.777   7.391  0.3064 -0.2670 -0.0338
  807loPI    C111889  12.270   4.679   5.214 -0.0551 -0.1066  0.1286
  807loPI    C211890  12.035   4.781   5.521  0.0735  0.2160  0.1241
  807loPI    C311891  11.900   4.814   5.146  0.0305  0.1355  0.1322
  807loPI   PO411892  12.381   4.439   5.292  0.0023  0.0711  0.1414
  807loPI   GL111893  12.148   4.217   5.455  0.0182  0.1137  0.1791
  807loPI   GL211894  11.922   4.328   5.467  0.1044 -0.2327  0.0926
  807loPI   C1A11895  12.348   4.181   5.931 -0.0534 -0.0294  0.1813
  807loPI   C2A11896  12.308   4.345   6.444 -0.1252  0.0612 -0.0424
  807loPI   C3A11897  12.560   4.753   6.655  0.0936 -0.0095  0.0786
  807loPI   C4A11898  12.689   4.876   7.076 -0.3123 -0.1042  0.0510
  807loPI   C5A11899  12.581   4.962   7.377 -0.1423  0.0462 -0.0457
  807loPI   C6A11900  12.247   4.888   7.636 -0.2129 -0.0156  0.2524
  807loPI   C1B11901  11.858   4.411   5.983 -0.7172  0.0224  0.0605
  807loPI   C2B11902  11.828   4.480   6.385  0.3559  0.2621 -0.0409
  807loPI   C3B11903  11.939   4.384   6.787 -0.0267  0.1278 -0.2483
  807loPI   C4B11904  12.014   4.182   7.170 -0.1573  0.0048 -0.0891
  808loPI    C111905  17.092   4.709   4.867 -0.2160 -0.0959  0.0916
  808loPI    C211906  16.981   5.054   4.699  0.1908 -0.0002  0.0070
  808loPI    C311907  17.142   4.766   4.474  0.0975 -0.1431  0.1217
  808loPI   PO411908  17.262   4.847   5.070 -0.2170 -0.0425  0.0201
  808loPI   GL111909  17.335   4.907   5.454  0.6613  0.0265  0.0072
  808loPI   GL211910  17.661   4.819   5.411  0.0916 -0.3735 -0.2245
  808loPI   C1A11911  17.342   5.043   5.875  0.1438  0.0119  0.1194
  808loPI   C2A11912  17.413   5.177   6.264  0.0262  0.1420  0.0346
  808loPI   C3A11913  17.360   5.184   6.695  0.0047 -0.1337 -0.0087
  808loPI   C4A11914  17.285   5.179   7.125  0.0491  0.0614  0.0324
  808loPI   C5A11915  17.363   5.326   7.510 -0.0029 -0.3963 -0.2506
  808loPI   C6A11916  17.416   5.203   7.942  0.2068 -0.2532  0.2496
  808loPI   C1B11917  17.680   4.618   5.749 -0.0575  0.1028  0.1227
  808loPI   C2B11918  17.706   4.347   6.155  0.1876  0.1234 -0.2195
  808loPI   C3B11919  17.755   4.395   6.663  0.0594  0.0107 -0.0369
  808loPI   C4B11920  17.513   4.350   7.071  0.2539  0.1826  0.0799
  809loPI    C111921   2.515  18.614   5.618  0.1112  0.0761  0.0609
  809loPI    C211922   2.502  18.258   5.436 -0.0226  0.1519 -0.0805
  809loPI    C311923   2.692  18.564   5.262 -0.0948  0.2073 -0.0620
  809loPI   PO411924   2.582  18.582   5.839  0.1955 -0.0223  0.3087
  809loPI   GL111925   2.397  18.334   6.226 -0.2616  0.1478  0.1040
  809loPI   GL211926   2.050  18.380   6.063  0.1337 -0.0935 -0.0543
  809loPI   C1A11927   2.339  18.206   6.644  0.0760 -0.0881  0.1323
  809loPI   C2A11928   2.093  17.910   7.004  0.2715  0.0187 -0.0237
  809loPI   C3A11929   1.807  17.642   7.398 -0.0438 -0.2901 -0.1472
  809loPI   C4A11930   1.558  17.378   7.677 -0.1633  0.1123  0.1597
  809loPI   C5A11931   1.399  17.141   8.013 -0.1200  0.0128 -0.3414
  809loPI   C6A11932   1.144  17.018   8.473  0.1192 -0.2098  0.0242
  809loPI   C1B11933   1.874  18.312   6.500 -0.1689  0.1699 -0.0059
  809loPI   C2B11934   1.719  18.201   6.808  0.0769 -0.0290  0.1011
  809loPI   C3B11935   1.511  18.045   7.261  0.0154 -0.1197  0.1286
  809loPI   C4B11936   1.308  17.618   7.332  0.1327  0.0840  0.1150
  810loPI    C111937  12.667  12.775   4.741  0.1071  0.1922  0.0933
  810loPI    C211938  12.516  13.139   4.672  0.1691  0.1892 -0.0621
  810loPI    C311939  12.386  12.825   4.460 -0.1320  0.0587  0.3040
  810loPI   PO411940  12.689  12.822   5.015 -0.0557 -0.0867  0.0623
  810loPI   GL111941  12.554  12.939   5.356  0.2860 -0.1037 -0.1852
  810loPI   GL211942  12.728  13.063   5.561 -0.1883 -0.2245  0.0091
  810loPI   C1A11943  12.332  12.739   5.702  0.0863 -0.1085 -0.1895
  810loPI   C2A11944  12.324  12.708   6.135 -0.1149 -0.0559 -0.0272
  810loPI   C3A11945  12.230  12.607   6.551  0.0540 -0.1013 -0.1400
  810loPI   C4A11946  12.181  12.701   7.008  0.1801 -0.1203  0.2271
  810loPI   C5A11947  12.319  12.773   7.426 -0.2575 -0.1878  0.0572
  810loPI   C6A11948  12.260  12.590   7.766  0.1040 -0.1654  0.3366
  810loPI   C1B11949  12.696  13.064   6.000 -0.1363 -0.0631 -0.1253
  810loPI   C2B11950  12.702  12.955   6.423 -0.1037  0.2869 -0.0117
  810loPI   C3B11951  12.627  12.963   6.905  0.0288  0.2339 -0.0651
  810loPI   C4B11952  12.825  13.022   7.450  0.1450  0.2566 -0.1190
  811loPI    C111953   3.085   4.453   4.653  0.3184  0.4225  0.0034
  811loPI    C211954   2.854   4.776   4.601 -0.2904  0.0308  0.1741
  811loPI    C311955   2.874   4.496   4.315  0.0031  0.0759  0.1482
  811loPI   PO411956   3.041   4.399   4.923 -0.2578  0.1108  0.0147
  811loPI   GL111957   3.134   4.502   5.286 -0.0241  0.2231  0.3340
  811loPI   GL211958   3.399   4.514   5.418 -0.2934 -0.0797 -0.0816
  811loPI   C1A11959   2.960   4.692   5.735  0.3389 -0.1177  0.1671
  811loPI   C2A11960   2.898   4.767   6.168 -0.1905 -0.1914  0.0621
  811loPI   C3A11961   3.011   4.832   6.616  0.2564 -0.1855 -0.1496
  811loPI   C4A11962   2.957   4.973   7.008  0.1159 -0.1940 -0.2828
  811loPI   C5A11963   3.241   5.242   7.286  0.1306 -0.1356  0.0545
  811loPI   C6A11964   3.499   5.237   7.687 -0.0317 -0.1509 -0.1567
  811loPI   C1B11965   3.393   4.584   5.898  0.2859  0.0182 -0.2029
  811loPI   C2B11966   3.289   4.536   6.366 -0.2698  0.0537 -0.0964
  811loPI   C3B11967   3.329   4.288   6.727 -0.0009 -0.0372 -0.0572
  811loPI   C4B11968   3.121   3.976   6.979  0.1988  0.1096  0.1476
  812loPI    C111969  14.462  15.716   5.401 -0.1583 -0.0536  0.1859
  812loPI    C211970  14.359  15.947   5.091  0.0602 -0.0729  0.0968
  812loPI    C311971  14.274  15.556   5.087  0.0440 -0.0690  0.0709
  812loPI   PO411972  14.407  15.721   5.615  0.3829  0.4230  0.3076
  812loPI   GL111973  14.345  15.415   5.957  0.4244  0.1770 -0.2123
  812loPI   GL211974  14.658  15.573   6.096 -0.1083 -0.0450 -0.2757
  812loPI   C1A11975  14.228  15.503   6.361  0.0620 -0.0507  0.1059
  812loPI   C2A11976  13.896  15.442   6.543  0.0423 -0.0775 -0.3283
  812loPI   C3A11977  13.948  15.759   6.847  0.1727 -0.0431  0.0834
  812loPI   C4A11978  13.719  15.944   7.165  0.2229 -0.1116  0.0956
  812loPI   C5A11979  13.692  16.246   7.342 -0.3016 -0.1896  0.0511
  812loPI   C6A11980  13.829  16.679   7.541 -0.2092 -0.0039  0.1993
  812loPI   C1B11981  14.853  15.664   6.405 -0.0104  0.0939  0.1065
  812loPI   C2B11982  14.915  15.890   6.783  0.2373 -0.1324 -0.1384
  812loPI   C3B11983  15.040  16.008   7.277  0.2617 -0.2982  0.1014
  812loPI   C4B11984  15.176  15.851   7.649 -0.0824  0.5909  0.2115
  813loPI    C111985  11.958   9.538   5.069 -0.1399 -0.1229  0.1843
  813loPI    C211986  11.592   9.641   4.944  0.0377  0.2349 -0.0578
  813loPI    C311987  11.854   9.483   4.686  0.0615 -0.0057  0.1108
  813loPI   PO411988  11.990   9.343   5.344  0.1003  0.0919  0.0541
  813loPI   GL111989  12.133   9.048   5.672 -0.0426 -0.0073 -0.0369
  813loPI   GL211990  12.397   9.282   5.569 -0.1512 -0.1812  0.1271
  813loPI   C1A11991  12.013   9.243   6.003 -0.3977 -0.1874  0.1143
  813loPI   C2A11992  12.134   9.223   6.427  0.0256 -0.0024  0.1901
  813loPI   C3A11993  12.314   9.276   6.947 -0.0353 -0.2205  0.1512
  813loPI   C4A11994  12.340   9.327   7.443  0.0694  0.0010 -0.1419
  813loPI   C5A11995  12.091   9.502   7.737 -0.0210  0.0234 -0.2443
  813loPI   C6A11996  11.898   9.932   7.741 -0.0041 -0.1398 -0.0268
  813loPI   C1B11997  12.206   9.653   5.832 -0.1617 -0.2353 -0.0571
  813loPI   C2B11998  12.115   9.697   6.334 -0.1307 -0.0197 -0.1972
  813loPI   C3B11999  12.147   9.693   6.744 -0.0762 -0.1901  0.0152
  813loPI   C4B12000  12.179   9.795   7.367  0.2077  0.0223  0.0734
  814loPI    C112001  14.284  17.450   5.178  0.0078  0.0374  0.0532
  814loPI    C212002  14.408  17.182   4.909 -0.0454 -0.0247  0.0902
  814loPI    C312003  14.458  17.572   4.839  0.2448 -0.0509  0.1411
  814loPI   PO412004  14.350  17.233   5.431  0.1616 -0.2415  0.2701
  814loPI   GL112005  14.107  17.227   5.795  0.2181  0.2678 -0.0821
  814loPI   GL212006  14.201  17.566   5.766  0.0140 -0.1098 -0.0088
  814loPI   C1A12007  14.346  17.186   6.231 -0.0270  0.3526 -0.0199
  814loPI   C2A12008  14.732  17.013   6.352 -0.1769  0.1304  0.0851
  814loPI   C3A12009  14.765  16.853   6.679 -0.2159  0.0648  0.1139
  814loPI   C4A12010  14.622  16.761   7.107  0.1871 -0.0359  0.1319
  814loPI   C5A12011  14.370  16.903   7.477  0.3917  0.0413  0.0609
  814loPI   C6A12012  14.245  16.947   7.895 -0.4311  0.0813 -0.2706
  814loPI   C1B12013  14.262  17.666   6.131  0.1007  0.1547 -0.3054
  814loPI   C2B12014  14.272  17.797   6.519 -0.1120 -0.1409 -0.0912
  814loPI   C3B12015  14.296  18.092   6.840 -0.1819  0.1113 -0.0395
  814loPI   C4B12016  14.498  18.143   7.269 -0.0667 -0.0286  0.0137
  815loPI    C112017   6.140   9.757   4.898 -0.0357  0.1747  0.0402
  815loPI    C212018   5.996  10.094   4.737  0.0508  0.1767 -0.0334
  815loPI    C312019   5.846   9.740   4.628  0.2484  0.1640 -0.2754
  815loPI   PO412020   6.273   9.927   5.204  0.0621 -0.1766  0.0915
  815loPI   GL112021   6.131   9.967   5.670  0.0725  0.0223 -0.0831
  815loPI   GL212022   6.371   9.735   5.693  0.2603  0.0164 -0.2491
  815loPI   C1A12023   6.096   9.957   6.133 -0.1287  0.1051 -0.0803
  815loPI   C2A12024   6.178   9.973   6.564  0.0761  0.0434  0.1516
  815loPI   C3A12025   6.226   9.750   6.849 -0.2249  0.1265  0.1600
  815loPI   C4A12026   6.275   9.402   7.167  0.0079 -0.1136  0.2776
  815loPI   C5A12027   6.148   9.394   7.572 -0.0483 -0.0439 -0.1037
  815loPI   C6A12028   6.211   9.441   8.043  0.4241 -0.1620  0.6082
  815loPI   C1B12029   6.350   9.545   6.171 -0.2204  0.1417 -0.0240
  815loPI   C2B12030   6.234   9.398   6.515 -0.1541  0.2691  0.0525
  815loPI   C3B12031   5.960   9.317   6.845  0.1763  0.1801  0.0249
  815loPI   C4B12032   5.787   9.306   7.258  0.2933  0.2260  0.2504
  816loPI    C112033   8.475  17.564   5.149 -0.0207  0.1241 -0.0204
  816loPI    C212034   8.347  17.700   5.503 -0.0533 -0.0605  0.0396
  816loPI    C312035   8.189  17.844   5.165 -0.3165 -0.1789  0.1097
  816loPI   PO412036   8.737  17.414   5.320  0.0161 -0.3566  0.1152
  816loPI   GL112037   8.721  17.350   5.780  0.0191  0.0756 -0.0384
  816loPI   GL212038   8.506  17.351   6.031  0.0057 -0.0537  0.1227
  816loPI   C1A12039   8.803  17.000   6.183  0.1425 -0.1325  0.4277
  816loPI   C2A12040   8.851  16.812   6.409 -0.1651 -0.1137 -0.2780
  816loPI   C3A12041   8.998  16.705   6.817  0.2125 -0.3325  0.2992
  816loPI   C4A12042   9.338  16.476   6.976 -0.0912 -0.0837  0.2421
  816loPI   C5A12043   9.233  16.148   7.139 -0.0922  0.0528  0.0723
  816loPI   C6A12044   9.171  15.823   7.450 -0.1352  0.0500  0.1745
  816loPI   C1B12045   8.629  17.444   6.414 -0.2338  0.0069  0.0207
  816loPI   C2B12046   8.594  17.205   6.778  0.1036 -0.1919 -0.2277
  816loPI   C3B12047   8.390  17.292   7.167 -0.1123  0.0626 -0.0494
  816loPI   C4B12048   8.259  17.175   7.666 -0.1090 -0.0719  0.4489
  817loPI    C112049  14.865   9.733   5.257  0.0592  0.1050  0.0150
  817loPI    C212050  14.682  10.087   5.228  0.0118  0.0826  0.0411
  817loPI    C312051  14.893   9.945   4.919 -0.2295 -0.0096 -0.0840
  817loPI   PO412052  14.915   9.709   5.452 -0.0597 -0.0928 -0.0511
  817loPI   GL112053  15.046   9.735   5.884 -0.1299 -0.0412  0.3786
  817loPI   GL212054  14.722   9.609   5.901  0.4111 -0.0102  0.0004
  817loPI   C1A12055  15.333   9.747   6.197  0.1218  0.3368  0.1893
  817loPI   C2A12056  15.240   9.664   6.617  0.0157  0.0721  0.1315
  817loPI   C3A12057  15.269   9.383   6.975  0.0245 -0.0821  0.0650
  817loPI   C4A12058  15.183   9.266   7.472  0.1583 -0.0124  0.1519
  817loPI   C5A12059  15.378   9.527   7.749  0.0916  0.0642  0.1723
  817loPI   C6A12060  15.724   9.759   7.842  0.3716 -0.0061  0.1016
  817loPI   C1B12061  14.769   9.811   6.311  0.0601 -0.1870  0.1382
  817loPI   C2B12062  14.923  10.045   6.549  0.2331  0.1723 -0.0413
  817loPI   C3B12063  14.981  10.134   7.001 -0.0935  0.0114 -0.1224
  817loPI   C4B12064  14.877  10.294   7.357  0.1168 -0.0817 -0.2061
  818loPI    C112065   6.349   6.120   4.635 -0.1796 -0.1176  0.0433
  818loPI    C212066   6.188   6.398   4.396 -0.1444  0.0215  0.1795
  818loPI    C312067   6.548   6.245   4.311 -0.2422 -0.1164  0.0051
  818loPI   PO412068   6.339   6.200   4.912 -0.1300 -0.0005  0.0724
  818loPI   GL112069   6.510   6.242   5.224 -0.1570  0.0794  0.1410
  818loPI   GL212070   6.575   5.897   5.188  0.3410 -0.1361 -0.3721
  818loPI   C1A12071   6.407   6.272   5.668 -0.1422  0.4264 -0.1415
  818loPI   C2A12072   6.324   6.169   6.041 -0.2332  0.0040  0.0947
  818loPI   C3A12073   6.011   6.084   6.373  0.0935 -0.2750 -0.2093
  818loPI   C4A12074   5.718   6.182   6.508 -0.0999  0.2774 -0.1937
  818loPI   C5A12075   5.416   6.081   6.828 -0.1431 -0.3791  0.0593
  818loPI   C6A12076   5.522   6.345   7.234 -0.0233  0.0814 -0.1466
  818loPI   C1B12077   6.524   5.804   5.623 -0.0443 -0.0156  0.0354
  818loPI   C2B12078   6.686   5.769   5.953 -0.0761  0.0718  0.0405
  818loPI   C3B12079   6.807   5.789   6.499  0.0425 -0.3558 -0.1661
  818loPI   C4B12080   6.851   5.680   6.966  0.2674 -0.2316 -0.1502
  819loPI    C112081  12.511   7.810   5.446 -0.0648  0.0097 -0.0171
  819loPI    C212082  12.122   7.858   5.366 -0.0921 -0.2244 -0.0310
  819loPI    C312083  12.376   7.763   5.073  0.0062  0.0987 -0.0544
  819loPI   PO412084  12.571   8.017   5.612  0.1885  0.1045  0.0612
  819loPI   GL112085  12.327   8.198   5.786 -0.1082  0.0423  0.0340
  819loPI   GL212086  12.164   7.896   5.895  0.2699  0.2513 -0.1471
  819loPI   C1A12087  12.484   8.318   6.239  0.4453 -0.1521  0.0140
  819loPI   C2A12088  12.718   8.186   6.655  0.2256 -0.0223 -0.1353
  819loPI   C3A12089  12.542   8.023   7.036  0.1849  0.2966 -0.2309
  819loPI   C4A12090  12.694   7.778   7.447 -0.0384 -0.0766 -0.2205
  819loPI   C5A12091  13.017   7.920   7.638 -0.2601 -0.2179 -0.2377
  819loPI   C6A12092  13.074   8.400   7.658  0.3253  0.3925 -0.0869
  819loPI   C1B12093  12.207   7.847   6.337  0.1283  0.0885 -0.1127
  819loPI   C2B12094  12.245   7.629   6.650  0.0500 -0.0260  0.2168
  819loPI   C3B12095  12.498   7.541   7.051 -0.2998  0.4048  0.0869
  819loPI   C4B12096  12.936   7.389   7.165  0.2766 -0.0899  0.1864
  820loPI    C112097   8.527  16.888   5.712  0.1289  0.3014  0.0112
  820loPI    C212098   8.839  16.826   5.469 -0.1106 -0.2615 -0.1704
  820loPI    C312099   8.497  16.973   5.322  0.0163  0.2284  0.0037
  820loPI   PO412100   8.398  16.622   5.816  0.0718 -0.1526  0.0718
  820loPI   GL112101   8.385  16.678   6.201 -0.0240  0.2299  0.2524
  820loPI   GL212102   8.360  16.938   6.326  0.1701 -0.1513 -0.1987
  820loPI   C1A12103   8.438  16.520   6.593 -0.2060 -0.2671 -0.3192
  820loPI   C2A12104   8.491  16.766   6.976 -0.1515  0.0784 -0.1052
  820loPI   C3A12105   8.796  16.990   7.197 -0.2101  0.2205  0.1350
  820loPI   C4A12106   8.775  17.058   7.631 -0.1332  0.1173  0.2029
  820loPI   C5A12107   8.557  16.964   7.984  0.1017  0.1965  0.1589
  820loPI   C6A12108   8.330  16.775   8.345 -0.0729 -0.1879  0.3908
  820loPI   C1B12109   8.140  16.927   6.648 -0.2305 -0.2178 -0.2395
  820loPI   C2B12110   7.987  17.015   7.043  0.0637 -0.0728 -0.0414
  820loPI   C3B12111   7.817  17.027   7.489 -0.0189  0.1882  0.1175
  820loPI   C4B12112   7.800  17.335   7.864  0.3331  0.0196  0.0260
  821loPI    C112113   4.812  12.725   5.161 -0.0463 -0.1271  0.1048
  821loPI    C212114   5.122  12.473   5.140  0.0544  0.0075 -0.0517
  821loPI    C312115   4.852  12.482   4.845 -0.1978 -0.2334  0.1664
  821loPI   PO412116   4.701  12.758   5.390 -0.1473  0.2701  0.1002
  821loPI   GL112117   4.789  12.889   5.829  0.3175  0.0496  0.0931
  821loPI   GL212118   4.585  12.756   5.895 -0.2528 -0.0939  0.0864
  821loPI   C1A12119   5.073  13.090   6.079  0.3137  0.1023  0.1572
  821loPI   C2A12120   5.541  13.202   6.220  0.0999  0.0795  0.1390
  821loPI   C3A12121   5.894  13.302   6.534  0.0888  0.2331 -0.2012
  821loPI   C4A12122   6.036  13.392   7.041 -0.1174  0.0678 -0.2070
  821loPI   C5A12123   5.974  13.524   7.472  0.0769 -0.3061 -0.4768
  821loPI   C6A12124   6.131  13.555   7.918 -0.0227 -0.1270  0.0286
  821loPI   C1B12125   4.584  13.008   6.222  0.1435  0.1616  0.0285
  821loPI   C2B12126   4.659  13.208   6.652 -0.0858  0.1004  0.0745
  821loPI   C3B12127   4.873  13.510   6.925 -0.0107  0.1686 -0.2665
  821loPI   C4B12128   5.207  13.878   6.901  0.1134  0.0908 -0.3276
  822loPI    C112129   0.616   4.925   5.035  0.2981  0.0082 -0.1141
  822loPI    C212130   0.310   5.115   4.860  0.0673 -0.1954  0.0610
  822loPI    C312131   0.680   5.154   4.713 -0.0814 -0.1569 -0.3136
  822loPI   PO412132   0.539   4.819   5.304 -0.0672 -0.0549 -0.0624
  822loPI   GL112133   0.309   4.862   5.646  0.1390  0.0327  0.1013
  822loPI   GL212134   0.538   5.185   5.673  0.0721 -0.1344 -0.0971
  822loPI   C1A12135   0.205   4.659   5.984  0.2234 -0.0057 -0.2646
  822loPI   C2A12136   0.134   4.478   6.382 -0.1381  0.1726  0.0438
  822loPI   C3A12137   0.193   4.570   6.862  0.1431 -0.1439  0.0306
  822loPI   C4A12138   0.434   4.394   7.300  0.2759  0.1562  0.2579
  822loPI   C5A12139   0.563   4.457   7.678  0.2018 -0.1732  0.2389
  822loPI   C6A12140   0.590   4.910   7.875  0.0038  0.0796 -0.4692
  822loPI   C1B12141   0.443   5.067   6.116  0.0664  0.1519  0.1652
  822loPI   C2B12142   0.464   4.862   6.458 -0.0325  0.1932  0.2857
  822loPI   C3B12143   0.508   4.965   6.868 -0.1410  0.1744  0.1368
  822loPI   C4B12144   0.516   4.906   7.295 -0.4254 -0.0558 -0.2354
  823loPI    C112145  11.891  15.300   5.517  0.0214 -0.1268 -0.0128
  823loPI    C212146  11.755  15.386   5.151  0.0171 -0.0217  0.0132
  823loPI    C312147  11.985  15.064   5.208  0.1112  0.0245 -0.1022
  823loPI   PO412148  11.692  15.328   5.640  0.2091 -0.1764 -0.4900
  823loPI   GL112149  11.412  15.372   6.016 -0.0049  0.0342 -0.0909
  823loPI   GL212150  11.382  15.719   5.945 -0.1226 -0.2756 -0.0799
  823loPI   C1A12151  11.347  15.440   6.502 -0.1125 -0.0696  0.3002
  823loPI   C2A12152  11.531  15.342   6.928 -0.3148 -0.1170  0.1412
  823loPI   C3A12153  11.393  15.127   7.241 -0.3948  0.1516 -0.0681
  823loPI   C4A12154  11.037  14.972   7.337 -0.0404  0.0739 -0.0638
  823loPI   C5A12155  10.566  15.039   7.476 -0.1919  0.0549 -0.0486
  823loPI   C6A12156  10.213  15.056   7.782  0.0997  0.1882  0.2108
  823loPI   C1B12157  11.593  15.867   6.295 -0.1393  0.1778 -0.0884
  823loPI   C2B12158  11.514  15.853   6.810  0.4018  0.0931 -0.0978
  823loPI   C3B12159  11.480  15.868   7.228 -0.0577 -0.1026 -0.2782
  823loPI   C4B12160  11.348  15.960   7.655 -0.2343  0.2947  0.2079
  824loPI    C112161   6.018   1.609   5.461  0.1307  0.1120 -0.1226
  824loPI    C212162   6.063   1.484   5.084  0.1841  0.0313 -0.0896
  824loPI    C312163   6.296   1.336   5.373  0.1458  0.0959 -0.0254
  824loPI   PO412164   5.798   1.623   5.543  0.2317 -0.0266  0.0693
  824loPI   GL112165   5.622   1.953   5.729  0.3148  0.0053 -0.1355
  824loPI   GL212166   5.486   2.279   5.825 -0.2060  0.3935  0.0134
  824loPI   C1A12167   5.809   1.917   6.154 -0.0200 -0.0500  0.1775
  824loPI   C2A12168   6.013   1.833   6.452 -0.0468 -0.1204 -0.2551
  824loPI   C3A12169   6.160   1.746   6.854 -0.0697 -0.1429 -0.0284
  824loPI   C4A12170   6.057   1.801   7.314 -0.1390  0.2367 -0.0886
  824loPI   C5A12171   6.085   1.941   7.739 -0.1891 -0.0456  0.1274
  824loPI   C6A12172   6.360   1.784   8.129  0.1941 -0.3498  0.2121
  824loPI   C1B12173   5.526   2.315   6.287  0.0299 -0.3493  0.1672
  824loPI   C2B12174   5.244   2.553   6.525  0.2248  0.1578  0.1164
  824loPI   C3B12175   4.845   2.786   6.517  0.1396  0.3334 -0.1707
  824loPI   C4B12176   4.573   2.677   6.215  0.4831 -0.2427  0.1006
  825loPI    C112177  15.837  12.940   5.652 -0.0044  0.0638 -0.0278
  825loPI    C212178  15.676  13.089   5.318  0.1068 -0.0604 -0.1384
  825loPI    C312179  15.678  13.307   5.654 -0.1687 -0.0051 -0.1696
  825loPI   PO412180  15.732  12.687   5.690  0.3605 -0.2497 -0.0383
  825loPI   GL112181  15.587  12.362   5.943 -0.2734  0.0354 -0.1035
  825loPI   GL212182  15.286  12.548   5.978 -0.0113 -0.1159  0.3882
  825loPI   C1A12183  15.644  12.115   6.264  0.0999 -0.1471 -0.2208
  825loPI   C2A12184  15.616  11.697   6.471  0.2658 -0.0998 -0.0026
  825loPI   C3A12185  15.490  11.535   6.932 -0.2496  0.0502 -0.0361
  825loPI   C4A12186  15.440  11.641   7.287 -0.0203 -0.0771  0.2118
  825loPI   C5A12187  15.147  11.892   7.603 -0.1504  0.2005  0.1209
  825loPI   C6A12188  15.321  12.224   7.885  0.1418  0.1251 -0.1549
  825loPI   C1B12189  15.377  12.516   6.477 -0.1728 -0.0110  0.3142
  825loPI   C2B12190  15.709  12.428   6.780  0.0904  0.1078 -0.1309
  825loPI   C3B12191  15.625  12.488   7.223  0.2052  0.1261  0.1286
  825loPI   C4B12192  15.563  12.552   7.687  0.1090 -0.1362  0.0201
  826loPI    C112193   6.700   8.055   4.992  0.0865  0.1665 -0.1018
  826loPI    C212194   6.712   8.004   4.595  0.0397  0.0114 -0.0840
  826loPI    C312195   6.365   7.967   4.792  0.0667  0.0667 -0.0257
  826loPI   PO412196   6.905   7.983   5.140  0.1532  0.1003  0.4927
  826loPI   GL112197   6.942   7.777   5.527 -0.1934 -0.1733  0.0466
  826loPI   GL212198   7.138   7.530   5.668  0.1221  0.2664  0.0790
  826loPI   C1A12199   6.644   7.652   5.790 -0.2036  0.1086  0.0893
  826loPI   C2A12200   6.552   7.575   6.288 -0.3037 -0.5790 -0.1768
  826loPI   C3A12201   6.587   7.492   6.761 -0.3096  0.0915 -0.1158
  826loPI   C4A12202   6.581   7.327   7.107 -0.0192 -0.3002 -0.0081
  826loPI   C5A12203   6.199   7.508   7.312 -0.1438  0.3450  0.1925
  826loPI   C6A12204   5.716   7.403   7.325  0.2312 -0.0287 -0.0242
  826loPI   C1B12205   7.014   7.725   6.092  0.4545 -0.1188 -0.0801
  826loPI   C2B12206   7.073   7.679   6.453 -0.1877  0.0750  0.1409
  826loPI   C3B12207   7.075   7.653   6.888  0.1426  0.1970  0.0715
  826loPI   C4B12208   7.042   7.795   7.195  0.0882 -0.0193 -0.2280
  827loPI    C112209   5.143  17.586   5.576  0.0632 -0.1036  0.0599
  827loPI    C212210   5.220  17.961   5.460 -0.1862 -0.0104  0.1855
  827loPI    C312211   5.342  17.652   5.236 -0.1481  0.1499 -0.0176
  827loPI   PO412212   4.891  17.553   5.662 -0.3681  0.3643 -0.1028
  827loPI   GL112213   4.785  17.396   5.955 -0.1308  0.3354  0.0294
  827loPI   GL212214   4.764  17.652   6.146  0.2121 -0.1178 -0.2241
  827loPI   C1A12215   4.795  17.161   6.337  0.1905 -0.1972  0.0763
  827loPI   C2A12216   4.597  17.304   6.635  0.2304  0.0305 -0.0708
  827loPI   C3A12217   4.652  17.117   6.988 -0.2425  0.1274 -0.0015
  827loPI   C4A12218   4.443  17.084   7.517  0.3388  0.0170 -0.1856
  827loPI   C5A12219   4.253  17.345   7.888 -0.0559  0.1120  0.2790
  827loPI   C6A12220   4.122  17.362   8.319  0.1104 -0.1101 -0.1518
  827loPI   C1B12221   4.874  17.672   6.603  0.2224 -0.1047 -0.0234
  827loPI   C2B12222   4.939  17.513   7.011  0.2683 -0.1441 -0.1661
  827loPI   C3B12223   4.757  17.481   7.393 -0.0860  0.1212 -0.1824
  827loPI   C4B12224   4.804  17.602   7.768  0.1130  0.1276 -0.1176
  828loPI    C112225  17.484  14.547   5.615 -0.0618  0.0788  0.1348
  828loPI    C212226  17.333  14.577   5.246  0.3027  0.0270 -0.0234
  828loPI    C312227  17.391  14.217   5.410  0.0328  0.0523  0.1340
  828loPI   PO412228  17.424  14.795   5.759  0.1219  0.0937 -0.1135
  828loPI   GL112229  17.300  14.700   6.152  0.0431 -0.3970  0.0665
  828loPI   GL212230  17.733  14.725   6.136 -0.0189 -0.3310  0.0422
  828loPI   C1A12231  17.365  15.064   6.314  0.1114  0.2312  0.0232
  828loPI   C2A12232  17.639  15.358   6.601  0.2774  0.0257  0.1127
  828loPI   C3A12233  17.742  15.440   6.984 -0.1131 -0.0141  0.0143
  828loPI   C4A12234  17.965  15.303   7.321  0.1967 -0.1651  0.0543
  828loPI   C5A12235  17.896  15.033   7.706 -0.1651 -0.0571  0.0288
  828loPI   C6A12236  17.840  14.893   8.072 -0.0985 -0.2098 -0.1258
  828loPI   C1B12237  17.652  14.647   6.516 -0.0660 -0.2385 -0.0529
  828loPI   C2B12238  17.534  14.864   6.826 -0.2969  0.0184 -0.1127
  828loPI   C3B12239  17.573  15.026   7.313 -0.1436 -0.0988 -0.1898
  828loPI   C4B12240  17.485  15.410   7.508 -0.0650  0.4197 -0.1078
  829loPI    C112241  12.954  10.030   4.890 -0.0048 -0.0011 -0.0259
  829loPI    C212242  12.910  10.413   4.997 -0.0315  0.0176 -0.1040
  829loPI    C312243  13.083  10.321   4.648  0.3245 -0.0497  0.0858
  829loPI   PO412244  12.869   9.941   5.123 -0.1451  0.0910  0.0645
  829loPI   GL112245  13.199  10.020   5.411  0.0321 -0.0107 -0.0233
  829loPI   GL212246  13.451  10.133   5.699 -0.0115  0.2216  0.3734
  829loPI   C1A12247  12.959  10.218   5.783 -0.0440  0.0169 -0.1918
  829loPI   C2A12248  12.938  10.352   6.214 -0.1191  0.1363 -0.1129
  829loPI   C3A12249  12.945  10.343   6.634 -0.1458  0.0472 -0.1896
  829loPI   C4A12250  12.838  10.283   7.067  0.1451 -0.1014  0.0980
  829loPI   C5A12251  12.641  10.484   7.422  0.1800  0.0170 -0.1338
  829loPI   C6A12252  12.550  10.590   7.801 -0.1623 -0.1824 -0.1570
  829loPI   C1B12253  13.473  10.093   6.140  0.1564 -0.1183 -0.0947
  829loPI   C2B12254  13.429  10.158   6.551  0.0015 -0.0275 -0.1308
  829loPI   C3B12255  13.439  10.146   7.026  0.1998  0.0731  0.0916
  829loPI   C4B12256  13.674   9.808   7.309  0.0003  0.0686  0.1358
  830loPI    C112257   9.125  14.437   5.099  0.0486  0.0778 -0.0002
  830loPI    C212258   9.289  14.726   4.876 -0.0497 -0.0803 -0.2828
  830loPI    C312259   9.051  14.453   4.706 -0.0874 -0.2337  0.0097
  830loPI   PO412260   9.129  14.602   5.376  0.1319  0.0282 -0.0278
  830loPI   GL112261   9.121  14.688   5.959 -0.0625 -0.1110  0.0001
  830loPI   GL212262   9.375  14.639   5.983 -0.1107  0.0900  0.0193
  830loPI   C1A12263   9.261  14.923   6.379 -0.0832 -0.2185 -0.0462
  830loPI   C2A12264   9.250  15.129   6.756 -0.2062 -0.0305  0.0362
  830loPI   C3A12265   9.294  15.407   7.079 -0.0973  0.0760 -0.1890
  830loPI   C4A12266   9.436  15.395   7.561 -0.0985 -0.0028 -0.1057
  830loPI   C5A12267   9.870  15.484   7.609  0.0157  0.1602  0.4418
  830loPI   C6A12268  10.138  15.521   7.992  0.3391 -0.2278 -0.1705
  830loPI   C1B12269   9.373  14.265   6.300  0.0566  0.4142  0.3113
  830loPI   C2B12270   9.441  14.279   6.651  0.1067 -0.3765  0.2010
  830loPI   C3B12271   9.635  14.104   6.947  0.1161 -0.1398  0.0152
  830loPI   C4B12272   9.982  13.991   7.338  0.1236  0.0531  0.1417
  831loPI    C112273   5.830  14.507   5.205  0.0770  0.1144  0.2498
  831loPI    C212274   5.573  14.674   4.948  0.1273 -0.1836  0.0006
  831loPI    C312275   5.910  14.865   5.046  0.0711 -0.0335 -0.0950
  831loPI   PO412276   5.843  14.224   5.210  0.2216  0.0362 -0.1009
  831loPI   GL112277   5.761  14.094   5.610 -0.0267  0.1079  0.1047
  831loPI   GL212278   5.726  14.486   5.721 -0.0318 -0.0653 -0.0241
  831loPI   C1A12279   5.663  14.143   6.045 -0.0850 -0.0894 -0.1987
  831loPI   C2A12280   5.723  14.188   6.476  0.2539 -0.1468 -0.0681
  831loPI   C3A12281   5.681  14.269   6.952  0.3221 -0.1817 -0.0690
  831loPI   C4A12282   5.726  14.466   7.399  0.1701  0.2429  0.2507
  831loPI   C5A12283   5.920  14.713   7.785  0.0516 -0.0403  0.0439
  831loPI   C6A12284   6.326  14.550   8.001 -0.0747  0.2082  0.1388
  831loPI   C1B12285   5.741  14.645   6.188 -0.1007 -0.1478  0.1590
  831loPI   C2B12286   5.675  14.707   6.592 -0.2622  0.0189 -0.0655
  831loPI   C3B12287   5.670  15.035   6.848 -0.1210  0.1918 -0.1409
  831loPI   C4B12288   5.905  15.271   7.128 -0.0631 -0.0027  0.0854
  832loPI    C112289   1.849   1.190   5.216  0.0676  0.0220  0.1162
  832loPI    C212290   1.918   0.796   5.216  0.1784  0.0379 -0.2639
  832loPI    C312291   1.640   0.950   4.974  0.0188  0.1773  0.0033
  832loPI   PO412292   1.885   1.284   5.438  0.1073 -0.1586  0.2271
  832loPI   GL112293   1.631   1.005   5.782 -0.0562  0.1199  0.2492
  832loPI   GL212294   1.801   0.676   5.731  0.1367  0.1054 -0.1802
  832loPI   C1A12295   1.496   1.022   6.152 -0.1085 -0.0895 -0.0393
  832loPI   C2A12296   1.326   1.056   6.621  0.0954 -0.1339  0.1006
  832loPI   C3A12297   1.379   1.109   7.151  0.2251 -0.2461 -0.1312
  832loPI   C4A12298   1.451   1.239   7.514 -0.1506 -0.1204  0.0072
  832loPI   C5A12299   1.604   1.532   7.839  0.0045  0.2349  0.2726
  832loPI   C6A12300   1.493   2.007   7.810 -0.1952  0.1128  0.0724
  832loPI   C1B12301   1.850   0.600   6.100  0.1518  0.0316  0.0726
  832loPI   C2B12302   1.741   0.616   6.509 -0.1135  0.2081  0.1721
  832loPI   C3B12303   1.600   0.655   6.892  0.0742  0.3105 -0.2928
  832loPI   C4B12304   1.697   0.499   7.257  0.1924  0.3544  0.0339
  833loPI    C112305  14.814   2.471   5.245  0.0747  0.0738  0.2211
  833loPI    C212306  14.498   2.716   5.255  0.0974  0.1045  0.1902
  833loPI    C312307  14.600   2.534   4.913 -0.0850 -0.1655  0.2761
  833loPI   PO412308  15.008   2.510   5.357  0.2251 -0.1948  0.2347
  833loPI   GL112309  15.070   2.389   5.778 -0.0439  0.1235 -0.1737
  833loPI   GL212310  15.246   2.729   5.861 -0.0288 -0.3894 -0.0178
  833loPI   C1A12311  15.064   2.102   6.146 -0.4832 -0.2591  0.1758
  833loPI   C2A12312  15.264   2.250   6.546  0.0178  0.1426 -0.0421
  833loPI   C3A12313  15.184   2.530   6.897  0.1071 -0.0211 -0.3676
  833loPI   C4A12314  15.131   2.896   7.183 -0.2691  0.0439  0.1939
  833loPI   C5A12315  15.290   3.266   7.285 -0.0644 -0.4522 -0.1934
  833loPI   C6A12316  15.332   3.652   7.544  0.0510  0.0020 -0.4931
  833loPI   C1B12317  15.492   2.826   6.148  0.0783 -0.3292  0.0730
  833loPI   C2B12318  15.922   2.846   6.306 -0.0969 -0.1864 -0.0149
  833loPI   C3B12319  16.213   2.533   6.367  0.3588 -0.0217 -0.1628
  833loPI   C4B12320  16.255   2.185   6.452  0.0807 -0.1673  0.0865
  834loPI    C112321   8.835   9.407   5.243  0.0653 -0.0696  0.1128
  834loPI    C212322   8.813   9.030   5.113  0.1292 -0.0364  0.0043
  834loPI    C312323   8.874   9.328   4.853  0.3080  0.0259  0.1158
  834loPI   PO412324   8.928   9.357   5.485 -0.1587 -0.0490 -0.0576
  834loPI   GL112325   8.867   9.291   5.892  0.0719  0.2767 -0.0476
  834loPI   GL212326   9.108   9.530   5.906 -0.2158 -0.0376  0.1792
  834loPI   C1A12327   8.812   9.415   6.289  0.0142  0.2094  0.0071
  834loPI   C2A12328   8.512   9.636   6.527 -0.0393  0.1970 -0.0114
  834loPI   C3A12329   8.191   9.336   6.722 -0.0991 -0.1748 -0.1272
  834loPI   C4A12330   8.224   9.281   7.164 -0.1272 -0.1565  0.4959
  834loPI   C5A12331   7.872   9.454   7.311  0.1608  0.0229 -0.2464
  834loPI   C6A12332   7.622   9.586   7.576  0.1434  0.1666  0.0534
  834loPI   C1B12333   9.307   9.629   6.268 -0.2752 -0.1251  0.2260
  834loPI   C2B12334   9.490   9.674   6.712  0.2619 -0.1740  0.0088
  834loPI   C3B12335   9.716   9.454   7.116  0.0234 -0.0024  0.1933
  834loPI   C4B12336   9.717   9.260   7.496 -0.0166  0.1222 -0.1428
  835loPI    C112337   1.096   5.360   4.923  0.1597 -0.1062 -0.0129
  835loPI    C212338   0.888   5.647   4.738 -0.0031 -0.1709  0.0671
  835loPI    C312339   1.272   5.708   4.835  0.0338 -0.0724 -0.1346
  835loPI   PO412340   0.982   5.288   5.079 -0.1653  0.0320 -0.1078
  835loPI   GL112341   0.964   5.310   5.480 -0.3020 -0.1030  0.1281
  835loPI   GL212342   1.016   4.969   5.466 -0.0340 -0.2506 -0.2846
  835loPI   C1A12343   1.287   5.212   5.777 -0.3900 -0.0785  0.1395
  835loPI   C2A12344   1.329   5.239   6.210 -0.0716  0.1904 -0.2152
  835loPI   C3A12345   1.280   5.369   6.575  0.1547  0.1065  0.2156
  835loPI   C4A12346   1.218   5.419   6.958 -0.2800 -0.3434  0.1174
  835loPI   C5A12347   1.215   5.390   7.461  0.3338  0.0792  0.0223
  835loPI   C6A12348   1.089   5.219   7.788  0.2536 -0.0241 -0.2000
  835loPI   C1B12349   0.858   4.910   5.909 -0.0653 -0.1815  0.0707
  835loPI   C2B12350   0.965   4.896   6.277  0.0167 -0.2486 -0.0903
  835loPI   C3B12351   0.986   4.883   6.687  0.1618  0.0074 -0.2916
  835loPI   C4B12352   0.991   4.973   7.129  0.0243 -0.0309 -0.2187
  836loPI    C112353   7.966   3.844   5.021 -0.1457 -0.1336  0.1088
  836loPI    C212354   7.832   3.945   5.384 -0.1366  0.0328  0.0668
  836loPI    C312355   7.892   4.228   5.108 -0.0500 -0.0823 -0.0331
  836loPI   PO412356   8.056   3.570   5.113  0.0453  0.1269 -0.0798
  836loPI   GL112357   7.950   3.269   5.429  0.1593 -0.0010  0.0009
  836loPI   GL212358   7.797   3.215   5.555 -0.2015 -0.0009 -0.1661
  836loPI   C1A12359   8.198   3.491   5.711 -0.0876 -0.3190  0.6346
  836loPI   C2A12360   8.285   3.454   6.119  0.0844 -0.0066 -0.1824
  836loPI   C3A12361   8.221   3.515   6.565 -0.2572 -0.2340 -0.2111
  836loPI   C4A12362   8.227   3.648   6.929 -0.0135 -0.3005  0.0405
  836loPI   C5A12363   8.486   3.763   7.319  0.0714 -0.0673  0.1471
  836loPI   C6A12364   8.336   3.989   7.633 -0.1074 -0.0103  0.1306
  836loPI   C1B12365   7.918   3.188   6.023 -0.2218  0.1220 -0.1469
  836loPI   C2B12366   7.840   3.139   6.465  0.0141 -0.1465 -0.0747
  836loPI   C3B12367   7.816   2.871   6.844 -0.0536 -0.0443 -0.1616
  836loPI   C4B12368   7.812   2.527   7.248  0.1515 -0.3058  0.1198
  837loPI    C112369   8.587   4.479   4.851 -0.0594 -0.0177 -0.0989
  837loPI    C212370   8.457   4.838   4.733 -0.0960 -0.0064 -0.0247
  837loPI    C312371   8.506   4.545   4.465 -0.2255  0.0045 -0.0608
  837loPI   PO412372   8.360   4.424   5.110  0.0663 -0.1703  0.1128
  837loPI   GL112373   8.347   4.621   5.563 -0.0419  0.0615  0.0554
  837loPI   GL212374   8.025   4.516   5.549 -0.4241  0.0136 -0.0936
  837loPI   C1A12375   8.197   4.600   6.050 -0.4460  0.2790  0.0627
  837loPI   C2A12376   8.198   4.859   6.463 -0.1259  0.0324  0.0743
  837loPI   C3A12377   8.004   5.204   6.671 -0.1427  0.2961 -0.0774
  837loPI   C4A12378   7.776   5.217   7.043  0.0755 -0.1022  0.0448
  837loPI   C5A12379   7.519   5.362   7.269 -0.0060 -0.2009 -0.0448
  837loPI   C6A12380   7.065   5.279   7.420  0.3164 -0.1672 -0.1784
  837loPI   C1B12381   7.728   4.324   5.824 -0.0282 -0.0486  0.1727
  837loPI   C2B12382   7.562   4.201   6.058  0.1401 -0.3134  0.0699
  837loPI   C3B12383   7.660   4.008   6.504 -0.2084 -0.0720  0.0729
  837loPI   C4B12384   7.722   4.229   6.920 -0.1366  0.3584  0.0169
  838loPI    C112385  15.060   9.261   5.116  0.1504  0.0190  0.0469
  838loPI    C212386  15.055   9.070   4.764  0.2533  0.0244  0.0424
  838loPI    C312387  14.976   9.462   4.780  0.1134 -0.0036  0.0426
  838loPI   PO412388  14.993   9.052   5.292  0.5863  0.0651  0.2907
  838loPI   GL112389  15.151   8.775   5.662 -0.1932  0.0571 -0.2688
  838loPI   GL212390  15.261   8.965   5.988  0.0168 -0.2673  0.2678
  838loPI   C1A12391  14.867   8.615   6.037  0.4422 -0.0198  0.1319
  838loPI   C2A12392  14.783   8.383   6.410 -0.1663 -0.0508 -0.0810
  838loPI   C3A12393  14.583   8.059   6.743  0.0855  0.5613  0.1106
  838loPI   C4A12394  14.846   7.776   7.122  0.0463  0.1985  0.3420
  838loPI   C5A12395  14.814   7.707   7.486 -0.0656  0.2299 -0.0738
  838loPI   C6A12396  14.954   7.792   7.924  0.1935 -0.0811 -0.0718
  838loPI   C1B12397  14.995   9.286   6.185 -0.2423  0.2612  0.3814
  838loPI   C2B12398  14.866   9.393   6.578  0.1265 -0.0594 -0.1872
  838loPI   C3B12399  14.844   9.687   6.904 -0.2067 -0.0009 -0.3910
  838loPI   C4B12400  14.488  10.018   7.082 -0.2818  0.0623 -0.0674
  839loPI    C112401  18.518   6.853   4.911  0.0833  0.0408  0.0752
  839loPI    C212402  18.528   7.224   4.762 -0.1447  0.0496  0.0779
  839loPI    C312403  18.533   6.909   4.515  0.0773  0.0525  0.0766
  839loPI   PO412404  18.562   6.730   5.142  0.1679  0.0761 -0.1399
  839loPI   GL112405  18.532   6.645   5.538 -0.1677 -0.1440 -0.2173
  839loPI   GL212406  18.431   6.876   5.666 -0.0032 -0.0078 -0.1877
  839loPI   C1A12407  18.691   6.586   5.974 -0.0595 -0.1300 -0.3895
  839loPI   C2A12408  18.713   6.604   6.441 -0.1114 -0.0438 -0.0568
  839loPI   C3A12409  18.691   6.516   6.866  0.2529 -0.1471 -0.3669
  839loPI   C4A12410  18.529   6.256   7.269  0.0581 -0.0711 -0.1099
  839loPI   C5A12411  18.409   6.028   7.689 -0.0154  0.2157  0.0053
  839loPI   C6A12412  18.288   5.816   8.052  0.0487  0.1903 -0.2369
  839loPI   C1B12413  18.571   7.203   5.928  0.3118  0.2485  0.2715
  839loPI   C2B12414  18.841   7.452   6.161  0.1361  0.2819  0.1607
  839loPI   C3B12415  18.950   7.695   6.492 -0.0617  0.0435 -0.2261
  839loPI   C4B12416  19.042   7.516   6.968  0.0306  0.0481  0.2171
  840loPI    C112417  18.419  10.169   5.360  0.0339 -0.0708  0.0504
  840loPI    C212418  18.120  10.050   5.121 -0.0015 -0.2200  0.1672
  840loPI    C312419  18.492  10.083   4.976 -0.1072  0.1629 -0.0308
  840loPI   PO412420  18.274  10.425   5.545 -0.2779  0.1675  0.4305
  840loPI   GL112421  18.168  10.623   5.947 -0.0651 -0.0992 -0.0714
  840loPI   GL212422  18.449  10.526   6.110 -0.2128 -0.1631 -0.0659
  840loPI   C1A12423  18.077  10.727   6.346 -0.1542 -0.2146 -0.0580
  840loPI   C2A12424  18.117  10.789   6.834 -0.0846 -0.1221 -0.0712
  840loPI   C3A12425  18.199  10.871   7.171 -0.1193  0.1170 -0.0810
  840loPI   C4A12426  17.931  10.759   7.543 -0.2150 -0.0337  0.0484
  840loPI   C5A12427  17.863  10.547   7.911  0.1328  0.1235 -0.0816
  840loPI   C6A12428  17.566  10.288   8.121  0.0362 -0.1019 -0.3316
  840loPI   C1B12429  18.475  10.526   6.530  0.1414 -0.0114  0.2395
  840loPI   C2B12430  18.373  10.269   6.741  0.1544 -0.1475  0.0950
  840loPI   C3B12431  18.230  10.278   7.159  0.2570 -0.2073  0.0888
  840loPI   C4B12432  18.102  10.103   7.510 -0.0936  0.0380 -0.1032
  841loPI    C112433  12.938  11.749   5.000  0.1769 -0.0770 -0.1243
  841loPI    C212434  12.651  11.475   4.953  0.0860  0.0237 -0.1603
  841loPI    C312435  13.028  11.388   4.851  0.1080 -0.1819  0.0837
  841loPI   PO412436  12.844  11.822   5.342  0.1783  0.4006  0.0113
  841loPI   GL112437  12.714  11.889   5.746  0.3744  0.1216  0.5123
  841loPI   GL212438  12.470  12.050   5.685  0.0027 -0.2786  0.3183
  841loPI   C1A12439  12.797  11.971   6.138 -0.2330 -0.1790 -0.0083
  841loPI   C2A12440  12.780  11.964   6.632  0.4895 -0.2055 -0.0213
  841loPI   C3A12441  12.707  11.839   7.039 -0.0234 -0.1744  0.0861
  841loPI   C4A12442  12.925  11.840   7.418  0.1156  0.1948  0.1407
  841loPI   C5A12443  13.310  11.798   7.674  0.0341  0.1131  0.0480
  841loPI   C6A12444  13.539  11.640   8.001 -0.0499  0.0474  0.1021
  841loPI   C1B12445  12.321  12.262   5.983 -0.1037 -0.1887  0.0875
  841loPI   C2B12446  12.403  12.174   6.418  0.2159  0.1819 -0.0594
  841loPI   C3B12447  12.364  12.118   6.819 -0.2038  0.1496  0.1078
  841loPI   C4B12448  12.334  12.235   7.270 -0.0322  0.1057 -0.0514
  842loPI    C112449  10.934  13.887   4.891  0.2083 -0.0964  0.0020
  842loPI    C212450  11.240  14.120   4.781  0.2388 -0.1993 -0.1330
  842loPI    C312451  11.107  13.835   4.534 -0.0475 -0.0730 -0.1277
  842loPI   PO412452  10.975  13.828   5.118 -0.3294  0.0764  0.0807
  842loPI   GL112453  10.857  13.541   5.516  0.0001 -0.0145  0.2835
  842loPI   GL212454  11.098  13.450   5.414  0.1996 -0.0229  0.2806
  842loPI   C1A12455  10.578  13.661   5.745 -0.0319  0.1513 -0.3507
  842loPI   C2A12456  10.471  13.652   6.109  0.2560 -0.1139 -0.0081
  842loPI   C3A12457  10.461  13.989   6.375  0.3168  0.2287  0.3002
  842loPI   C4A12458  10.736  14.001   6.727  0.0871  0.0653  0.0781
  842loPI   C5A12459  10.947  14.080   7.123  0.2150  0.1043  0.0165
  842loPI   C6A12460  11.351  14.136   7.180 -0.0351 -0.0610  0.1133
  842loPI   C1B12461  11.197  13.099   5.729 -0.0972 -0.0293 -0.3023
  842loPI   C2B12462  11.330  13.015   6.148 -0.1118 -0.1559  0.0753
  842loPI   C3B12463  11.114  12.845   6.612 -0.0558  0.1632 -0.2807
  842loPI   C4B12464  11.069  12.801   7.053  0.2060 -0.1778  0.1460
  843loPI    C112465  18.551   1.640   4.653  0.1225  0.2358 -0.1202
  843loPI    C212466  18.358   1.522   4.323  0.0709  0.2063 -0.0796
  843loPI    C312467  18.704   1.350   4.424  0.0218  0.1249 -0.0487
  843loPI   PO412468  18.229   1.751   4.780 -0.0847 -0.1052  0.1218
  843loPI   GL112469  18.123   1.841   5.185  0.1931 -0.0415 -0.1147
  843loPI   GL212470  18.169   1.480   5.173 -0.2459 -0.1451 -0.2084
  843loPI   C1A12471  18.152   1.775   5.599 -0.1018  0.1511  0.0931
  843loPI   C2A12472  18.304   1.625   6.020 -0.0566  0.0658  0.3867
  843loPI   C3A12473  18.676   1.699   6.261  0.1032 -0.2353 -0.2404
  843loPI   C4A12474  18.656   1.600   6.747  0.1604 -0.1068  0.3051
  843loPI   C5A12475  18.729   1.448   7.143 -0.0046  0.3641  0.5203
  843loPI   C6A12476  18.654   1.312   7.505  0.1740  0.2795  0.0923
  843loPI   C1B12477  17.788   1.483   5.424 -0.1132 -0.1201  0.0508
  843loPI   C2B12478  17.434   1.648   5.723  0.1378  0.4404 -0.1454
  843loPI   C3B12479  17.359   1.928   6.116 -0.1292  0.2765 -0.2492
  843loPI   C4B12480  17.315   2.182   6.435  0.0121 -0.0601  0.0557
  844loPI    C112481  18.204  13.103   5.559 -0.0113 -0.2246 -0.0221
  844loPI    C212482  17.957  13.098   5.245  0.0595 -0.0031 -0.0828
  844loPI    C312483  18.347  13.170   5.192  0.0637  0.0833  0.0600
  844loPI   PO412484  17.952  13.089   5.735  0.0878  0.2387  0.0899
  844loPI   GL112485  17.907  13.316   6.126 -0.1138 -0.2962  0.2273
  844loPI   GL212486  17.598  13.275   6.041 -0.0305  0.1061 -0.0395
  844loPI   C1A12487  18.267  13.272   6.418 -0.0946  0.2850 -0.0004
  844loPI   C2A12488  18.140  13.230   6.903  0.1666  0.0671 -0.1253
  844loPI   C3A12489  17.902  13.036   7.314 -0.0863  0.1055  0.0075
  844loPI   C4A12490  17.608  13.133   7.641  0.1646 -0.4420  0.0080
  844loPI   C5A12491  17.243  12.999   7.899 -0.1262  0.3783  0.0144
  844loPI   C6A12492  17.112  12.603   7.795 -0.0274  0.0348  0.0024
  844loPI   C1B12493  17.449  13.488   6.348 -0.4189 -0.3083 -0.2304
  844loPI   C2B12494  17.446  13.632   6.735 -0.1888  0.2301 -0.0508
  844loPI   C3B12495  17.321  13.482   7.224  0.1143  0.0629 -0.0041
  844loPI   C4B12496  17.571  13.668   7.619 -0.0690 -0.0918  0.4798
  845loPI    C112497   6.516  12.428   4.990 -0.2578  0.0271  0.1760
  845loPI    C212498   6.464  12.820   4.931  0.3078  0.0526 -0.2382
  845loPI    C312499   6.410  12.564   4.629  0.1885 -0.1666 -0.0346
  845loPI   PO412500   6.527  12.330   5.239 -0.1219 -0.1260 -0.2697
  845loPI   GL112501   6.551  12.354   5.641 -0.0254  0.1018 -0.3617
  845loPI   GL212502   6.362  12.097   5.772 -0.2519  0.1591 -0.0265
  845loPI   C1A12503   6.739  12.324   6.107  0.0052 -0.1214  0.1083
  845loPI   C2A12504   6.765  12.494   6.501 -0.0354 -0.3903 -0.1027
  845loPI   C3A12505   6.708  12.552   6.954 -0.0400 -0.0157  0.1136
  845loPI   C4A12506   6.739  12.319   7.396  0.1256  0.0438  0.0001
  845loPI   C5A12507   6.930  12.100   7.571 -0.0163  0.2240  0.0817
  845loPI   C6A12508   7.302  11.804   7.412 -0.2205 -0.0935 -0.0464
  845loPI   C1B12509   6.304  12.131   6.213  0.1315 -0.0722  0.0404
  845loPI   C2B12510   6.150  12.008   6.625 -0.1630 -0.0664  0.0547
  845loPI   C3B12511   6.299  11.778   7.009  0.1945  0.0432 -0.0906
  845loPI   C4B12512   6.442  11.911   7.349 -0.0716 -0.3517  0.2318
  846loPI    C112513   2.561   9.773   5.276 -0.0181 -0.3223 -0.1633
  846loPI    C212514   2.946   9.875   5.235 -0.0799  0.0282  0.0835
  846loPI    C312515   2.753   9.697   4.933  0.2488 -0.0678 -0.0749
  846loPI   PO412516   2.394   9.977   5.449  0.0181  0.0809 -0.2200
  846loPI   GL112517   2.406  10.274   5.754  0.0477 -0.0333 -0.1134
  846loPI   GL212518   2.119  10.213   6.080  0.3708  0.1105 -0.1768
  846loPI   C1A12519   2.652  10.278   6.069 -0.0681  0.0032 -0.1018
  846loPI   C2A12520   2.705  10.448   6.391  0.1367 -0.3921  0.0281
  846loPI   C3A12521   3.092  10.800   6.607  0.2224  0.1159  0.1975
  846loPI   C4A12522   3.218  11.083   6.913  0.0566 -0.2271  0.2082
  846loPI   C5A12523   3.523  11.184   7.224 -0.2377  0.0709 -0.0187
  846loPI   C6A12524   3.693  11.433   7.611  0.1316  0.2567  0.1239
  846loPI   C1B12525   2.263  10.215   6.434  0.1023  0.1939 -0.0684
  846loPI   C2B12526   2.327  10.356   6.780 -0.5775 -0.1566 -0.1789
  846loPI   C3B12527   2.603  10.555   7.064  0.1157  0.1146  0.2365
  846loPI   C4B12528   3.048  10.599   7.139 -0.0136 -0.0865 -0.0544
  847loPI    C112529  13.851  12.268   4.940 -0.1925  0.1513 -0.1906
  847loPI    C212530  14.168  12.508   4.896 -0.1530  0.1084 -0.1422
  847loPI    C312531  14.059  12.263   4.598  0.0179 -0.0664 -0.0633
  847loPI   PO412532  13.850  12.139   5.166 -0.4463 -0.1435  0.0084
  847loPI   GL112533  13.866  12.268   5.637  0.0271  0.1017 -0.2408
  847loPI   GL212534  13.642  12.447   5.777 -0.1306  0.1783  0.0607
  847loPI   C1A12535  14.098  12.228   6.013 -0.0448  0.3373  0.0762
  847loPI   C2A12536  14.040  12.142   6.512  0.1560  0.0333 -0.1235
  847loPI   C3A12537  14.018  11.833   6.832 -0.0850  0.1230  0.1890
  847loPI   C4A12538  14.145  11.901   7.229 -0.1807  0.3130  0.0188
  847loPI   C5A12539  14.290  11.731   7.710 -0.0673 -0.0361  0.2815
  847loPI   C6A12540  14.248  11.565   8.073  0.3312  0.4409  0.2551
  847loPI   C1B12541  13.665  12.488   6.236  0.2656  0.0747 -0.1100
  847loPI   C2B12542  13.581  12.482   6.714 -0.0052  0.0957 -0.1862
  847loPI   C3B12543  13.553  12.470   7.164 -0.5687  0.1397  0.4346
  847loPI   C4B12544  13.706  12.545   7.639  0.3099 -0.0101  0.0713
  848loPI    C112545  12.864  13.995   5.065  0.0511  0.2008 -0.0330
  848loPI    C212546  12.648  14.204   5.329  0.1385  0.0381  0.1704
  848loPI    C312547  12.482  13.899   5.130  0.0485  0.2142 -0.0282
  848loPI   PO412548  13.084  13.900   5.202 -0.2921 -0.3140  0.2430
  848loPI   GL112549  12.913  13.802   5.618  0.1322 -0.1202  0.1803
  848loPI   GL212550  12.757  13.548   5.421  0.1551 -0.3463  0.2796
  848loPI   C1A12551  13.003  13.896   5.942 -0.0532  0.1181  0.1568
  848loPI   C2A12552  12.902  13.865   6.365 -0.0587 -0.2332  0.1625
  848loPI   C3A12553  12.912  13.829   6.868 -0.0637 -0.3357 -0.0664
  848loPI   C4A12554  12.850  13.900   7.294  0.4115  0.0459 -0.3455
  848loPI   C5A12555  12.793  14.000   7.689  0.0814  0.0170  0.2148
  848loPI   C6A12556  12.844  14.340   7.968  0.2426 -0.0011 -0.0658
  848loPI   C1B12557  12.569  13.609   5.892  0.3767 -0.2065 -0.1894
  848loPI   C2B12558  12.574  13.533   6.277  0.2668  0.0860 -0.3550
  848loPI   C3B12559  12.539  13.402   6.697 -0.0884  0.1966 -0.1232
  848loPI   C4B12560  12.591  13.433   7.068 -0.0853  0.4901 -0.1057
  849loPI    C112561   6.384  16.165   5.260 -0.2789 -0.1050  0.0491
  849loPI    C212562   6.492  15.930   4.955 -0.1790  0.0301 -0.0205
  849loPI    C312563   6.121  16.078   4.971 -0.2166 -0.0640 -0.0203
  849loPI   PO412564   6.411  16.056   5.468  0.2529  0.0953 -0.1072
  849loPI   GL112565   6.444  15.791   5.853  0.1115 -0.0456 -0.0740
  849loPI   GL212566   6.604  15.958   6.075 -0.0450 -0.1474 -0.0779
  849loPI   C1A12567   6.075  16.091   6.092 -0.1184  0.1698 -0.1488
  849loPI   C2A12568   5.930  16.583   6.297 -0.0547 -0.0947 -0.1806
  849loPI   C3A12569   6.059  17.014   6.624  0.0016 -0.0855 -0.1053
  849loPI   C4A12570   6.058  17.413   6.904  0.0908 -0.0145  0.2092
  849loPI   C5A12571   5.844  17.429   7.394  0.1299 -0.3513  0.0776
  849loPI   C6A12572   5.582  17.516   7.787  0.1303  0.1623  0.1600
  849loPI   C1B12573   6.575  16.096   6.483 -0.2399 -0.2314 -0.1614
  849loPI   C2B12574   6.422  16.132   6.851  0.0318  0.1480 -0.1906
  849loPI   C3B12575   6.306  16.163   7.299  0.2428  0.0819 -0.0682
  849loPI   C4B12576   6.184  16.087   7.680  0.2152 -0.1376  0.2185
  850loPI    C112577   2.277  17.937   5.137  0.0102  0.4103  0.1191
  850loPI    C212578   2.241  18.064   4.759  0.1338  0.1489  0.0163
  850loPI    C312579   2.595  18.086   4.944  0.1870 -0.1533 -0.0451
  850loPI   PO412580   2.227  17.694   5.125  0.0473  0.3985  0.0152
  850loPI   GL112581   2.160  17.559   5.458 -0.1710  0.4566  0.1060
  850loPI   GL212582   2.387  17.360   5.519  0.1563  0.3145  0.1475
  850loPI   C1A12583   2.053  17.748   5.871 -0.1741  0.2158 -0.0926
  850loPI   C2A12584   1.981  17.867   6.231  0.0964 -0.0086 -0.1098
  850loPI   C3A12585   1.782  17.813   6.584  0.1667  0.0669 -0.0433
  850loPI   C4A12586   1.341  17.765   6.885  0.2090  0.4566 -0.2102
  850loPI   C5A12587   0.943  17.885   7.154 -0.0782 -0.0394 -0.1937
  850loPI   C6A12588   0.667  17.797   7.476 -0.1942 -0.0396  0.0329
  850loPI   C1B12589   2.330  17.339   5.904  0.0981  0.0716  0.0345
  850loPI   C2B12590   2.580  17.312   6.256  0.2049 -0.0578 -0.3279
  850loPI   C3B12591   2.770  17.171   6.645 -0.1063 -0.1421 -0.2510
  850loPI   C4B12592   2.458  17.021   6.767 -0.1225  0.0447  0.0137
  851loPI    C112593   3.396   1.286   5.465 -0.0473 -0.0427 -0.1532
  851loPI    C212594   3.697   1.079   5.629  0.1951  0.2366 -0.2377
  851loPI    C312595   3.459   0.906   5.358  0.0625 -0.0928  0.0818
  851loPI   PO412596   3.325   1.402   5.700 -0.1574  0.1944  0.0442
  851loPI   GL112597   3.378   1.478   6.086  0.0662 -0.1960 -0.2423
  851loPI   GL212598   3.555   1.144   6.087  0.1296  0.2515  0.2540
  851loPI   C1A12599   3.387   1.537   6.480 -0.1337  0.1136  0.2854
  851loPI   C2A12600   3.408   1.385   6.777  0.1351 -0.0529  0.0447
  851loPI   C3A12601   3.437   1.425   7.114  0.0812  0.1198  0.0658
  851loPI   C4A12602   3.160   1.414   7.370  0.0849 -0.2748 -0.1790
  851loPI   C5A12603   3.330   1.133   7.793  0.1043  0.1517 -0.0204
  851loPI   C6A12604   3.506   1.205   8.089 -0.2272  0.0913 -0.2196
  851loPI   C1B12605   3.815   1.187   6.545  0.1720 -0.1684 -0.0691
  851loPI   C2B12606   3.892   1.297   6.951 -0.1865 -0.1205 -0.0672
  851loPI   C3B12607   3.984   1.460   7.297  0.4101 -0.2776 -0.0928
  851loPI   C4B12608   3.611   1.513   7.615 -0.1886 -0.0297  0.1937
  852loPI    C112609  10.055   6.382   5.193  0.3887  0.2216 -0.0574
  852loPI    C212610   9.798   6.666   5.309  0.1983  0.0072  0.0549
  852loPI    C312611  10.185   6.694   5.407  0.1506  0.1420  0.2094
  852loPI   PO412612   9.860   6.161   5.213 -0.0410  0.0164 -0.0687
  852loPI   GL112613   9.750   5.874   5.570 -0.2394 -0.1960  0.0212
  852loPI   GL212614  10.019   5.695   5.628 -0.2046 -0.1936 -0.1252
  852loPI   C1A12615   9.615   5.748   6.012 -0.1838 -0.0498  0.1111
  852loPI   C2A12616   9.381   5.701   6.417 -0.1631 -0.0680 -0.1085
  852loPI   C3A12617   9.128   5.842   6.785 -0.0784  0.1647  0.0522
  852loPI   C4A12618   9.239   5.801   7.244 -0.3258  0.3411 -0.0578
  852loPI   C5A12619   9.289   5.602   7.619 -0.0732  0.1610  0.2757
  852loPI   C6A12620   9.266   5.578   8.130  0.1285 -0.0481  0.0555
  852loPI   C1B12621  10.051   5.671   6.095 -0.2677  0.0787  0.2576
  852loPI   C2B12622  10.219   5.566   6.409 -0.2716  0.0194 -0.0407
  852loPI   C3B12623  10.268   5.365   6.743 -0.0252 -0.0789  0.1914
  852loPI   C4B12624  10.022   5.314   7.065 -0.1067  0.3017 -0.2666
  853loPI    C112625  16.701   8.437   5.322 -0.0265 -0.4863 -0.0379
  853loPI    C212626  16.467   8.615   5.593  0.0022 -0.2764 -0.1484
  853loPI    C312627  16.308   8.471   5.256  0.0401 -0.0674 -0.2573
  853loPI   PO412628  16.869   8.280   5.518 -0.0007  0.1224  0.2699
  853loPI   GL112629  17.059   8.338   5.851  0.1607 -0.2414 -0.2150
  853loPI   GL212630  16.914   8.537   6.109 -0.0909  0.0232  0.0387
  853loPI   C1A12631  17.452   8.098   5.981 -0.0794 -0.0376  0.1068
  853loPI   C2A12632  17.844   7.962   6.194  0.1788 -0.1513  0.1479
  853loPI   C3A12633  18.081   7.927   6.589 -0.0620 -0.0566 -0.0425
  853loPI   C4A12634  18.091   8.048   7.057 -0.0248 -0.3159  0.0762
  853loPI   C5A12635  18.394   7.891   7.383 -0.0587  0.2454  0.2558
  853loPI   C6A12636  18.451   7.797   7.808 -0.1732  0.3315 -0.0034
  853loPI   C1B12637  17.001   8.186   6.453  0.1715 -0.0492 -0.0517
  853loPI   C2B12638  17.069   7.975   6.915  0.3529  0.1466  0.0392
  853loPI   C3B12639  17.267   7.600   7.227 -0.0716  0.1899  0.1669
  853loPI   C4B12640  17.242   7.603   7.648  0.0139  0.1119  0.0402
  854loPI    C112641   0.883   4.574   4.880 -0.0771  0.2891 -0.0291
  854loPI    C212642   1.117   4.786   4.634  0.2649  0.1063  0.1313
  854loPI    C312643   1.165   4.390   4.663 -0.1058  0.0573  0.1267
  854loPI   PO412644   0.927   4.558   5.199  0.3352 -0.2721  0.1677
  854loPI   GL112645   1.190   4.335   5.532  0.0329 -0.2162  0.0787
  854loPI   GL212646   1.233   4.104   5.811  0.0138 -0.3044  0.1831
  854loPI   C1A12647   1.256   4.675   5.839  0.0008 -0.2563  0.2122
  854loPI   C2A12648   1.474   4.778   6.223 -0.1082  0.4006 -0.2550
  854loPI   C3A12649   1.518   4.958   6.647 -0.0937 -0.1330  0.4991
  854loPI   C4A12650   1.575   5.006   7.163 -0.0616 -0.1108 -0.0453
  854loPI   C5A12651   1.631   4.987   7.559  0.0779 -0.0818 -0.1154
  854loPI   C6A12652   1.804   4.731   7.860  0.0615 -0.2826 -0.0476
  854loPI   C1B12653   1.286   3.804   6.128  0.1590  0.1658 -0.4632
  854loPI   C2B12654   1.169   4.009   6.536  0.1296  0.0429  0.2751
  854loPI   C3B12655   1.042   4.175   6.893 -0.0945  0.0167  0.0521
  854loPI   C4B12656   0.962   4.320   7.332  0.0319  0.1109 -0.2852
  855loPI    C112657  10.159  14.842   5.245 -0.0964  0.3859 -0.1736
  855loPI    C212658  10.539  14.830   5.121 -0.0043  0.2168  0.1158
  855loPI    C312659  10.296  14.519   5.053 -0.0194  0.2203  0.1532
  855loPI   PO412660  10.147  14.920   5.557  0.2418 -0.0783 -0.2671
  855loPI   GL112661   9.949  14.850   6.010 -0.2040 -0.1780  0.0739
  855loPI   GL212662   9.876  14.608   6.005  0.0003 -0.3507  0.1234
  855loPI   C1A12663   9.677  14.701   6.429 -0.0079  0.1641  0.1347
  855loPI   C2A12664   9.554  14.756   6.782 -0.1626 -0.0615  0.0123
  855loPI   C3A12665   9.421  14.481   7.160 -0.0552  0.1328  0.1365
  855loPI   C4A12666   9.092  14.441   7.477  0.2553 -0.3139  0.2188
  855loPI   C5A12667   9.055  14.069   7.746  0.2132  0.0670  0.1485
  855loPI   C6A12668   8.914  13.685   7.825  0.2457 -0.1153  0.1215
  855loPI   C1B12669  10.147  14.472   6.192 -0.0476 -0.4279 -0.1183
  855loPI   C2B12670  10.371  14.449   6.675 -0.2247  0.3608  0.0952
  855loPI   C3B12671  10.389  14.311   7.019 -0.1016 -0.0788  0.1676
  855loPI   C4B12672  10.538  14.073   7.357 -0.0315  0.2397  0.2129
  856loPI    C112673  16.046   0.067   4.840 -0.0231 -0.1996  0.0528
  856loPI    C212674  15.783   0.365   4.886  0.1850 -0.0088  0.0251
  856loPI    C312675  15.834   0.197   4.527 -0.1056 -0.2443  0.0899
  856loPI   PO412676  16.006   0.025   5.156 -0.4354  0.1245 -0.0536
  856loPI   GL112677  15.734  -0.269   5.441 -0.3361 -0.0576 -0.1135
  856loPI   GL212678  15.569  -0.514   5.533 -0.2112  0.1944 -0.4535
  856loPI   C1A12679  16.039  -0.526   5.676  0.1054  0.0601  0.1921
  856loPI   C2A12680  16.336  -0.552   6.064  0.0151 -0.0897  0.1124
  856loPI   C3A12681  16.546  -0.820   6.314  0.0604  0.0157 -0.1757
  856loPI   C4A12682  16.568  -0.897   6.882 -0.0229 -0.2635  0.0766
  856loPI   C5A12683  16.560  -0.821   7.359  0.0050 -0.1316  0.1115
  856loPI   C6A12684  16.631  -0.542   7.679 -0.0377  0.1616  0.1568
  856loPI   C1B12685  15.400  -0.596   5.983  0.0303 -0.0597  0.1880
  856loPI   C2B12686  15.427  -0.815   6.348 -0.1405  0.2131  0.0194
  856loPI   C3B12687  15.284  -0.907   6.862 -0.0625  0.0902 -0.3394
  856loPI   C4B12688  15.401  -0.550   7.207  0.0931 -0.2765  0.1334
  857loPI    C112689  10.857   0.194   5.410  0.0478  0.1057 -0.1918
  857loPI    C212690  11.140   0.282   5.142  0.0723  0.2498 -0.1201
  857loPI    C312691  10.754   0.335   5.051  0.0589 -0.0747 -0.2667
  857loPI   PO412692  10.886   0.346   5.592 -0.2226  0.0942  0.4155
  857loPI   GL112693  11.213   0.387   5.827 -0.0778  0.0182 -0.0576
  857loPI   GL212694  11.244   0.048   5.946 -0.0959  0.0502 -0.2895
  857loPI   C1A12695  10.939   0.554   6.151  0.3138 -0.0158 -0.1847
  857loPI   C2A12696  10.509   0.503   6.315  0.0386 -0.2133 -0.1521
  857loPI   C3A12697  10.527   0.437   6.752  0.1051  0.0350 -0.1500
  857loPI   C4A12698  10.662   0.306   7.132  0.2101 -0.2689 -0.1077
  857loPI   C5A12699  10.910   0.515   7.410  0.0206  0.1364  0.1584
  857loPI   C6A12700  11.399   0.624   7.489 -0.0118  0.1524 -0.0242
  857loPI   C1B12701  11.316  -0.075   6.384 -0.1178  0.1709 -0.2875
  857loPI   C2B12702  11.237  -0.266   6.755 -0.0044  0.1136 -0.0117
  857loPI   C3B12703  11.130  -0.019   7.014  0.3501 -0.0346 -0.1209
  857loPI   C4B12704  10.940   0.005   7.430 -0.0024 -0.0235 -0.5721
  858loPI    C112705  15.272   6.346   5.360 -0.2367  0.1030  0.1047
  858loPI    C212706  15.198   6.730   5.444  0.1813  0.1995  0.0542
  858loPI    C312707  15.301   6.624   5.073 -0.0335  0.0207  0.0439
  858loPI   PO412708  15.084   6.221   5.509 -0.2762 -0.0220 -0.1629
  858loPI   GL112709  14.893   6.274   5.856 -0.1235  0.1788  0.2289
  858loPI   GL212710  15.129   5.992   5.992  0.3675  0.1287 -0.2437
  858loPI   C1A12711  14.765   6.208   6.249  0.1585  0.0207 -0.2330
  858loPI   C2A12712  14.653   6.112   6.602 -0.0733  0.2295 -0.2654
  858loPI   C3A12713  14.739   6.024   6.932  0.0017  0.1724  0.0423
  858loPI   C4A12714  14.511   5.918   7.319 -0.1978  0.0325 -0.2243
  858loPI   C5A12715  14.569   6.018   7.690  0.1557  0.2133  0.1351
  858loPI   C6A12716  14.380   6.361   7.845  0.1569  0.0222 -0.0180
  858loPI   C1B12717  15.272   6.224   6.315 -0.0436  0.2688 -0.2187
  858loPI   C2B12718  15.522   6.392   6.715 -0.2128 -0.2080  0.1390
  858loPI   C3B12719  15.602   6.691   6.981  0.1697  0.0294 -0.0647
  858loPI   C4B12720  15.299   6.930   7.226 -0.0057  0.0682  0.0361
  859loPI    C112721   0.494  11.868   5.126  0.0259  0.0810 -0.1810
  859loPI    C212722   0.859  11.718   5.065 -0.1167 -0.2396 -0.2693
  859loPI    C312723   0.727  12.021   4.840  0.1751  0.0285 -0.0889
  859loPI   PO412724   0.427  11.721   5.274  0.0194 -0.1750 -0.3713
  859loPI   GL112725   0.396  11.619   5.752  0.0664 -0.0751  0.0330
  859loPI   GL212726   0.103  11.584   6.022 -0.1825  0.1963 -0.3245
  859loPI   C1A12727   0.625  11.595   6.118 -0.0471 -0.0768 -0.3729
  859loPI   C2A12728   0.852  11.699   6.449 -0.0466 -0.1331 -0.0495
  859loPI   C3A12729   0.923  11.524   6.806  0.2922  0.0628  0.4036
  859loPI   C4A12730   0.897  11.464   7.207  0.0815  0.2760 -0.0062
  859loPI   C5A12731   0.590  11.262   7.486  0.1948 -0.0332 -0.1153
  859loPI   C6A12732   0.498  11.364   7.914 -0.1198  0.0597 -0.0846
  859loPI   C1B12733   0.203  11.511   6.427  0.1688  0.2717 -0.1500
  859loPI   C2B12734   0.417  11.586   6.804  0.1456  0.1254 -0.1403
  859loPI   C3B12735   0.497  11.721   7.181 -0.1264  0.2556  0.2188
  859loPI   C4B12736   0.610  11.754   7.553 -0.1008 -0.1791  0.2349
  860loPI    C112737   7.419  12.463   4.961 -0.1089 -0.1392 -0.0658
  860loPI    C212738   7.033  12.552   4.901 -0.0866 -0.0921 -0.1412
  860loPI    C312739   7.276  12.492   4.589  0.0187  0.1019 -0.0980
  860loPI   PO412740   7.569  12.467   5.147  0.0202 -0.0354 -0.0299
  860loPI   GL112741   7.604  12.486   5.560  0.1725  0.0596  0.0611
  860loPI   GL212742   7.799  12.522   5.792 -0.0321  0.0325 -0.0769
  860loPI   C1A12743   7.287  12.367   5.896 -0.3961 -0.0053 -0.0969
  860loPI   C2A12744   7.212  12.247   6.311 -0.0120 -0.2506 -0.1902
  860loPI   C3A12745   7.133  12.291   6.774 -0.2624  0.0453 -0.2318
  860loPI   C4A12746   7.265  12.244   7.150 -0.0806  0.2048  0.1974
  860loPI   C5A12747   7.356  12.450   7.440 -0.2026 -0.1961 -0.1661
  860loPI   C6A12748   7.717  12.489   7.710  0.2234 -0.0287  0.1305
  860loPI   C1B12749   7.860  12.433   6.208 -0.0264  0.2357 -0.0687
  860loPI   C2B12750   7.625  12.393   6.627  0.1623  0.1071 -0.0958
  860loPI   C3B12751   7.745  12.284   6.967  0.0275 -0.2860  0.0871
  860loPI   C4B12752   7.653  12.105   7.391  0.1176 -0.2817 -0.0629
  861loPI    C112753  17.662   8.313   5.395  0.0825 -0.1769  0.1169
  861loPI    C212754  17.531   8.012   5.167  0.0434  0.1276 -0.2726
  861loPI    C312755  17.357   8.085   5.519 -0.1082 -0.1506 -0.2866
  861loPI   PO412756  17.951   8.313   5.333  0.1637  0.3420 -0.2699
  861loPI   GL112757  18.154   8.285   5.720 -0.0564 -0.0212  0.2322
  861loPI   GL212758  17.920   8.291   5.829 -0.0658 -0.0537  0.1409
  861loPI   C1A12759  18.225   7.860   5.853  0.2049 -0.0746  0.0979
  861loPI   C2A12760  18.483   7.799   6.206  0.1226  0.3060  0.2215
  861loPI   C3A12761  18.595   7.922   6.659  0.1170  0.0945 -0.0607
  861loPI   C4A12762  18.764   7.976   7.087  0.3211 -0.0483  0.3089
  861loPI   C5A12763  18.875   7.901   7.497 -0.2010 -0.1297 -0.1137
  861loPI   C6A12764  19.222   8.004   7.839 -0.1450  0.1084 -0.1342
  861loPI   C1B12765  17.882   8.442   6.184 -0.2275  0.1790  0.0311
  861loPI   C2B12766  17.879   8.430   6.567  0.1525 -0.0809  0.1860
  861loPI   C3B12767  17.766   8.493   6.980  0.2743 -0.0478  0.0511
  861loPI   C4B12768  17.762   8.387   7.408  0.1286  0.3597 -0.1208
  862loPI    C112769   1.188  14.753   5.401 -0.1713  0.0133 -0.0794
  862loPI    C212770   1.183  15.097   5.196  0.2947  0.0231 -0.0861
  862loPI    C312771   1.005  14.772   5.046 -0.0709  0.2338 -0.1216
  862loPI   PO412772   1.399  14.739   5.498 -0.2532  0.2171 -0.0827
  862loPI   GL112773   1.692  14.661   5.837  0.2232 -0.0581 -0.2180
  862loPI   GL212774   1.705  14.997   5.816  0.3141  0.2814  0.0598
  862loPI   C1A12775   1.954  14.647   6.170 -0.2283  0.1039  0.1910
  862loPI   C2A12776   1.881  14.615   6.608 -0.1288 -0.0296  0.0316
  862loPI   C3A12777   1.887  14.725   7.038 -0.2753  0.0531  0.0500
  862loPI   C4A12778   1.899  14.989   7.465  0.0473 -0.1231 -0.0477
  862loPI   C5A12779   1.683  15.113   7.799  0.2762 -0.1466 -0.2984
  862loPI   C6A12780   1.548  15.312   8.140  0.0262 -0.0905  0.2265
  862loPI   C1B12781   1.565  14.931   6.321 -0.1360 -0.1654 -0.0003
  862loPI   C2B12782   1.407  14.906   6.735  0.1930  0.2708  0.1795
  862loPI   C3B12783   1.457  15.058   7.204 -0.4060  0.0407 -0.1895
  862loPI   C4B12784   1.558  15.417   7.399  0.1710  0.0853 -0.0705
  863loPI    C112785   6.780  17.617   5.555 -0.0959 -0.1031 -0.0803
  863loPI    C212786   6.842  17.901   5.280  0.0397  0.0288  0.0847
  863loPI    C312787   6.706  17.542   5.169  0.1036  0.0774 -0.1558
  863loPI   PO412788   6.913  17.695   5.787 -0.0727 -0.3103  0.0895
  863loPI   GL112789   7.154  17.877   6.061  0.0331 -0.2549  0.1099
  863loPI   GL212790   7.493  17.757   6.163  0.4331 -0.0404  0.1205
  863loPI   C1A12791   6.910  17.912   6.401 -0.1323 -0.3318 -0.2966
  863loPI   C2A12792   7.062  17.911   6.821  0.3501 -0.4057  0.2472
  863loPI   C3A12793   6.976  18.079   7.181  0.1541 -0.0279 -0.0442
  863loPI   C4A12794   7.027  18.281   7.579 -0.1054 -0.3098 -0.0755
  863loPI   C5A12795   7.021  18.668   7.839  0.0051  0.3453 -0.0135
  863loPI   C6A12796   6.788  19.053   8.117  0.0364 -0.2095  0.2189
  863loPI   C1B12797   7.443  17.793   6.559  0.0014 -0.0610  0.2864
  863loPI   C2B12798   7.516  17.719   6.905  0.2813 -0.1847 -0.2584
  863loPI   C3B12799   7.596  17.865   7.329 -0.1044 -0.4090  0.0296
  863loPI   C4B12800   7.344  17.812   7.622  0.1274 -0.0455 -0.2610
  864loPI    C112801  11.186   8.273   4.923 -0.1705 -0.0154  0.0677
  864loPI    C212802  11.258   7.885   4.858 -0.0913  0.0603 -0.3247
  864loPI    C312803  11.548   8.154   4.802 -0.1601  0.1838 -0.1028
  864loPI   PO412804  11.007   8.234   5.184  0.2395 -0.1619  0.1152
  864loPI   GL112805  10.675   8.025   5.422 -0.1949 -0.0366  0.0310
  864loPI   GL212806  10.482   8.160   5.455 -0.0714 -0.1501 -0.0954
  864loPI   C1A12807  10.887   7.915   5.843  0.1751 -0.0265  0.1390
  864loPI   C2A12808  10.821   7.781   6.302 -0.0363 -0.1216 -0.0324
  864loPI   C3A12809  10.934   7.735   6.811  0.1238 -0.0622 -0.1433
  864loPI   C4A12810  11.171   7.736   7.211  0.1766 -0.0498 -0.0785
  864loPI   C5A12811  11.190   7.992   7.588  0.1388 -0.6849 -0.0067
  864loPI   C6A12812  11.119   8.453   7.548 -0.0652  0.1711  0.1902
  864loPI   C1B12813  10.450   8.146   5.914 -0.1124  0.0211  0.0390
  864loPI   C2B12814  10.318   8.024   6.323  0.1111 -0.2494  0.2098
  864loPI   C3B12815  10.305   8.232   6.677  0.2144  0.0509 -0.1222
  864loPI   C4B12816  10.144   8.538   6.890  0.3226  0.0506 -0.1353
  865loPI    C112817  15.378   2.901   5.143  0.0407  0.0234  0.0186
  865loPI    C212818  15.708   3.051   4.974  0.0381  0.0967  0.0780
  865loPI    C312819  15.363   3.046   4.771  0.0698  0.0434  0.0252
  865loPI   PO412820  15.318   3.008   5.370 -0.1139  0.0991 -0.0283
  865loPI   GL112821  15.558   3.008   5.643 -0.1476  0.0353  0.0145
  865loPI   GL212822  15.644   3.383   5.630  0.0162 -0.0859  0.0587
  865loPI   C1A12823  15.910   2.718   5.831 -0.0794  0.5688  0.0819
  865loPI   C2A12824  16.365   2.637   5.904 -0.0879 -0.0595 -0.1153
  865loPI   C3A12825  16.627   2.622   6.186  0.1352 -0.4489  0.3084
  865loPI   C4A12826  16.873   2.796   6.546  0.1059  0.2796 -0.1550
  865loPI   C5A12827  17.112   2.918   6.963 -0.2222  0.1399  0.0019
  865loPI   C6A12828  17.241   3.110   7.313 -0.0230 -0.1121 -0.3794
  865loPI   C1B12829  15.689   3.384   6.013  0.0897  0.0634  0.1987
  865loPI   C2B12830  15.682   3.281   6.450  0.1517  0.1873 -0.2235
  865loPI   C3B12831  15.510   3.503   6.783  0.0695  0.2333 -0.0945
  865loPI   C4B12832  15.200   3.731   6.926  0.0502  0.1111 -0.3248
  866loPI    C112833   6.068   2.132   5.568 -0.1562 -0.1601  0.0631
  866loPI    C212834   6.199   1.975   5.224  0.1346  0.1427  0.0313
  866loPI    C312835   6.022   2.333   5.225 -0.0628  0.0461  0.1700
  866loPI   PO412836   6.227   2.097   5.732 -0.1180  0.1133  0.0511
  866loPI   GL112837   6.316   2.093   6.102  0.0655  0.0627 -0.3077
  866loPI   GL212838   6.511   1.847   6.114 -0.3508 -0.1780 -0.1572
  866loPI   C1A12839   6.500   2.083   6.609 -0.1290 -0.2646 -0.4145
  866loPI   C2A12840   6.591   2.006   7.055  0.1381  0.1852  0.0799
  866loPI   C3A12841   6.570   1.769   7.371 -0.1687  0.0161  0.1994
  866loPI   C4A12842   6.717   1.798   7.790 -0.0511 -0.1995 -0.2894
  866loPI   C5A12843   7.032   2.054   7.983  0.0322  0.0873 -0.1368
  866loPI   C6A12844   7.379   2.336   7.973 -0.2087 -0.2294  0.0813
  866loPI   C1B12845   6.912   1.634   6.279  0.1365  0.1420  0.0717
  866loPI   C2B12846   7.087   1.486   6.677  0.0097  0.0955  0.0440
  866loPI   C3B12847   7.051   1.604   7.070  0.2166 -0.2530 -0.0117
  866loPI   C4B12848   7.163   1.519   7.503  0.0382 -0.3642 -0.0956
  867loPI    C112849  12.301   0.849   5.181  0.0610  0.1169 -0.2281
  867loPI    C212850  12.419   0.776   4.806 -0.3236 -0.1914 -0.2961
  867loPI    C312851  12.044   0.893   4.878 -0.1795  0.1226 -0.0263
  867loPI   PO412852  12.493   1.040   5.308  0.0051  0.0292 -0.1089
  867loPI   GL112853  12.604   1.057   5.707  0.1571  0.1795  0.1355
  867loPI   GL212854  12.384   0.766   5.726  0.1486  0.4930 -0.0533
  867loPI   C1A12855  12.425   1.271   6.087 -0.0331  0.0921  0.1404
  867loPI   C2A12856  12.303   1.197   6.437 -0.2572 -0.2153  0.0655
  867loPI   C3A12857  12.129   1.390   6.839  0.0999  0.0880 -0.2486
  867loPI   C4A12858  12.001   1.556   7.243  0.0131  0.0776 -0.1071
  867loPI   C5A12859  11.685   1.747   7.627  0.1559  0.1939 -0.3573
  867loPI   C6A12860  11.324   1.936   7.818  0.0320 -0.2033  0.0363
  867loPI   C1B12861  12.510   0.718   6.278 -0.2102  0.1088 -0.1807
  867loPI   C2B12862  12.351   0.814   6.744 -0.2535  0.0279 -0.2475
  867loPI   C3B12863  12.246   0.866   7.067  0.0652 -0.4230  0.0802
  867loPI   C4B12864  11.889   0.812   7.311  0.1803 -0.0422 -0.0988
  868loPI    C112865  11.791  13.261   5.103  0.2138  0.2105 -0.2267
  868loPI    C212866  11.428  13.142   5.220  0.2035  0.4206 -0.0385
  868loPI    C312867  11.610  12.958   4.915  0.1294  0.0198  0.1528
  868loPI   PO412868  11.901  13.316   5.317  0.0281  0.1005  0.1367
  868loPI   GL112869  11.919  13.053   5.684  0.0440  0.1894  0.2630
  868loPI   GL212870  11.627  12.806   5.547 -0.1636  0.2334 -0.0213
  868loPI   C1A12871  11.845  12.853   6.043  0.0453  0.1910  0.1616
  868loPI   C2A12872  11.755  12.887   6.451 -0.0775  0.1419 -0.0692
  868loPI   C3A12873  11.653  12.760   6.781 -0.2605  0.0279 -0.0541
  868loPI   C4A12874  11.644  13.010   7.122 -0.1874 -0.0457 -0.3581
  868loPI   C5A12875  11.598  13.271   7.450  0.5009 -0.0628  0.1075
  868loPI   C6A12876  11.330  13.436   7.811  0.3952  0.0566  0.1217
  868loPI   C1B12877  11.423  12.569   5.922 -0.1097 -0.1194  0.2257
  868loPI   C2B12878  11.386  12.487   6.330 -0.0980  0.0052  0.2300
  868loPI   C3B12879  11.331  12.426   6.824 -0.1153  0.1998 -0.2331
  868loPI   C4B12880  11.355  12.134   7.082 -0.0323  0.0217 -0.0557
  869loPI    C112881   4.044   1.980   5.016  0.0058 -0.0442  0.2697
  869loPI    C212882   3.805   2.225   5.224 -0.2532 -0.0565 -0.0072
  869loPI    C312883   4.017   2.366   4.915 -0.0335 -0.0836  0.1285
  869loPI   PO412884   4.168   1.763   5.214 -0.1590  0.0127  0.0286
  869loPI   GL112885   4.330   1.627   5.653  0.2242  0.0126  0.1544
  869loPI   GL212886   4.468   1.517   5.878  0.5033 -0.1648 -0.2857
  869loPI   C1A12887   4.224   1.839   6.100  0.0636 -0.1024 -0.0063
  869loPI   C2A12888   4.160   2.015   6.467 -0.0779 -0.0291 -0.1522
  869loPI   C3A12889   4.189   2.220   6.896  0.1635 -0.0219  0.3219
  869loPI   C4A12890   4.134   2.539   7.263 -0.1110  0.2995  0.0229
  869loPI   C5A12891   3.785   2.866   7.375  0.1772 -0.0644 -0.1930
  869loPI   C6A12892   3.441   2.941   7.760 -0.0101  0.1995 -0.0524
  869loPI   C1B12893   4.651   1.559   6.229 -0.1897 -0.1083 -0.2391
  869loPI   C2B12894   4.702   1.808   6.570  0.3369  0.0264  0.0502
  869loPI   C3B12895   4.593   1.993   7.019 -0.2523 -0.1635  0.0736
  869loPI   C4B12896   4.563   2.239   7.404 -0.0620 -0.0979  0.3161
  870loPI    C112897   0.940   0.646   5.132  0.0024  0.2662  0.3809
  870loPI    C212898   0.698   0.836   4.877 -0.1616 -0.2128  0.1691
  870loPI    C312899   1.095   0.871   4.840 -0.1856 -0.1771 -0.0752
  870loPI   PO412900   0.807   0.680   5.389 -0.1372  0.2730 -0.1544
  870loPI   GL112901   0.963   0.606   5.766  0.3237  0.2539  0.0803
  870loPI   GL212902   1.299   0.547   5.816  0.1747 -0.2613 -0.0114
  870loPI   C1A12903   0.741   0.582   6.106 -0.1424  0.0841  0.0737
  870loPI   C2A12904   0.361   0.660   6.432 -0.2946  0.1756 -0.1003
  870loPI   C3A12905   0.019   0.586   6.715 -0.2200  0.1167  0.0319
  870loPI   C4A12906  -0.205   0.525   7.078 -0.0720 -0.2118  0.1190
  870loPI   C5A12907  -0.370   0.786   7.456  0.1107 -0.2310  0.0427
  870loPI   C6A12908  -0.773   0.875   7.653  0.0355  0.2273 -0.0226
  870loPI   C1B12909   1.318   0.578   6.263 -0.1302  0.1908 -0.0641
  870loPI   C2B12910   1.143   0.519   6.713  0.1111  0.2310  0.2745
  870loPI   C3B12911   1.185   0.639   7.185  0.1822  0.2117 -0.4183
  870loPI   C4B12912   1.339   0.791   7.623  0.0523 -0.0866  0.0741
  871loPI    C112913  14.405  10.742   4.865 -0.0419  0.2190 -0.3973
  871loPI    C212914  14.221  10.448   5.063 -0.0770  0.3080 -0.2964
  871loPI    C312915  14.563  10.375   4.869  0.0799  0.2701 -0.0119
  871loPI   PO412916  14.228  10.939   5.077 -0.0452  0.3062  0.2600
  871loPI   GL112917  14.334  11.187   5.415  0.1534 -0.0056 -0.2164
  871loPI   GL212918  13.943  11.186   5.448  0.2085  0.6097 -0.1344
  871loPI   C1A12919  14.481  11.387   5.844  0.1056  0.0195  0.0653
  871loPI   C2A12920  14.638  11.271   6.217 -0.0409 -0.2116  0.1305
  871loPI   C3A12921  14.733  11.297   6.554  0.4155 -0.2688 -0.0492
  871loPI   C4A12922  14.656  11.165   6.999  0.0713 -0.0387 -0.0945
  871loPI   C5A12923  14.732  10.992   7.454  0.0050 -0.1885 -0.1044
  871loPI   C6A12924  14.902  10.790   7.863  0.0563  0.3256  0.0929
  871loPI   C1B12925  13.888  11.353   5.798  0.1263 -0.1800 -0.1048
  871loPI   C2B12926  13.623  11.431   6.193  0.0005 -0.0098 -0.1813
  871loPI   C3B12927  13.689  11.521   6.602  0.0337  0.1000  0.2538
  871loPI   C4B12928  13.682  11.509   7.049 -0.1953  0.0512  0.1975
  872loPI    C112929  10.515  12.980   4.548  0.0657 -0.0934  0.1355
  872loPI    C212930  10.692  12.629   4.479  0.0462 -0.0959  0.0979
  872loPI    C312931  10.574  12.857   4.172 -0.1141 -0.1441  0.1232
  872loPI   PO412932  10.638  13.045   4.757 -0.2223  0.1154  0.0265
  872loPI   GL112933  10.835  13.021   5.221  0.1276  0.1512  0.2117
  872loPI   GL212934  10.831  12.628   5.347  0.1166  0.0972 -0.1930
  872loPI   C1A12935  10.565  13.127   5.579 -0.2737  0.3611 -0.2280
  872loPI   C2A12936  10.671  13.184   6.009  0.3615  0.1538 -0.1510
  872loPI   C3A12937  10.774  13.284   6.423  0.0098  0.1929 -0.1561
  872loPI   C4A12938  10.790  13.474   6.746 -0.1307 -0.1481 -0.0554
  872loPI   C5A12939  10.673  13.582   7.162  0.2183 -0.0243 -0.2564
  872loPI   C6A12940  10.993  13.759   7.569 -0.0745  0.0271 -0.0555
  872loPI   C1B12941  10.898  12.743   5.802  0.3099 -0.3123  0.0666
  872loPI   C2B12942  10.887  12.700   6.237  0.0440  0.3264  0.1608
  872loPI   C3B12943  10.751  12.553   6.668 -0.0332  0.1874  0.0254
  872loPI   C4B12944  10.674  12.957   6.780  0.1628  0.0513 -0.0400
  873loPI    C112945   8.114   5.830   4.892  0.0421 -0.1412 -0.0333
  873loPI    C212946   7.922   6.153   5.028  0.3701  0.0329  0.0264
  873loPI    C312947   8.226   6.194   4.771  0.1741 -0.2541 -0.2591
  873loPI   PO412948   8.173   5.720   5.166  0.0147 -0.0728 -0.2202
  873loPI   GL112949   8.127   6.097   5.474  0.1641 -0.2535  0.0586
  873loPI   GL212950   7.860   6.280   5.524 -0.0560  0.0675  0.1074
  873loPI   C1A12951   8.275   5.807   5.795 -0.2902 -0.2272 -0.0259
  873loPI   C2A12952   8.303   5.927   6.244  0.1418  0.3059 -0.1063
  873loPI   C3A12953   8.189   5.934   6.612  0.1177 -0.1156  0.0005
  873loPI   C4A12954   8.143   5.963   7.016  0.2828  0.2077 -0.1388
  873loPI   C5A12955   8.070   6.235   7.349  0.2886 -0.2063  0.2800
  873loPI   C6A12956   8.068   6.673   7.486  0.2318  0.0387  0.0650
  873loPI   C1B12957   8.039   6.608   5.821  0.1462  0.2555  0.0262
  873loPI   C2B12958   8.124   6.804   6.176  0.0874  0.3277  0.1128
  873loPI   C3B12959   8.296   6.894   6.570  0.1121 -0.1162  0.2008
  873loPI   C4B12960   8.145   6.950   6.915  0.2262  0.2075 -0.0055
  874loPI    C112961  12.193   5.604   5.375  0.0655 -0.1084 -0.1376
  874loPI    C212962  12.085   5.684   4.999 -0.1746  0.1704 -0.0134
  874loPI    C312963  11.973   5.929   5.295  0.0192 -0.0419  0.2395
  874loPI   PO412964  12.198   5.285   5.353  0.0067  0.1006  0.0774
  874loPI   GL112965  12.310   5.098   5.786  0.2760  0.3043  0.0316
  874loPI   GL212966  12.032   5.242   5.909 -0.0681 -0.1012  0.3318
  874loPI   C1A12967  12.539   5.222   6.074 -0.1441  0.0578  0.0390
  874loPI   C2A12968  12.462   5.205   6.456 -0.3094  0.0659 -0.3398
  874loPI   C3A12969  12.439   5.207   6.880  0.0997 -0.2236  0.0471
  874loPI   C4A12970  12.178   5.234   7.194 -0.1720 -0.2315  0.2699
  874loPI   C5A12971  11.896   5.583   7.399 -0.0599  0.0719  0.0204
  874loPI   C6A12972  11.779   5.812   7.806 -0.3748 -0.2530 -0.2349
  874loPI   C1B12973  11.991   5.165   6.338 -0.2707  0.1253  0.0788
  874loPI   C2B12974  12.082   4.916   6.696 -0.0527  0.1606 -0.0407
  874loPI   C3B12975  12.220   4.773   7.015  0.0706  0.5142 -0.1620
  874loPI   C4B12976  12.404   4.510   7.362  0.2507 -0.3431 -0.0031
  875loPI    C112977   5.285   1.494   5.282 -0.0078  0.0746  0.1529
  875loPI    C212978   5.231   1.776   5.005 -0.0196 -0.1007 -0.0257
  875loPI    C312979   5.555   1.542   4.991 -0.0373 -0.1323  0.0894
  875loPI   PO412980   5.241   1.496   5.568 -0.2203 -0.2730  0.3711
  875loPI   GL112981   4.961   1.220   5.876 -0.1459 -0.0776  0.4748
  875loPI   GL212982   5.168   1.352   6.066  0.1033 -0.1868  0.1092
  875loPI   C1A12983   4.958   1.014   6.273  0.0248 -0.0682  0.1493
  875loPI   C2A12984   4.715   1.018   6.564  0.1137 -0.1146 -0.0264
  875loPI   C3A12985   4.814   1.187   6.998 -0.2996 -0.3145  0.2094
  875loPI   C4A12986   4.733   1.389   7.483  0.0245  0.0776  0.1504
  875loPI   C5A12987   4.938   1.349   7.805  0.2357  0.1071 -0.2198
  875loPI   C6A12988   5.447   1.230   7.858  0.1052 -0.1364  0.1441
  875loPI   C1B12989   5.077   1.405   6.525 -0.5120  0.2243  0.2703
  875loPI   C2B12990   5.157   1.548   6.954  0.0380  0.1779 -0.0881
  875loPI   C3B12991   4.961   1.709   7.176 -0.2116 -0.1285 -0.0860
  875loPI   C4B12992   4.856   1.872   7.627 -0.0677 -0.2648  0.2336
  876loPI    C112993   4.828   9.293   5.278  0.1099  0.1579  0.0854
  876loPI    C212994   4.840   9.255   5.676 -0.0927  0.0704  0.0845
  876loPI    C312995   4.575   9.044   5.463  0.1523 -0.0386 -0.1172
  876loPI   PO412996   4.872   9.639   5.332 -0.0579  0.1617  0.1335
  876loPI   GL112997   5.193   9.830   5.659  0.1521  0.1760 -0.3487
  876loPI   GL212998   5.293   9.494   5.806  0.1613 -0.0823 -0.0124
  876loPI   C1A12999   5.598  10.041   5.935  0.0185  0.0247  0.1891
  876loPI   C2A13000   5.678  10.059   6.409  0.2231  0.0401  0.1378
  876loPI   C3A13001   5.489  10.106   6.861  0.0491 -0.1213 -0.2385
  876loPI   C4A13002   5.257  10.193   7.198  0.1113 -0.0312 -0.2621
  876loPI   C5A13003   5.199  10.005   7.513  0.3412  0.1038  0.1515
  876loPI   C6A13004   5.598   9.713   7.703 -0.0347  0.1011  0.4629
  876loPI   C1B13005   5.410   9.652   6.193 -0.3717  0.1038 -0.0779
  876loPI   C2B13006   5.256   9.720   6.579  0.1861  0.0897  0.3087
  876loPI   C3B13007   5.134   9.756   7.042  0.1401 -0.5884  0.1796
  876loPI   C4B13008   4.821   9.639   7.383  0.3709  0.1758  0.0422
  877loPI    C113009   5.719   9.227   4.852  0.0692 -0.2842  0.0250
  877loPI    C213010   5.478   9.388   4.576 -0.0320 -0.1416  0.1941
  877loPI    C313011   5.848   9.274   4.476 -0.1670 -0.3634 -0.0681
  877loPI   PO413012   5.799   9.352   5.043 -0.1632 -0.0408  0.0973
  877loPI   GL113013   5.749   9.261   5.486 -0.1961  0.1841 -0.3324
  877loPI   GL213014   5.858   9.616   5.432  0.0217 -0.1912  0.0370
  877loPI   C1A13015   5.681   9.090   5.877 -0.3276 -0.0049 -0.0049
  877loPI   C2A13016   5.613   9.029   6.313 -0.1862  0.0335  0.0155
  877loPI   C3A13017   5.471   9.184   6.615 -0.0156 -0.2184  0.1308
  877loPI   C4A13018   5.340   9.262   7.001  0.1652 -0.0996  0.0578
  877loPI   C5A13019   5.277   9.378   7.441 -0.2153 -0.0776  0.3119
  877loPI   C6A13020   5.214   9.417   7.900 -0.0859 -0.2918  0.0807
  877loPI   C1B13021   5.869   9.572   5.945 -0.0465 -0.0974  0.1943
  877loPI   C2B13022   5.818   9.561   6.403 -0.1600 -0.0058  0.0626
  877loPI   C3B13023   5.685   9.677   6.760  0.0558 -0.1986  0.1209
  877loPI   C4B13024   5.632   9.741   7.187 -0.2372 -0.4181 -0.1706
  878loPI    C113025   8.272  16.158   5.541 -0.0368 -0.0972 -0.1772
  878loPI    C213026   8.422  16.462   5.330 -0.2351  0.3234  0.2683
  878loPI    C313027   8.103  16.262   5.195 -0.1065  0.3115 -0.0253
  878loPI   PO413028   8.096  16.266   5.779  0.0951  0.0545  0.2149
  878loPI   GL113029   8.147  16.209   6.100  0.1643  0.3522  0.1343
  878loPI   GL213030   8.194  15.836   6.151 -0.0607  0.0484  0.0951
  878loPI   C1A13031   7.982  16.425   6.382 -0.0624  0.0965  0.1632
  878loPI   C2A13032   7.923  16.477   6.804 -0.2113 -0.1013 -0.0644
  878loPI   C3A13033   7.893  16.440   7.225 -0.1819 -0.0320  0.0553
  878loPI   C4A13034   8.182  16.602   7.482  0.1107 -0.0714  0.1858
  878loPI   C5A13035   8.488  16.512   7.761  0.1676 -0.2219  0.4757
  878loPI   C6A13036   8.827  16.517   8.035  0.0730  0.0195 -0.2165
  878loPI   C1B13037   8.297  15.570   6.505  0.1146 -0.0702  0.0773
  878loPI   C2B13038   8.251  15.361   6.773  0.0325  0.1649  0.1807
  878loPI   C3B13039   8.144  15.073   7.000  0.2906 -0.2481 -0.0813
  878loPI   C4B13040   8.368  15.020   7.503 -0.1505 -0.2565 -0.0599
  879loPI    C113041  16.081  10.486   5.294  0.1176 -0.0059 -0.1186
  879loPI    C213042  15.748  10.584   5.095  0.1034 -0.1170 -0.1500
  879loPI    C313043  16.093  10.768   5.011  0.0530 -0.0118 -0.1272
  879loPI   PO413044  15.998  10.437   5.542 -0.0667  0.1521  0.1814
  879loPI   GL113045  15.735  10.291   5.776  0.2898  0.0624 -0.1753
  879loPI   GL213046  15.492  10.174   5.915 -0.1240  0.1166 -0.0522
  879loPI   C1A13047  15.877  10.475   6.135 -0.0567 -0.0253 -0.1525
  879loPI   C2A13048  15.851  10.460   6.595  0.3456  0.2253 -0.2521
  879loPI   C3A13049  15.856  10.531   7.001  0.2215 -0.2063 -0.1928
  879loPI   C4A13050  15.775  10.587   7.398 -0.0957 -0.1349  0.0788
  879loPI   C5A13051  15.852  10.519   7.805 -0.1325 -0.0882 -0.0610
  879loPI   C6A13052  15.682  10.292   8.102 -0.1298 -0.0920 -0.0562
  879loPI   C1B13053  15.267  10.247   6.266 -0.1117  0.0251 -0.3612
  879loPI   C2B13054  15.406  10.172   6.675 -0.0261  0.0271  0.0489
  879loPI   C3B13055  15.430   9.914   7.026 -0.0954  0.1571  0.0164
  879loPI   C4B13056  15.581   9.675   7.334  0.0022 -0.2071 -0.2853
  880loPI    C113057  13.475  16.630   5.433  0.0928 -0.0217  0.0207
  880loPI    C213058  13.420  16.343   5.161 -0.0836 -0.0971  0.1339
  880loPI    C313059  13.790  16.467   5.249 -0.0281 -0.0350 -0.1767
  880loPI   PO413060  13.291  16.732   5.463  0.1320 -0.2870 -0.1941
  880loPI   GL113061  13.129  17.002   5.814 -0.2498 -0.3597  0.2102
  880loPI   GL213062  13.249  16.740   5.955  0.0557 -0.0596  0.0624
  880loPI   C1A13063  13.259  17.203   6.112 -0.1434 -0.0286  0.0801
  880loPI   C2A13064  13.342  17.266   6.500  0.2780  0.1528  0.1524
  880loPI   C3A13065  13.530  17.413   6.885  0.0607  0.3898 -0.0662
  880loPI   C4A13066  13.506  17.451   7.410  0.2271  0.1254 -0.2662
  880loPI   C5A13067  13.591  17.110   7.762  0.0401  0.0272  0.1046
  880loPI   C6A13068  13.558  16.879   8.115 -0.0312 -0.2011 -0.1278
  880loPI   C1B13069  13.345  16.839   6.397  0.1685  0.4280  0.0876
  880loPI   C2B13070  13.424  16.885   6.832 -0.3366 -0.1008 -0.0270
  880loPI   C3B13071  13.406  16.934   7.271  0.0926 -0.1095  0.4170
  880loPI   C4B13072  13.126  16.933   7.541  0.0525 -0.2412 -0.2004
  881loPI    C113073   5.881   7.019   4.625  0.0739  0.0241  0.0090
  881loPI    C213074   5.915   7.376   4.446 -0.1143 -0.0132 -0.1042
  881loPI    C313075   5.557   7.201   4.477  0.0221 -0.3459 -0.3494
  881loPI   PO413076   6.030   7.065   4.901  0.1585  0.3274 -0.2411
  881loPI   GL113077   6.075   6.931   5.333 -0.0434  0.2431 -0.3150
  881loPI   GL213078   5.831   7.089   5.406 -0.0905 -0.1582  0.1842
  881loPI   C1A13079   6.162   6.718   5.813 -0.0053  0.2502 -0.0956
  881loPI   C2A13080   6.031   6.544   6.193 -0.3523  0.0917 -0.0103
  881loPI   C3A13081   6.111   6.659   6.626 -0.2938  0.0042  0.5521
  881loPI   C4A13082   5.929   6.558   7.003  0.0245  0.0333  0.2120
  881loPI   C5A13083   5.898   6.603   7.427  0.0093  0.2598 -0.0557
  881loPI   C6A13084   6.065   6.704   7.768 -0.1126 -0.0468  0.1483
  881loPI   C1B13085   5.726   7.265   5.793 -0.0751  0.1049 -0.2269
  881loPI   C2B13086   5.788   7.059   6.134 -0.1636  0.0316  0.1305
  881loPI   C3B13087   5.770   7.021   6.599  0.1923  0.2286 -0.1082
  881loPI   C4B13088   5.673   6.988   6.990 -0.0830 -0.0239 -0.1980
  882loPI    C113089   7.258  10.267   5.200  0.2063  0.2309  0.1136
  882loPI    C213090   7.273   9.990   5.487 -0.2396 -0.0847 -0.1545
  882loPI    C313091   7.546   9.990   5.195 -0.0890 -0.0810 -0.0155
  882loPI   PO413092   7.151  10.519   5.237  0.2885 -0.0314  0.2004
  882loPI   GL113093   7.272  10.747   5.657 -0.0361 -0.0098  0.0533
  882loPI   GL213094   7.364  10.474   5.732 -0.0498  0.1251 -0.0819
  882loPI   C1A13095   7.050  10.786   6.113 -0.0468  0.2187 -0.1808
  882loPI   C2A13096   7.066  10.745   6.535  0.2480 -0.0004  0.0035
  882loPI   C3A13097   6.768  10.951   6.778 -0.0894  0.0356 -0.1595
  882loPI   C4A13098   6.759  10.919   7.311 -0.1293 -0.0911 -0.0091
  882loPI   C5A13099   6.901  10.943   7.721 -0.1892 -0.1955 -0.0166
  882loPI   C6A13100   6.996  11.068   8.123  0.2393  0.1427 -0.0342
  882loPI   C1B13101   7.516  10.458   6.182 -0.1721  0.0694  0.1423
  882loPI   C2B13102   7.517  10.536   6.575  0.1123  0.1902 -0.0818
  882loPI   C3B13103   7.411  10.488   7.003 -0.2291  0.1828  0.0046
  882loPI   C4B13104   7.365  10.749   7.463 -0.0318  0.1669  0.0203
  883loPI    C113105   0.864   8.253   5.173  0.2418  0.1898 -0.2315
  883loPI    C213106   0.813   8.494   5.488 -0.2096 -0.1643 -0.0224
  883loPI    C313107   0.757   8.635   5.118  0.1209  0.2005  0.0602
  883loPI   PO413108   1.127   8.076   5.294 -0.1121  0.1384  0.1274
  883loPI   GL113109   1.219   8.100   5.631  0.0068  0.1806  0.1278
  883loPI   GL213110   0.960   8.144   5.796 -0.2156  0.1263  0.0844
  883loPI   C1A13111   1.580   7.939   5.819  0.4343  0.1807  0.1302
  883loPI   C2A13112   1.820   8.010   6.179 -0.2810  0.2914 -0.2425
  883loPI   C3A13113   2.188   8.106   6.531  0.1558  0.1695  0.0403
  883loPI   C4A13114   2.467   8.090   6.829 -0.2307  0.1283 -0.2244
  883loPI   C5A13115   2.845   8.241   7.191  0.2206  0.0636 -0.1486
  883loPI   C6A13116   3.174   7.844   7.451 -0.1547  0.1113  0.1228
  883loPI   C1B13117   0.724   7.881   6.182  0.0016 -0.1721  0.1806
  883loPI   C2B13118   0.791   7.864   6.621  0.2360 -0.0681 -0.0485
  883loPI   C3B13119   0.777   7.838   7.073  0.0510 -0.0415 -0.0806
  883loPI   C4B13120   0.678   7.666   7.515 -0.1966  0.2102 -0.2241
  884loPI    C113121  18.608   9.563   5.308 -0.0411 -0.1049  0.0910
  884loPI    C213122  18.260   9.473   5.132 -0.1419  0.2016  0.1276
  884loPI    C313123  18.598   9.475   4.918 -0.0914 -0.4963  0.1758
  884loPI   PO413124  18.503   9.734   5.553  0.1510  0.3068 -0.3408
  884loPI   GL113125  18.609   9.678   5.991 -0.0183  0.0854  0.1480
  884loPI   GL213126  18.580   9.377   6.093  0.4978 -0.3634  0.3474
  884loPI   C1A13127  18.611   9.731   6.466  0.0353  0.2002 -0.1505
  884loPI   C2A13128  18.542   9.806   6.943 -0.0248  0.1590  0.0128
  884loPI   C3A13129  18.554   9.959   7.316  0.0944  0.5486  0.0347
  884loPI   C4A13130  18.624  10.009   7.624  0.1809  0.1026 -0.0063
  884loPI   C5A13131  18.499  10.181   8.021  0.0174  0.0169  0.3644
  884loPI   C6A13132  18.588  10.339   8.413 -0.4498 -0.2544 -0.3523
  884loPI   C1B13133  18.258   9.360   6.427  0.1253  0.1123  0.1146
  884loPI   C2B13134  18.190   9.475   6.828 -0.2396  0.0723  0.0341
  884loPI   C3B13135  18.169   9.597   7.300  0.0293 -0.1707  0.1122
  884loPI   C4B13136  18.183   9.248   7.545  0.1787 -0.1081  0.0210
  885loPI    C113137  16.084  15.354   5.530 -0.2031  0.0229 -0.1441
  885loPI    C213138  16.280  15.019   5.435 -0.1520  0.0268 -0.0531
  885loPI    C313139  16.364  15.360   5.244  0.1003  0.0807  0.1487
  885loPI   PO413140  15.877  15.279   5.624 -0.0061 -0.1357 -0.2193
  885loPI   GL113141  15.853  15.401   6.113  0.3642  0.0450  0.0356
  885loPI   GL213142  16.179  15.572   5.976 -0.0235  0.0672 -0.1361
  885loPI   C1A13143  15.682  15.301   6.496  0.0699  0.0293 -0.0150
  885loPI   C2A13144  15.686  15.234   6.909  0.2520  0.1933 -0.1258
  885loPI   C3A13145  15.383  15.126   7.254 -0.0958  0.1370  0.1777
  885loPI   C4A13146  15.328  15.079   7.726 -0.1904  0.1182 -0.1842
  885loPI   C5A13147  15.275  15.370   8.050 -0.0878 -0.0659  0.1203
  885loPI   C6A13148  15.506  15.707   8.210  0.0311 -0.2333  0.1417
  885loPI   C1B13149  16.270  15.696   6.335 -0.4164 -0.0618  0.1632
  885loPI   C2B13150  16.129  15.488   6.618  0.2112 -0.0046 -0.1774
  885loPI   C3B13151  16.230  15.340   7.036  0.1124 -0.0340  0.0112
  885loPI   C4B13152  16.088  15.380   7.368  0.0423 -0.3560  0.2839
  886loPI    C113153   6.463   5.617   4.741 -0.0692 -0.3354 -0.0608
  886loPI    C213154   6.767   5.807   4.564 -0.0527 -0.1744  0.1368
  886loPI    C313155   6.470   5.656   4.343  0.0375 -0.0995 -0.0376
  886loPI   PO413156   6.595   5.462   4.924  0.4557 -0.0616 -0.2389
  886loPI   GL113157   6.426   5.380   5.348 -0.3305  0.0163 -0.2945
  886loPI   GL213158   6.804   5.440   5.399 -0.3431 -0.1372  0.0957
  886loPI   C1A13159   6.377   5.334   5.767 -0.0216 -0.2590  0.2472
  886loPI   C2A13160   6.162   5.640   5.969 -0.1702  0.0719 -0.1164
  886loPI   C3A13161   6.321   5.720   6.326  0.0695 -0.1902  0.2122
  886loPI   C4A13162   6.222   5.680   6.759  0.1102 -0.1858  0.4034
  886loPI   C5A13163   6.418   5.391   7.134  0.1890 -0.1175  0.2356
  886loPI   C6A13164   6.642   5.480   7.467 -0.0973 -0.2358 -0.2070
  886loPI   C1B13165   6.879   5.350   5.743  0.1890  0.0978  0.0739
  886loPI   C2B13166   6.867   5.350   6.174 -0.0241  0.0294  0.1803
  886loPI   C3B13167   6.907   5.250   6.526  0.1558 -0.2907 -0.2792
  886loPI   C4B13168   7.230   5.244   6.873 -0.1342 -0.0559  0.1871
  887loPI    C113169  17.875   6.074   5.021  0.0429 -0.0721 -0.1272
  887loPI    C213170  18.259   5.996   4.942  0.0846 -0.1479  0.1409
  887loPI    C313171  17.989   5.990   4.647  0.3214  0.1176 -0.0874
  887loPI   PO413172  17.867   6.016   5.260  0.0239  0.2782 -0.3552
  887loPI   GL113173  17.902   6.078   5.621  0.2577  0.0793  0.0550
  887loPI   GL213174  18.069   6.331   5.704  0.0027  0.0134  0.3953
  887loPI   C1A13175  17.856   6.066   6.066  0.2978  0.0898 -0.2273
  887loPI   C2A13176  17.840   6.112   6.483  0.4904  0.1698  0.1808
  887loPI   C3A13177  17.662   6.115   6.880 -0.0992 -0.1634 -0.1859
  887loPI   C4A13178  17.503   6.391   7.212  0.0338  0.2548 -0.3808
  887loPI   C5A13179  17.295   6.630   7.510  0.0188 -0.1528  0.2129
  887loPI   C6A13180  16.926   6.927   7.603 -0.1421 -0.0534 -0.4244
  887loPI   C1B13181  18.223   6.388   6.058  0.1264 -0.0977 -0.2002
  887loPI   C2B13182  18.314   6.332   6.433 -0.1133 -0.2235 -0.1986
  887loPI   C3B13183  18.171   6.143   6.854 -0.3045  0.0403 -0.3244
  887loPI   C4B13184  18.015   6.097   7.283 -0.0738  0.1726  0.1552
  888loPI    C113185  11.895  10.039   4.868 -0.0546  0.3331 -0.0514
  888loPI    C213186  12.095  10.051   4.522  0.0987  0.0380  0.0234
  888loPI    C313187  11.712   9.936   4.527  0.0340  0.2444 -0.0727
  888loPI   PO413188  11.957  10.255   4.993 -0.1251 -0.2829  0.1322
  888loPI   GL113189  11.954  10.440   5.280  0.1110  0.0933  0.1329
  888loPI   GL213190  11.930  10.725   5.380  0.1037  0.3203  0.1726
  888loPI   C1A13191  12.106  10.312   5.712 -0.0490  0.1380  0.0185
  888loPI   C2A13192  12.020  10.319   6.105 -0.1049  0.0142 -0.2062
  888loPI   C3A13193  11.946  10.206   6.640  0.2616 -0.0605 -0.1060
  888loPI   C4A13194  11.895  10.299   7.128  0.2022  0.0930 -0.0190
  888loPI   C5A13195  12.118  10.343   7.510  0.3174 -0.1876  0.0483
  888loPI   C6A13196  12.115  10.353   7.926  0.0812  0.0497  0.1397
  888loPI   C1B13197  11.870  10.742   5.893 -0.0751 -0.3944 -0.1283
  888loPI   C2B13198  11.838  10.851   6.355  0.0012  0.0226  0.1253
  888loPI   C3B13199  11.581  10.610   6.608  0.3142  0.0138  0.1219
  888loPI   C4B13200  11.487  10.624   6.961 -0.0512 -0.0230  0.0684
  889loPI    C113201  13.509   6.879   5.375  0.0610 -0.0528 -0.0649
  889loPI    C213202  13.531   6.480   5.356 -0.0361 -0.0472 -0.3501
  889loPI    C313203  13.599   6.700   5.029  0.2186  0.1825 -0.1482
  889loPI   PO413204  13.586   6.957   5.589  0.3339  0.0344  0.0313
  889loPI   GL113205  13.509   7.007   6.014  0.0733 -0.3117  0.3531
  889loPI   GL213206  13.382   7.305   5.849  0.0735 -0.1276 -0.0839
  889loPI   C1A13207  13.667   7.049   6.297 -0.3366 -0.1329  0.1347
  889loPI   C2A13208  13.596   6.910   6.702  0.0304 -0.0929  0.0163
  889loPI   C3A13209  13.478   6.610   7.014 -0.2552 -0.0039  0.3001
  889loPI   C4A13210  13.185   6.650   7.251  0.2800 -0.0662  0.0989
  889loPI   C5A13211  12.940   6.972   7.437 -0.0680 -0.0644 -0.0111
  889loPI   C6A13212  12.809   7.310   7.616  0.0187  0.0048  0.1840
  889loPI   C1B13213  13.274   7.369   6.340 -0.1612 -0.0123  0.2998
  889loPI   C2B13214  13.263   7.331   6.822  0.1673  0.1717 -0.0610
  889loPI   C3B13215  13.449   7.051   7.169  0.3115 -0.0560 -0.1483
  889loPI   C4B13216  13.400   6.971   7.567 -0.0069  0.0198  0.0649
  890loPI    C113217   2.830   9.120   5.197 -0.0612 -0.0653 -0.1103
  890loPI    C213218   2.467   9.283   5.160  0.1581  0.4244 -0.1878
  890loPI    C313219   2.692   9.218   4.835  0.0500 -0.1108 -0.1658
  890loPI   PO413220   2.965   9.224   5.399 -0.2937  0.1454 -0.4138
  890loPI   GL113221   2.902   9.111   5.858 -0.2293 -0.0535 -0.1135
  890loPI   GL213222   3.201   9.235   5.917 -0.1766 -0.1036  0.2960
  890loPI   C1A13223   2.892   8.995   6.289  0.0094  0.2417 -0.1380
  890loPI   C2A13224   3.096   8.944   6.625  0.2008 -0.1272 -0.1093
  890loPI   C3A13225   3.240   9.207   6.981  0.0882  0.0456  0.0226
  890loPI   C4A13226   3.465   9.233   7.238  0.1695  0.1367 -0.2011
  890loPI   C5A13227   3.508   9.220   7.734 -0.1767  0.2620  0.0962
  890loPI   C6A13228   3.270   9.573   7.977 -0.0647 -0.2872 -0.0366
  890loPI   C1B13229   3.409   8.971   6.257 -0.1576 -0.1550  0.0375
  890loPI   C2B13230   3.586   8.733   6.641 -0.0593  0.1102 -0.1238
  890loPI   C3B13231   3.504   8.753   7.006 -0.0106  0.0470 -0.0953
  890loPI   C4B13232   3.644   8.795   7.432 -0.1337  0.2087 -0.0253
  891loPI    C113233   1.881  10.102   5.542 -0.0616 -0.3548 -0.2166
  891loPI    C213234   1.972   9.993   5.168 -0.1329 -0.0047 -0.3402
  891loPI    C313235   1.600  10.109   5.258 -0.1846 -0.3434 -0.0956
  891loPI   PO413236   1.899   9.986   5.688  0.1291  0.0411  0.1217
  891loPI   GL113237   1.625  10.340   6.003 -0.1885  0.0331 -0.0257
  891loPI   GL213238   1.597   9.978   6.135  0.0789 -0.2892 -0.2716
  891loPI   C1A13239   1.840  10.516   6.283 -0.1247 -0.1451  0.1027
  891loPI   C2A13240   1.856  10.607   6.645 -0.3252  0.0963 -0.1923
  891loPI   C3A13241   1.812  10.351   7.137 -0.0475  0.1467  0.1491
  891loPI   C4A13242   1.674  10.103   7.536  0.2092 -0.2390  0.1971
  891loPI   C5A13243   1.202   9.995   7.674 -0.0925  0.1519  0.1323
  891loPI   C6A13244   1.002   9.833   8.054  0.0102  0.2098  0.0842
  891loPI   C1B13245   1.684  10.032   6.525 -0.2305  0.0648  0.1229
  891loPI   C2B13246   1.820   9.893   6.948  0.0208 -0.2892 -0.3750
  891loPI   C3B13247   1.844   9.719   7.334  0.1693  0.1053 -0.0252
  891loPI   C4B13248   2.001   9.698   7.688 -0.1556 -0.2629 -0.0950
  892loPI    C113249  10.788  16.634   5.580 -0.0302  0.2447  0.2179
  892loPI    C213250  11.043  16.749   5.295 -0.0413  0.0698  0.1360
  892loPI    C313251  10.657  16.691   5.206  0.0240 -0.3372  0.1010
  892loPI   PO413252  10.946  16.523   5.716  0.2979  0.3067 -0.0367
  892loPI   GL113253  11.083  16.680   6.063  0.0461 -0.2853 -0.4399
  892loPI   GL213254  10.939  16.653   6.271  0.1936 -0.0682  0.0686
  892loPI   C1A13255  11.232  16.943   6.515 -0.4639  0.1111 -0.0204
  892loPI   C2A13256  11.158  17.032   6.934  0.2492 -0.1994  0.0713
  892loPI   C3A13257  10.977  17.073   7.359  0.2240  0.2997  0.0599
  892loPI   C4A13258  10.532  16.842   7.417 -0.0033 -0.1183 -0.0325
  892loPI   C5A13259  10.096  16.716   7.305  0.1226  0.0114 -0.1388
  892loPI   C6A13260  10.003  16.290   7.623 -0.0511  0.0585 -0.0393
  892loPI   C1B13261  10.950  16.520   6.623  0.3175 -0.0544 -0.3037
  892loPI   C2B13262  10.882  16.635   7.061  0.1496  0.1500  0.0452
  892loPI   C3B13263  11.006  16.584   7.510 -0.4101  0.4251  0.3683
  892loPI   C4B13264  11.179  16.361   7.903 -0.2904 -0.1431 -0.2293
  893loPI    C113265  16.927  17.181   5.297 -0.0142  0.0793  0.3818
  893loPI    C213266  17.313  17.287   5.283 -0.0172  0.0645  0.1447
  893loPI    C313267  17.156  17.064   4.991 -0.2327  0.1614  0.1843
  893loPI   PO413268  16.872  17.101   5.510  0.0937  0.1141  0.2588
  893loPI   GL113269  16.744  16.980   5.907  0.2705  0.1215  0.1461
  893loPI   GL213270  16.926  17.241   6.060  0.0519 -0.0857 -0.1476
  893loPI   C1A13271  16.647  16.892   6.356 -0.2562 -0.1100 -0.0939
  893loPI   C2A13272  16.726  17.081   6.722 -0.1910  0.1016 -0.0198
  893loPI   C3A13273  16.807  17.164   7.133 -0.2162  0.3250 -0.1636
  893loPI   C4A13274  16.728  17.361   7.500  0.2259  0.0559 -0.0159
  893loPI   C5A13275  16.724  17.653   7.907  0.0751 -0.0243  0.2112
  893loPI   C6A13276  16.752  17.529   8.289 -0.3320  0.2390  0.0092
  893loPI   C1B13277  17.243  17.221   6.343 -0.0626 -0.3168 -0.2321
  893loPI   C2B13278  17.519  17.143   6.595 -0.0730 -0.0281  0.0321
  893loPI   C3B13279  17.816  17.294   6.958  0.2824 -0.2501 -0.0908
  893loPI   C4B13280  17.781  17.287   7.390 -0.1446  0.0719  0.1368
  894loPI    C113281   3.960  17.521   5.550 -0.2087 -0.0962 -0.1823
  894loPI    C213282   3.831  17.817   5.786  0.0220  0.0163 -0.1937
  894loPI    C313283   3.756  17.828   5.393 -0.3588 -0.1688 -0.1313
  894loPI   PO413284   3.946  17.365   5.794  0.0130 -0.0105  0.1643
  894loPI   GL113285   4.030  17.522   6.131 -0.4094 -0.1394  0.1891
  894loPI   GL213286   4.320  17.394   6.186 -0.0172  0.3354 -0.0717
  894loPI   C1A13287   4.031  17.366   6.578 -0.0094 -0.2627  0.0299
  894loPI   C2A13288   4.135  17.380   6.913  0.4022 -0.1670  0.0602
  894loPI   C3A13289   4.123  17.557   7.363 -0.0072 -0.0495  0.2069
  894loPI   C4A13290   3.810  17.408   7.623  0.2185  0.2149 -0.1382
  894loPI   C5A13291   3.732  17.271   8.010 -0.0266 -0.0821 -0.3041
  894loPI   C6A13292   3.321  17.111   8.143 -0.3520  0.2734 -0.1640
  894loPI   C1B13293   4.315  16.957   6.373 -0.1091  0.2222 -0.2675
  894loPI   C2B13294   4.407  16.715   6.768  0.0624 -0.0603  0.0894
  894loPI   C3B13295   4.353  16.651   7.195 -0.3775 -0.1035 -0.1793
  894loPI   C4B13296   4.186  16.523   7.544 -0.6460  0.0851 -0.1174
  895loPI    C113297   5.107  10.387   4.846  0.1484  0.2116  0.0907
  895loPI    C213298   4.990  10.675   4.594  0.0382  0.1263  0.0438
  895loPI    C313299   5.312  10.454   4.509 -0.1227 -0.0444 -0.1297
  895loPI   PO413300   5.095  10.591   5.100 -0.0986  0.3776 -0.1131
  895loPI   GL113301   4.798  10.690   5.459  0.3163  0.0773 -0.0750
  895loPI   GL213302   4.522  10.535   5.691 -0.2730  0.2811  0.1438
  895loPI   C1A13303   5.033  10.664   5.920 -0.0789  0.1796 -0.3785
  895loPI   C2A13304   5.149  10.569   6.360  0.0263 -0.0358 -0.0901
  895loPI   C3A13305   5.178  10.612   6.847  0.0410  0.3519  0.2277
  895loPI   C4A13306   5.015  10.735   7.215  0.3433  0.0018 -0.1772
  895loPI   C5A13307   4.840  10.685   7.607  0.1372  0.0659 -0.0232
  895loPI   C6A13308   4.696  10.684   8.048 -0.2896 -0.2245 -0.1166
  895loPI   C1B13309   4.571  10.524   6.198  0.2228 -0.2579  0.0541
  895loPI   C2B13310   4.668  10.473   6.501  0.0659 -0.1131 -0.4046
  895loPI   C3B13311   4.411  10.750   6.822  0.0000  0.0379  0.2104
  895loPI   C4B13312   4.534  10.601   7.233  0.1657 -0.0723 -0.0014
  896loPI    C113313  13.635  15.299   5.176 -0.0753  0.1603 -0.0730
  896loPI    C213314  13.437  15.401   4.844 -0.1450 -0.0499 -0.0976
  896loPI    C313315  13.816  15.519   4.895 -0.2342  0.2493 -0.1067
  896loPI   PO413316  13.472  15.332   5.390  0.2746 -0.1516  0.0343
  896loPI   GL113317  13.542  15.286   5.782 -0.1885 -0.1583 -0.2765
  896loPI   GL213318  13.861  15.321   5.848 -0.0821  0.0519 -0.1303
  896loPI   C1A13319  13.246  15.291   6.033 -0.1658  0.2855 -0.0540
  896loPI   C2A13320  13.346  15.308   6.410 -0.0829 -0.2585  0.1677
  896loPI   C3A13321  13.399  15.443   6.870  0.0250  0.1872 -0.1623
  896loPI   C4A13322  13.681  15.435   7.142 -0.0375  0.1947 -0.2365
  896loPI   C5A13323  13.794  15.119   7.478 -0.1851 -0.2557 -0.0697
  896loPI   C6A13324  13.878  14.870   7.717  0.0198 -0.1965  0.1215
  896loPI   C1B13325  13.715  15.078   6.168 -0.2101 -0.0882 -0.1871
  896loPI   C2B13326  13.694  15.016   6.618 -0.1509  0.0376  0.3030
  896loPI   C3B13327  13.547  14.981   6.998 -0.0688 -0.0437  0.0236
  896loPI   C4B13328  13.430  14.811   7.413  0.2809  0.1137  0.0905
  897loPI    C113329   9.597   3.907   4.964  0.0588  0.3314  0.1182
  897loPI    C213330   9.538   3.879   4.570  0.0335 -0.2177  0.1524
  897loPI    C313331   9.835   4.107   4.712 -0.0330  0.0815 -0.1730
  897loPI   PO413332   9.372   3.902   5.080  0.2219 -0.0159 -0.0023
  897loPI   GL113333   9.144   4.118   5.479 -0.1804  0.1056 -0.0827
  897loPI   GL213334   8.782   4.232   5.522 -0.2182  0.2458 -0.2385
  897loPI   C1A13335   9.107   4.266   5.953 -0.2418 -0.1523  0.0890
  897loPI   C2A13336   9.015   4.349   6.495  0.0398  0.0751  0.1535
  897loPI   C3A13337   9.084   4.380   6.947  0.0661  0.2816 -0.1676
  897loPI   C4A13338   8.864   4.172   7.319 -0.3557 -0.0618 -0.4475
  897loPI   C5A13339   8.802   4.217   7.769 -0.1509  0.0735 -0.3170
  897loPI   C6A13340   8.742   3.958   8.100  0.0661  0.0603  0.2659
  897loPI   C1B13341   8.624   4.328   5.868  0.1167 -0.2192  0.0996
  897loPI   C2B13342   8.655   4.483   6.157 -0.5673  0.3834 -0.0434
  897loPI   C3B13343   8.553   4.508   6.549  0.2369 -0.3225  0.1024
  897loPI   C4B13344   8.620   4.500   7.015  0.4509  0.0684 -0.2432
  898loPI    C113345   8.411   2.625   4.964  0.1103  0.0911 -0.0944
  898loPI    C213346   8.479   2.914   4.695  0.0443  0.1748 -0.0217
  898loPI    C313347   8.370   2.549   4.573  0.0591  0.2000 -0.1108
  898loPI   PO413348   8.512   2.692   5.235 -0.2653  0.3519  0.1932
  898loPI   GL113349   8.544   2.540   5.662 -0.1248  0.0673 -0.0101
  898loPI   GL213350   8.261   2.438   5.677 -0.0045  0.1606  0.4433
  898loPI   C1A13351   8.605   2.494   6.124  0.0691 -0.0447 -0.3617
  898loPI   C2A13352   8.590   2.550   6.489 -0.1337  0.3948 -0.0613
  898loPI   C3A13353   8.724   2.702   6.891  0.0067 -0.1257 -0.0610
  898loPI   C4A13354   8.730   2.968   7.144  0.0271  0.1824 -0.1390
  898loPI   C5A13355   8.855   3.432   7.362  0.2842  0.3118 -0.0687
  898loPI   C6A13356   8.875   3.726   7.659  0.0511 -0.3615 -0.0806
  898loPI   C1B13357   8.098   2.485   6.042 -0.2168 -0.1323 -0.3445
  898loPI   C2B13358   8.085   2.579   6.465  0.1132 -0.0839 -0.2114
  898loPI   C3B13359   8.260   2.418   6.862 -0.0160 -0.0291 -0.0351
  898loPI   C4B13360   8.414   2.315   7.287 -0.1232  0.3255  0.1276
  899loPI    C113361   6.943   3.653   5.151  0.0093 -0.1430 -0.0024
  899loPI    C213362   7.164   3.403   4.930 -0.0158 -0.0476 -0.1370
  899loPI    C313363   7.101   3.777   4.805 -0.3613 -0.1123 -0.1646
  899loPI   PO413364   7.032   3.583   5.394 -0.1582  0.1765  0.1941
  899loPI   GL113365   6.701   3.755   5.791 -0.1112  0.0085 -0.1685
  899loPI   GL213366   6.362   3.847   5.760 -0.1112  0.2590  0.0357
  899loPI   C1A13367   6.608   3.755   6.240  0.0989  0.1089  0.3941
  899loPI   C2A13368   6.345   3.621   6.532 -0.0449 -0.1600  0.2606
  899loPI   C3A13369   6.115   3.653   6.878 -0.4512  0.1075  0.0251
  899loPI   C4A13370   5.961   3.799   7.307 -0.0759  0.0909 -0.0810
  899loPI   C5A13371   5.729   4.077   7.591  0.2903  0.1419  0.2950
  899loPI   C6A13372   5.373   4.230   7.461  0.2925 -0.0336  0.3099
  899loPI   C1B13373   6.337   4.161   6.175  0.0520 -0.0713 -0.1311
  899loPI   C2B13374   6.056   4.090   6.669 -0.1998  0.3541  0.0024
  899loPI   C3B13375   6.336   4.044   7.062 -0.2099 -0.1555  0.1300
  899loPI   C4B13376   6.444   3.740   7.396 -0.1718 -0.2311 -0.1984
  900loPI    C113377   1.946  12.020   5.295 -0.1816 -0.1914  0.0858
  900loPI    C213378   1.709  11.974   4.976  0.2459 -0.0282 -0.2661
  900loPI    C313379   1.688  12.309   5.194 -0.0404 -0.1360 -0.1215
  900loPI   PO413380   1.924  11.865   5.404 -0.0534 -0.1416 -0.0125
  900loPI   GL113381   1.856  11.560   5.749 -0.2583 -0.3547  0.2620
  900loPI   GL213382   2.103  11.687   5.858  0.3491 -0.3172 -0.1743
  900loPI   C1A13383   1.667  11.795   6.044  0.1053  0.2231 -0.0504
  900loPI   C2A13384   1.664  11.955   6.545 -0.2995  0.1694 -0.0551
  900loPI   C3A13385   1.743  11.818   6.979 -0.0034 -0.0859  0.1291
  900loPI   C4A13386   1.876  11.691   7.463  0.0722  0.2780  0.2587
  900loPI   C5A13387   1.792  11.721   7.966 -0.2892  0.0571  0.1777
  900loPI   C6A13388   1.912  11.413   8.310 -0.0696  0.1259 -0.0861
  900loPI   C1B13389   2.114  11.766   6.307 -0.0214 -0.1409  0.0633
  900loPI   C2B13390   2.256  11.855   6.809 -0.0283  0.0609 -0.1437
  900loPI   C3B13391   2.260  11.821   7.242 -0.1469 -0.1116  0.0272
  900loPI   C4B13392   2.322  11.900   7.723 -0.0257  0.0742 -0.0605
  901loPI    C113393  10.431  10.593   4.679  0.1919 -0.0308 -0.0178
  901loPI    C213394  10.737  10.827   4.572  0.0843  0.1157 -0.0084
  901loPI    C313395  10.370  10.981   4.604 -0.0146 -0.0864 -0.1449
  901loPI   PO413396  10.464  10.472   4.869  0.2389 -0.3843  0.0006
  901loPI   GL113397  10.456  10.576   5.381 -0.0503  0.2260  0.1607
  901loPI   GL213398  10.502  10.167   5.427  0.4431 -0.2624 -0.0432
  901loPI   C1A13399  10.446  10.793   5.811 -0.1583 -0.2687 -0.1356
  901loPI   C2A13400  10.350  10.904   6.285 -0.1444  0.1898 -0.0256
  901loPI   C3A13401  10.207  11.212   6.526  0.0617 -0.0299 -0.2939
  901loPI   C4A13402  10.241  11.314   6.955 -0.0627 -0.0355  0.0059
  901loPI   C5A13403  10.185  10.992   7.404  0.1003  0.2484  0.0454
  901loPI   C6A13404   9.839  10.727   7.631 -0.2049  0.0587 -0.0348
  901loPI   C1B13405  10.223  10.251   5.804  0.1314 -0.0343  0.2794
  901loPI   C2B13406  10.092  10.334   6.325  0.2418 -0.1898  0.3646
  901loPI   C3B13407  10.063  10.385   6.740 -0.0744 -0.2274 -0.5763
  901loPI   C4B13408  10.098  10.548   7.156 -0.0530 -0.1714 -0.0103
  902loPI    C113409   1.056   6.863   4.684  0.1320 -0.1138  0.0843
  902loPI    C213410   1.058   6.769   4.295 -0.0698 -0.1667  0.0949
  902loPI    C313411   0.758   6.986   4.447  0.0761 -0.0331  0.1958
  902loPI   PO413412   0.987   6.720   4.836  0.0828  0.2190 -0.3481
  902loPI   GL113413   1.107   6.702   5.241  0.2884  0.1211 -0.2653
  902loPI   GL213414   0.832   6.470   5.233  0.0357  0.0395  0.0662
  902loPI   C1A13415   0.944   6.712   5.620  0.1319 -0.0530 -0.0159
  902loPI   C2A13416   0.723   6.631   5.923 -0.4191  0.2275 -0.0630
  902loPI   C3A13417   0.585   6.513   6.277  0.4394  0.0604  0.0767
  902loPI   C4A13418   0.542   6.359   6.640  0.0564 -0.1655 -0.2695
  902loPI   C5A13419   0.452   6.238   7.065 -0.0550 -0.0888  0.1219
  902loPI   C6A13420   0.467   6.203   7.457 -0.1732 -0.1780 -0.3394
  902loPI   C1B13421   0.882   6.203   5.566  0.1917 -0.0001 -0.0537
  902loPI   C2B13422   0.979   6.148   5.969 -0.0083 -0.2513 -0.1259
  902loPI   C3B13423   0.994   6.274   6.357 -0.0823  0.0252 -0.1272
  902loPI   C4B13424   1.011   6.355   6.844  0.2442 -0.2090  0.2329
  903loPI    C113425  12.534  15.451   5.372 -0.0876 -0.0407  0.0272
  903loPI    C213426  12.655  15.590   5.017 -0.0971 -0.0915  0.0040
  903loPI    C313427  12.284  15.448   5.060 -0.0922 -0.0960  0.0313
  903loPI   PO413428  12.685  15.605   5.545  0.5143  0.0212 -0.0262
  903loPI   GL113429  12.812  15.604   5.984 -0.2623 -0.1710  0.0518
  903loPI   GL213430  12.609  15.287   5.927  0.1250 -0.0367  0.1782
  903loPI   C1A13431  13.054  15.720   6.199 -0.0623  0.1816  0.0681
  903loPI   C2A13432  12.979  15.678   6.572  0.2088  0.0421  0.2300
  903loPI   C3A13433  12.872  15.610   6.986 -0.1060  0.2210  0.1031
  903loPI   C4A13434  12.850  15.624   7.436  0.0501 -0.3860  0.0844
  903loPI   C5A13435  12.649  15.512   7.839  0.3532 -0.2645  0.0823
  903loPI   C6A13436  12.400  15.910   8.007 -0.0240  0.1854 -0.2467
  903loPI   C1B13437  12.821  15.268   6.319 -0.3543  0.1774  0.2118
  903loPI   C2B13438  12.920  15.165   6.755 -0.2307 -0.0357  0.1485
  903loPI   C3B13439  13.110  15.230   7.189 -0.2675 -0.0392 -0.2169
  903loPI   C4B13440  13.164  15.235   7.675 -0.0038 -0.1314  0.0090
  904loPI    C113441  16.753   1.546   4.832 -0.1267 -0.1721  0.1382
  904loPI    C213442  16.964   1.339   4.563 -0.0946 -0.2890  0.2520
  904loPI    C313443  17.028   1.731   4.609  0.0394 -0.3077  0.2280
  904loPI   PO413444  16.752   1.413   5.056  0.1007  0.3117  0.4418
  904loPI   GL113445  16.598   1.498   5.444  0.2786  0.2109  0.2417
  904loPI   GL213446  16.810   1.718   5.408  0.1094 -0.0260  0.1057
  904loPI   C1A13447  16.289   1.477   5.817 -0.0624  0.2218 -0.1408
  904loPI   C2A13448  16.238   1.340   6.175  0.0538 -0.1049 -0.0632
  904loPI   C3A13449  16.128   1.315   6.635  0.0854  0.1016 -0.4824
  904loPI   C4A13450  16.228   1.440   7.013 -0.0122 -0.0818 -0.1441
  904loPI   C5A13451  16.390   1.704   7.231  0.3339  0.0218 -0.0142
  904loPI   C6A13452  16.607   2.013   6.998  0.2282  0.0407  0.0606
  904loPI   C1B13453  16.874   1.713   5.848  0.2110  0.2872  0.1485
  904loPI   C2B13454  16.929   1.766   6.300  0.0735  0.0321 -0.0420
  904loPI   C3B13455  17.142   1.805   6.634  0.3579  0.1836 -0.4690
  904loPI   C4B13456  17.074   1.952   7.006  0.1952  0.1259 -0.1400
  905loPI    C113457  11.433  17.076   5.316 -0.0337 -0.3339 -0.1216
  905loPI    C213458  11.671  17.210   5.024 -0.1004 -0.0854 -0.0643
  905loPI    C313459  11.358  16.978   4.936 -0.1797  0.0723 -0.2027
  905loPI   PO413460  11.530  17.245   5.508 -0.0688 -0.0065 -0.2220
  905loPI   GL113461  11.408  17.342   5.864  0.0072  0.0715 -0.2994
  905loPI   GL213462  11.680  17.641   5.860  0.0190  0.0682 -0.0473
  905loPI   C1A13463  11.556  17.347   6.320  0.1782  0.0838  0.3086
  905loPI   C2A13464  11.604  17.193   6.723 -0.0863 -0.0132  0.2778
  905loPI   C3A13465  11.681  17.088   7.131  0.1514 -0.0769 -0.0005
  905loPI   C4A13466  11.543  17.136   7.512  0.0337 -0.0595  0.4831
  905loPI   C5A13467  11.483  16.913   7.956  0.2509  0.0872  0.1040
  905loPI   C6A13468  11.385  16.797   8.378  0.0200  0.1024 -0.0784
  905loPI   C1B13469  11.945  17.535   6.163 -0.2224 -0.1909  0.2722
  905loPI   C2B13470  12.021  17.328   6.544  0.0294  0.0456  0.3012
  905loPI   C3B13471  12.085  17.191   6.933  0.0999 -0.1654 -0.0924
  905loPI   C4B13472  12.083  17.283   7.342 -0.0620 -0.0553 -0.3013
  906loPI    C113473   1.588   7.583   4.654 -0.1194  0.1794 -0.2431
  906loPI    C213474   1.929   7.400   4.754 -0.1559  0.4365  0.3958
  906loPI    C313475   1.923   7.655   4.447  0.1572  0.2235  0.2060
  906loPI   PO413476   1.451   7.611   4.985  0.1691 -0.1824 -0.0330
  906loPI   GL113477   1.462   7.504   5.403 -0.2080  0.1187  0.0829
  906loPI   GL213478   1.110   7.588   5.420 -0.2435  0.0322 -0.0647
  906loPI   C1A13479   1.614   7.419   5.772  0.3299 -0.2096  0.1400
  906loPI   C2A13480   1.611   7.577   6.173 -0.0805  0.0159  0.3742
  906loPI   C3A13481   1.669   7.596   6.592 -0.0272  0.0134  0.1890
  906loPI   C4A13482   1.757   7.579   6.949 -0.0150 -0.0472  0.2183
  906loPI   C5A13483   1.886   7.390   7.398  0.2851 -0.0090  0.1390
  906loPI   C6A13484   2.041   7.135   7.675  0.3115  0.2717 -0.1462
  906loPI   C1B13485   1.140   7.673   5.909 -0.1596 -0.1376  0.2682
  906loPI   C2B13486   1.073   7.589   6.302 -0.0672  0.0704 -0.2132
  906loPI   C3B13487   1.168   7.330   6.551 -0.0508 -0.2204  0.2189
  906loPI   C4B13488   1.324   7.263   6.988  0.1503 -0.1635 -0.1979
  907loPI    C113489  17.667  15.707   5.285 -0.2263  0.0483  0.0235
  907loPI    C213490  17.888  15.388   5.187 -0.1092  0.0760  0.1937
  907loPI    C313491  17.787  15.655   4.907  0.0695  0.0603  0.1133
  907loPI   PO413492  17.496  15.656   5.444 -0.2634 -0.1458  0.0818
  907loPI   GL113493  17.431  15.764   5.865 -0.1379 -0.0288  0.1733
  907loPI   GL213494  17.714  15.983   6.133 -0.2593 -0.0558  0.0090
  907loPI   C1A13495  17.278  15.694   6.362  0.0323  0.0217  0.0832
  907loPI   C2A13496  17.427  15.872   6.827  0.3244  0.2663  0.1510
  907loPI   C3A13497  17.492  15.827   7.264 -0.1559 -0.1218  0.2674
  907loPI   C4A13498  17.585  15.883   7.723 -0.2272  0.2310 -0.0436
  907loPI   C5A13499  17.768  16.034   8.106  0.1594 -0.1098 -0.0690
  907loPI   C6A13500  17.797  16.272   8.340 -0.1319  0.1332 -0.1087
  907loPI   C1B13501  17.813  15.858   6.576 -0.0342 -0.0092 -0.0931
  907loPI   C2B13502  17.931  15.863   6.927 -0.0181  0.3105 -0.0195
  907loPI   C3B13503  18.032  15.774   7.389  0.1211 -0.0956  0.1234
  907loPI   C4B13504  18.109  16.012   7.692 -0.1788 -0.2517  0.3062
  908loPI    C113505  17.409   4.062   4.953  0.0117 -0.1414 -0.2978
  908loPI    C213506  17.662   4.176   4.664  0.0187  0.2763 -0.1339
  908loPI    C313507  17.286   4.312   4.666  0.0108  0.2540  0.0393
  908loPI   PO413508  17.643   3.917   5.190  0.1600  0.0136  0.4777
  908loPI   GL113509  17.840   4.274   5.402  0.3973  0.0627  0.2342
  908loPI   GL213510  18.075   4.161   5.454  0.0495  0.2035 -0.0321
  908loPI   C1A13511  17.552   4.128   5.769 -0.5294  0.2675 -0.2012
  908loPI   C2A13512  17.252   4.131   6.074  0.1723 -0.2023  0.1871
  908loPI   C3A13513  17.471   3.916   6.402 -0.2653  0.0714  0.0389
  908loPI   C4A13514  17.699   3.850   6.749  0.3412 -0.1048  0.2637
  908loPI   C5A13515  17.737   3.528   7.097 -0.0981  0.1898 -0.0628
  908loPI   C6A13516  17.882   3.206   7.369 -0.1763  0.3765 -0.0725
  908loPI   C1B13517  18.044   4.014   5.912  0.1896 -0.1252 -0.3811
  908loPI   C2B13518  17.967   3.839   6.328  0.1287  0.1311  0.4150
  908loPI   C3B13519  18.051   3.480   6.562 -0.0297 -0.1007  0.0382
  908loPI   C4B13520  18.129   3.238   6.925 -0.5183  0.3611  0.0058
  909loPI    C113521   4.737   1.647   5.352 -0.0645  0.0369  0.0615
  909loPI    C213522   4.504   1.410   5.130  0.2190 -0.0771 -0.1201
  909loPI    C313523   4.825   1.584   4.967  0.3486 -0.0441  0.1645
  909loPI   PO413524   4.672   1.860   5.430 -0.0717  0.0479  0.2920
  909loPI   GL113525   4.639   2.019   5.812 -0.3038  0.0350 -0.2333
  909loPI   GL213526   4.890   1.761   5.868  0.1973  0.3287  0.0292
  909loPI   C1A13527   4.610   2.162   6.174 -0.2396  0.0874  0.0393
  909loPI   C2A13528   4.570   2.338   6.592  0.2586  0.1117  0.0328
  909loPI   C3A13529   4.594   2.553   6.974  0.0272 -0.0649 -0.3871
  909loPI   C4A13530   4.683   2.796   7.402  0.2476 -0.1151  0.1702
  909loPI   C5A13531   5.055   3.026   7.468  0.2427  0.1391 -0.0368
  909loPI   C6A13532   5.363   3.064   7.656 -0.2557 -0.0332 -0.0384
  909loPI   C1B13533   5.225   1.879   6.131  0.0515  0.0705 -0.2058
  909loPI   C2B13534   5.406   1.805   6.525  0.0852  0.1606 -0.0500
  909loPI   C3B13535   5.657   1.970   6.851 -0.0136  0.1263 -0.1940
  909loPI   C4B13536   5.552   1.754   7.203  0.1156 -0.0059  0.0064
  910loPI    C113537   0.165  15.971   5.258  0.1992  0.0174  0.0832
  910loPI    C213538   0.086  15.586   5.184 -0.2013  0.0850  0.1347
  910loPI    C313539  -0.010  15.865   4.914  0.2113  0.1407  0.0385
  910loPI   PO413540   0.036  16.034   5.454  0.1855  0.1085 -0.0206
  910loPI   GL113541   0.190  16.036   5.826 -0.1910 -0.2276  0.5108
  910loPI   GL213542   0.327  15.828   6.154 -0.2367  0.0932 -0.1745
  910loPI   C1A13543  -0.167  16.075   6.091 -0.2195 -0.1353  0.2306
  910loPI   C2A13544  -0.247  15.917   6.505 -0.1604  0.0667 -0.1338
  910loPI   C3A13545  -0.170  16.017   6.908  0.0689 -0.2554 -0.1263
  910loPI   C4A13546  -0.141  16.046   7.292 -0.3656  0.0609 -0.6193
  910loPI   C5A13547  -0.041  16.343   7.673  0.3615  0.1557 -0.0217
  910loPI   C6A13548  -0.001  16.811   7.823 -0.3811 -0.0152  0.0855
  910loPI   C1B13549   0.265  16.106   6.430 -0.1138  0.1905 -0.1047
  910loPI   C2B13550  -0.048  16.374   6.625  0.1224 -0.0654 -0.1157
  910loPI   C3B13551  -0.071  16.524   7.046 -0.1774 -0.1307 -0.1065
  910loPI   C4B13552   0.361  16.650   7.229 -0.2774  0.0679  0.0465
  911loPI    C113553   4.151   4.622   4.659 -0.0166  0.1208  0.1407
  911loPI    C213554   3.964   4.517   4.321 -0.2319  0.1444  0.2512
  911loPI    C313555   4.082   4.895   4.375  0.1629  0.0579  0.0343
  911loPI   PO413556   4.015   4.562   4.855 -0.3508 -0.0450  0.0994
  911loPI   GL113557   3.830   4.740   5.203 -0.1331 -0.3084 -0.1283
  911loPI   GL213558   4.098   4.518   5.441 -0.2089 -0.1135 -0.1059
  911loPI   C1A13559   3.754   4.888   5.616 -0.3107 -0.1115 -0.0139
  911loPI   C2A13560   4.010   5.274   5.825 -0.0621 -0.0095  0.0910
  911loPI   C3A13561   4.123   5.605   6.136  0.0191 -0.2792  0.3945
  911loPI   C4A13562   4.196   5.919   6.482  0.2681 -0.1683 -0.1231
  911loPI   C5A13563   4.047   6.172   6.850  0.1134  0.0537  0.0091
  911loPI   C6A13564   3.722   6.485   6.902  0.0187 -0.1732 -0.2493
  911loPI   C1B13565   4.103   4.622   5.857 -0.0951 -0.1405  0.0727
  911loPI   C2B13566   4.251   4.605   6.349 -0.1489 -0.2247 -0.1166
  911loPI   C3B13567   4.408   4.344   6.806  0.2661 -0.0122 -0.1246
  911loPI   C4B13568   4.600   4.359   7.236 -0.1256 -0.3875  0.1270
  912loPI    C113569   9.195   0.258   5.137 -0.0971 -0.1402 -0.0009
  912loPI    C213570   9.031   0.137   4.793  0.0902 -0.1063 -0.1037
  912loPI    C313571   9.390   0.313   4.792  0.0871 -0.0960  0.1086
  912loPI   PO413572   9.267   0.107   5.316 -0.1032 -0.0080 -0.0573
  912loPI   GL113573   9.494   0.121   5.697 -0.2723  0.1416 -0.0697
  912loPI   GL213574   9.198   0.274   5.852 -0.0788  0.2033  0.2865
  912loPI   C1A13575   9.608   0.099   6.167  0.1669 -0.2263  0.1965
  912loPI   C2A13576   9.704   0.010   6.588  0.1161 -0.1803 -0.2638
  912loPI   C3A13577   9.838   0.019   7.118 -0.0522 -0.0545  0.2470
  912loPI   C4A13578   9.862  -0.212   7.515  0.1464 -0.0196 -0.0055
  912loPI   C5A13579   9.841  -0.284   7.909 -0.4455  0.0360  0.2142
  912loPI   C6A13580   9.763  -0.682   8.108  0.0833  0.0762 -0.2282
  912loPI   C1B13581   9.163   0.347   6.203 -0.1363  0.2290 -0.0463
  912loPI   C2B13582   9.156   0.195   6.462 -0.2226 -0.0898  0.1707
  912loPI   C3B13583   9.114   0.175   6.747  0.0544  0.0191  0.0847
  912loPI   C4B13584   8.976   0.140   7.189 -0.0128 -0.0419  0.0010
  913loPI    C113585   6.872   6.619   5.216 -0.2370  0.3587 -0.0211
  913loPI    C213586   7.173   6.875   5.151 -0.0647  0.1176 -0.1917
  913loPI    C313587   6.873   6.847   4.888  0.0100  0.0150 -0.2666
  913loPI   PO413588   6.968   6.444   5.315 -0.1247 -0.0382  0.2962
  913loPI   GL113589   7.328   6.451   5.553  0.1448 -0.1777 -0.1380
  913loPI   GL213590   7.176   6.700   5.628 -0.0691 -0.2180  0.0796
  913loPI   C1A13591   7.514   6.347   5.841  0.0984  0.2095  0.0559
  913loPI   C2A13592   7.426   6.268   6.296 -0.0070 -0.0081  0.1059
  913loPI   C3A13593   7.170   6.184   6.630  0.1540 -0.2493  0.0177
  913loPI   C4A13594   6.788   6.231   6.972  0.0490  0.0136  0.3712
  913loPI   C5A13595   6.458   6.030   7.254  0.0973 -0.1224 -0.2679
  913loPI   C6A13596   6.184   5.699   7.520 -0.0982  0.0412  0.0951
  913loPI   C1B13597   7.135   6.682   6.073 -0.3251  0.2860 -0.0483
  913loPI   C2B13598   7.216   6.708   6.509  0.0498 -0.0929  0.0934
  913loPI   C3B13599   7.182   6.733   6.944 -0.0491 -0.1967  0.1428
  913loPI   C4B13600   6.774   6.838   7.300 -0.2302  0.1871  0.4891
  914loPI    C113601  16.051  13.571   5.431  0.0721 -0.0191  0.0196
  914loPI    C213602  16.361  13.368   5.280  0.1353  0.0497  0.0560
  914loPI    C313603  16.312  13.754   5.189  0.1439  0.0778  0.1689
  914loPI   PO413604  16.148  13.505   5.704 -0.2668 -0.1217 -0.1641
  914loPI   GL113605  16.039  13.525   6.041 -0.0952 -0.2087  0.2091
  914loPI   GL213606  15.793  13.504   6.129  0.0987 -0.1307 -0.1975
  914loPI   C1A13607  16.182  13.756   6.407 -0.1112  0.0115 -0.1607
  914loPI   C2A13608  16.114  13.888   6.807  0.0341 -0.1103  0.1212
  914loPI   C3A13609  15.872  13.916   7.199  0.0601  0.0757 -0.0142
  914loPI   C4A13610  15.765  13.814   7.564  0.1127  0.0922 -0.1095
  914loPI   C5A13611  15.748  13.766   7.981 -0.0306 -0.1994  0.0454
  914loPI   C6A13612  15.993  13.940   8.321 -0.3603  0.0030  0.1115
  914loPI   C1B13613  15.695  13.640   6.483  0.0718  0.1543 -0.0036
  914loPI   C2B13614  15.692  13.540   6.935 -0.0631  0.0652 -0.0580
  914loPI   C3B13615  15.634  13.365   7.302 -0.3176 -0.2854  0.0537
  914loPI   C4B13616  15.581  13.265   7.774 -0.2743 -0.0632  0.1422
  915loPI    C113617  12.144  18.085   5.251  0.0432 -0.3544  0.1778
  915loPI    C213618  12.452  17.903   5.073  0.0803 -0.0293 -0.1018
  915loPI    C313619  12.142  18.030   4.854 -0.1333 -0.1194  0.1439
  915loPI   PO413620  12.138  17.892   5.509  0.0833 -0.2653  0.3145
  915loPI   GL113621  12.460  17.819   5.768 -0.1549  0.2924 -0.1174
  915loPI   GL213622  12.319  17.511   5.854 -0.2693 -0.0840 -0.0609
  915loPI   C1A13623  12.553  17.880   6.153 -0.0362  0.0327 -0.4048
  915loPI   C2A13624  12.585  18.013   6.600 -0.1241 -0.1203 -0.3228
  915loPI   C3A13625  12.465  18.072   7.011  0.1769  0.2624 -0.0148
  915loPI   C4A13626  12.381  18.310   7.438 -0.3930 -0.2692 -0.2602
  915loPI   C5A13627  12.403  18.590   7.786  0.2063  0.2019  0.1410
  915loPI   C6A13628  12.357  18.667   8.221 -0.1234 -0.1674  0.1866
  915loPI   C1B13629  12.409  17.475   6.279  0.0003  0.1279  0.0875
  915loPI   C2B13630  12.489  17.474   6.738  0.0195  0.1573 -0.1640
  915loPI   C3B13631  12.510  17.562   7.170  0.4740 -0.4251  0.0287
  915loPI   C4B13632  12.719  17.848   7.525 -0.0317 -0.1400 -0.0420
  916loPI    C113633  10.101  16.998   5.301 -0.0100 -0.0961  0.2179
  916loPI    C213634  10.112  16.795   4.957 -0.0744  0.1366  0.0765
  916loPI    C313635  10.408  17.048   5.050 -0.0942  0.1301  0.1572
  916loPI   PO413636   9.851  16.836   5.409  0.2142 -0.4791 -0.2621
  916loPI   GL113637   9.630  16.941   5.744  0.0463 -0.1550 -0.0940
  916loPI   GL213638   9.799  16.691   5.884  0.0758 -0.0970 -0.1139
  916loPI   C1A13639   9.525  16.924   6.253  0.0256  0.1720  0.0010
  916loPI   C2A13640   9.517  16.908   6.722  0.2378 -0.0573  0.2208
  916loPI   C3A13641   9.399  17.027   7.028 -0.2334 -0.0176  0.0010
  916loPI   C4A13642   9.223  17.113   7.392  0.0707  0.1832 -0.4429
  916loPI   C5A13643   9.309  17.343   7.672  0.2207 -0.1016  0.0439
  916loPI   C6A13644   9.032  17.718   7.646 -0.1947  0.2921  0.0357
  916loPI   C1B13645  10.034  16.784   6.200 -0.1607 -0.1116  0.2467
  916loPI   C2B13646   9.991  16.973   6.605  0.2238  0.0239 -0.0526
  916loPI   C3B13647   9.905  17.095   7.029  0.2053 -0.1705  0.0325
  916loPI   C4B13648   9.721  17.016   7.393  0.2676  0.2025  0.1024
  917loPI    C113649  18.483   0.023   5.106  0.3280  0.1315 -0.0971
  917loPI    C213650  18.161   0.145   4.901  0.2116  0.2901  0.1748
  917loPI    C313651  18.420  -0.111   4.734 -0.0571  0.1566 -0.0452
  917loPI   PO413652  18.508  -0.125   5.314  0.1788  0.3416  0.0884
  917loPI   GL113653  18.457  -0.093   5.839  0.0427 -0.1060 -0.1360
  917loPI   GL213654  18.183  -0.268   5.751 -0.2517 -0.1454 -0.0419
  917loPI   C1A13655  18.786  -0.138   6.077 -0.2555  0.1475 -0.2455
  917loPI   C2A13656  18.953  -0.313   6.361 -0.1630  0.1896  0.1965
  917loPI   C3A13657  18.835  -0.529   6.634 -0.0318  0.0284  0.1024
  917loPI   C4A13658  19.041  -0.623   7.071  0.0907 -0.0681 -0.0806
  917loPI   C5A13659  19.044  -0.397   7.539  0.2106  0.2007 -0.1813
  917loPI   C6A13660  18.829  -0.227   7.906 -0.2075 -0.0271 -0.0374
  917loPI   C1B13661  17.994  -0.101   6.079 -0.2760  0.2095  0.2918
  917loPI   C2B13662  17.654   0.084   6.280  0.2003  0.1849  0.0067
  917loPI   C3B13663  17.594   0.195   6.726 -0.0066  0.0029 -0.3652
  917loPI   C4B13664  17.502   0.055   7.161 -0.0785 -0.0586  0.0372
  918loPI    C113665   9.678   3.297   5.041 -0.0214 -0.0019 -0.1771
  918loPI    C213666   9.406   3.415   5.310  0.1768 -0.1284  0.0833
  918loPI    C313667   9.320   3.429   4.919 -0.2016 -0.1647  0.1616
  918loPI   PO413668   9.816   3.067   5.279 -0.1070  0.3739 -0.0446
  918loPI   GL113669   9.798   2.825   5.524  0.2310 -0.2115  0.3074
  918loPI   GL213670  10.063   3.000   5.674 -0.0629  0.2788 -0.0168
  918loPI   C1A13671   9.744   2.910   6.022  0.2579  0.2069  0.0644
  918loPI   C2A13672   9.783   3.039   6.383 -0.2430  0.3168 -0.2348
  918loPI   C3A13673   9.704   2.977   6.759  0.0739 -0.0226 -0.0456
  918loPI   C4A13674   9.508   2.662   7.108  0.2710  0.0436  0.3603
  918loPI   C5A13675   9.067   2.490   7.179 -0.2214 -0.0556  0.0414
  918loPI   C6A13676   8.798   2.577   7.553 -0.0936  0.1765  0.3895
  918loPI   C1B13677  10.265   2.980   6.134  0.1883  0.0881 -0.0143
  918loPI   C2B13678  10.259   3.068   6.564 -0.2846  0.0052  0.0975
  918loPI   C3B13679  10.122   2.912   6.944 -0.1397  0.1889 -0.0813
  918loPI   C4B13680   9.984   3.023   7.315  0.2869  0.5065 -0.2864
  919loPI    C113681   4.691  13.731   5.507 -0.0680  0.2882 -0.1191
  919loPI    C213682   4.825  13.700   5.131  0.1233 -0.0760 -0.0262
  919loPI    C313683   5.059  13.859   5.414  0.1384 -0.1806  0.0204
  919loPI   PO413684   4.463  13.863   5.496 -0.0620 -0.0059 -0.2749
  919loPI   GL113685   4.232  13.921   5.848 -0.1650 -0.1528  0.0165
  919loPI   GL213686   3.842  14.120   5.863 -0.1188 -0.1291  0.0216
  919loPI   C1A13687   4.465  13.766   6.198  0.0109  0.0781 -0.1809
  919loPI   C2A13688   4.359  13.635   6.612 -0.0833  0.1946 -0.0136
  919loPI   C3A13689   4.319  13.512   6.939  0.2896 -0.1373 -0.2623
  919loPI   C4A13690   4.535  13.713   7.276  0.1053 -0.5071  0.0583
  919loPI   C5A13691   4.870  13.939   7.288  0.1550  0.0741  0.1007
  919loPI   C6A13692   5.278  14.191   7.272 -0.0628  0.1055  0.0682
  919loPI   C1B13693   3.885  13.841   6.200 -0.0132 -0.1364 -0.0082
  919loPI   C2B13694   3.893  13.599   6.418  0.1122  0.0098 -0.0864
  919loPI   C3B13695   3.789  13.439   6.800 -0.1832  0.2108 -0.2307
  919loPI   C4B13696   3.926  13.178   7.179  0.2480  0.3512  0.1823
  920loPI    C113697   7.632   8.681   5.032 -0.2990  0.0943  0.2070
  920loPI    C213698   7.341   8.694   4.757 -0.1814  0.0713  0.0805
  920loPI    C313699   7.706   8.832   4.669 -0.0455 -0.2629  0.1049
  920loPI   PO413700   7.481   8.711   5.283 -0.0372  0.3320  0.0425
  920loPI   GL113701   7.389   8.824   5.702 -0.2564  0.0713 -0.0182
  920loPI   GL213702   7.595   9.032   5.643  0.3943 -0.3116  0.0594
  920loPI   C1A13703   7.406   8.718   6.145  0.2166  0.2174 -0.1773
  920loPI   C2A13704   7.329   8.626   6.674  0.0457  0.1471 -0.1132
  920loPI   C3A13705   7.333   8.699   7.136 -0.1016 -0.2407  0.0867
  920loPI   C4A13706   7.099   8.792   7.511  0.2854 -0.1149 -0.0381
  920loPI   C5A13707   6.738   8.926   7.826 -0.0535  0.1104 -0.3039
  920loPI   C6A13708   6.347   8.953   7.830  0.3780  0.2509  0.1689
  920loPI   C1B13709   7.582   9.242   6.031  0.0462 -0.1250 -0.0108
  920loPI   C2B13710   7.348   9.401   6.307 -0.0454 -0.0325  0.2951
  920loPI   C3B13711   7.222   9.574   6.688  0.2217  0.2316 -0.1366
  920loPI   C4B13712   7.271   9.587   7.135  0.1071  0.0534  0.0171
  921loPI    C113713   8.879   0.653   5.267 -0.0278 -0.0782  0.1795
  921loPI    C213714   8.927   0.638   4.870  0.0683  0.1514  0.1806
  921loPI    C313715   8.666   0.393   5.049  0.1410 -0.0657 -0.0041
  921loPI   PO413716   9.097   0.724   5.400 -0.2720  0.1557  0.1394
  921loPI   GL113717   9.305   0.768   5.774 -0.2028  0.0299 -0.2362
  921loPI   GL213718   9.210   1.114   5.789 -0.3150  0.0049 -0.1110
  921loPI   C1A13719   9.624   0.564   6.040  0.1481 -0.1348 -0.0678
  921loPI   C2A13720   9.684   0.517   6.414  0.2519  0.3474  0.0105
  921loPI   C3A13721   9.523   0.487   6.782  0.3050 -0.1740 -0.1333
  921loPI   C4A13722   9.446   0.358   7.150  0.0638  0.1168 -0.1153
  921loPI   C5A13723   9.715   0.400   7.531  0.0670  0.4277  0.0065
  921loPI   C6A13724  10.039   0.490   7.671 -0.1222  0.2984 -0.1523
  921loPI   C1B13725   9.100   0.850   6.201  0.1128 -0.1513  0.0967
  921loPI   C2B13726   9.060   0.661   6.667 -0.0751 -0.0530 -0.2822
  921loPI   C3B13727   9.039   0.632   7.159 -0.3811 -0.2742 -0.1433
  921loPI   C4B13728   9.114   0.726   7.503  0.3083  0.1996  0.2564
  922loPI    C113729   1.559   0.011   4.973  0.0878  0.1038  0.0634
  922loPI    C213730   1.886  -0.057   4.752  0.0366  0.4351 -0.1194
  922loPI    C313731   1.522  -0.104   4.592 -0.0140 -0.0688  0.1239
  922loPI   PO413732   1.617  -0.143   5.261  0.0581  0.1673  0.0848
  922loPI   GL113733   1.426  -0.114   5.565  0.0359 -0.2935  0.0044
  922loPI   GL213734   1.533  -0.288   5.844  0.0854  0.0151  0.1663
  922loPI   C1A13735   1.068   0.121   5.895  0.0413  0.0692 -0.1425
  922loPI   C2A13736   1.086   0.139   6.259 -0.0108  0.4385  0.1988
  922loPI   C3A13737   0.987   0.074   6.672  0.2655  0.0377 -0.2548
  922loPI   C4A13738   0.982   0.168   7.090  0.2010  0.3087  0.1294
  922loPI   C5A13739   0.743   0.409   7.387 -0.0987 -0.1075 -0.0755
  922loPI   C6A13740   0.525   0.225   7.705 -0.0082  0.0124  0.1612
  922loPI   C1B13741   1.534  -0.512   6.218 -0.0649  0.0330 -0.0745
  922loPI   C2B13742   1.322  -0.535   6.563  0.2121 -0.3242  0.0645
  922loPI   C3B13743   1.199  -0.314   6.895  0.0757  0.2565  0.0965
  922loPI   C4B13744   1.049  -0.285   7.361 -0.0553  0.2399 -0.1476
  923loPI    C113745   0.523   9.410   5.188 -0.0334 -0.0467 -0.1497
  923loPI    C213746   0.774   9.655   4.995  0.0410  0.0406  0.0553
  923loPI    C313747   0.397   9.770   5.065  0.0362  0.0401  0.0304
  923loPI   PO413748   0.628   9.367   5.380  0.1024  0.1264 -0.1279
  923loPI   GL113749   0.656   9.256   5.814  0.1497  0.1120  0.3813
  923loPI   GL213750   0.463   8.968   5.951  0.0426 -0.0726 -0.0295
  923loPI   C1A13751   0.462   9.371   6.158 -0.2208 -0.1847 -0.0234
  923loPI   C2A13752   0.309   9.326   6.550  0.1923 -0.1820 -0.0698
  923loPI   C3A13753   0.524   9.191   6.829  0.1658  0.1227  0.1893
  923loPI   C4A13754   0.529   9.222   7.270 -0.0264 -0.1349  0.1239
  923loPI   C5A13755   0.397   9.051   7.688 -0.1141  0.0510 -0.1764
  923loPI   C6A13756   0.293   9.118   8.195 -0.0016  0.1064  0.1786
  923loPI   C1B13757   0.621   8.901   6.350  0.1450  0.2016 -0.6689
  923loPI   C2B13758   0.731   8.768   6.736  0.1637 -0.1493 -0.0407
  923loPI   C3B13759   0.779   8.675   7.164 -0.0146  0.2668 -0.2883
  923loPI   C4B13760   0.599   8.598   7.607 -0.1070 -0.0398  0.0523
  924loPI    C113761  16.851   4.074   4.795  0.2477  0.0690  0.1027
  924loPI    C213762  16.968   3.854   5.108  0.1449 -0.1354 -0.0005
  924loPI    C313763  16.947   3.689   4.744  0.0673  0.0466 -0.0796
  924loPI   PO413764  16.796   4.312   4.959  0.0518  0.0836 -0.1731
  924loPI   GL113765  17.042   4.459   5.333 -0.2253 -0.0834 -0.3363
  924loPI   GL213766  17.348   4.358   5.364  0.1763 -0.1346  0.0727
  924loPI   C1A13767  17.017   4.059   5.599 -0.0311 -0.2639 -0.0199
  924loPI   C2A13768  17.011   3.673   6.018  0.2954  0.2168 -0.0515
  924loPI   C3A13769  16.799   3.859   6.403 -0.0099  0.0507  0.4359
  924loPI   C4A13770  16.874   3.803   6.819  0.1561  0.1183 -0.2765
  924loPI   C5A13771  16.851   3.996   7.256 -0.4709  0.0864 -0.3097
  924loPI   C6A13772  16.890   3.988   7.678  0.2171 -0.1740  0.0956
  924loPI   C1B13773  17.162   4.559   5.796 -0.3792  0.0826 -0.0991
  924loPI   C2B13774  17.032   4.596   6.046  0.3001  0.1137 -0.1966
  924loPI   C3B13775  17.257   4.564   6.409  0.0509  0.0626 -0.3237
  924loPI   C4B13776  17.189   4.231   6.715  0.2589 -0.0964 -0.0724
  925loPI    C113777  13.542   5.833   5.340  0.1581  0.2358 -0.0962
  925loPI    C213778  13.764   5.718   5.027  0.1884  0.0218  0.0027
  925loPI    C313779  13.469   5.483   5.160  0.1447  0.1339  0.1053
  925loPI   PO413780  13.601   5.999   5.519  0.0698  0.3479 -0.0067
  925loPI   GL113781  13.850   6.279   5.799 -0.1010 -0.1770  0.0216
  925loPI   GL213782  13.795   6.575   5.841 -0.1146 -0.0101  0.2344
  925loPI   C1A13783  13.792   6.105   6.205  0.1173  0.1550  0.0634
  925loPI   C2A13784  13.744   5.798   6.453  0.0800 -0.1843  0.0589
  925loPI   C3A13785  13.701   5.672   6.798  0.4545  0.1493  0.0373
  925loPI   C4A13786  13.573   5.735   7.263  0.0724 -0.0954 -0.0813
  925loPI   C5A13787  13.561   5.821   7.745 -0.0638 -0.0456  0.0451
  925loPI   C6A13788  13.446   6.147   8.053  0.0348 -0.1298 -0.1697
  925loPI   C1B13789  13.946   6.610   6.227  0.0855  0.0075  0.0425
  925loPI   C2B13790  13.797   6.396   6.694 -0.2185  0.0537  0.2301
  925loPI   C3B13791  13.850   6.130   7.066  0.1919  0.0186  0.1508
  925loPI   C4B13792  14.037   5.821   7.201 -0.1296  0.0980  0.0613
  926loPI    C113793  17.964  11.978   5.442  0.0321  0.0405 -0.0323
  926loPI    C213794  18.225  11.952   5.141  0.1247 -0.3573  0.0768
  926loPI    C313795  17.839  11.867   5.079  0.0396  0.0985 -0.0527
  926loPI   PO413796  18.087  11.819   5.584 -0.0351  0.2310 -0.1971
  926loPI   GL113797  18.303  11.892   5.967 -0.3823 -0.0642 -0.1555
  926loPI   GL213798  17.982  11.923   6.096 -0.1881  0.0103  0.3771
  926loPI   C1A13799  18.355  12.055   6.406 -0.1544 -0.1680  0.1758
  926loPI   C2A13800  18.316  12.249   6.780  0.0529  0.2039  0.0376
  926loPI   C3A13801  18.531  12.370   7.149 -0.0052  0.0484 -0.0756
  926loPI   C4A13802  18.480  12.339   7.563 -0.2377 -0.0629  0.0978
  926loPI   C5A13803  18.320  12.050   7.890  0.3979 -0.0315  0.0236
  926loPI   C6A13804  17.843  12.022   7.943 -0.0937 -0.0114  0.0699
  926loPI   C1B13805  17.947  11.840   6.512 -0.2197  0.2024 -0.0544
  926loPI   C2B13806  18.033  11.849   6.972  0.0861 -0.0049 -0.0054
  926loPI   C3B13807  18.139  12.100   7.290  0.0022  0.2700  0.1472
  926loPI   C4B13808  17.993  12.435   7.584  0.3276  0.0800  0.3481
  927loPI    C113809  14.276   4.547   5.254 -0.1666  0.0796  0.3175
  927loPI    C213810  14.373   4.917   5.139  0.1119 -0.0569  0.1006
  927loPI    C313811  14.016   4.765   5.042  0.0977  0.0603 -0.0351
  927loPI   PO413812  14.313   4.507   5.564  0.1656  0.0472  0.3887
  927loPI   GL113813  14.083   4.381   5.941 -0.0865  0.1504 -0.0495
  927loPI   GL213814  14.343   4.520   6.069 -0.1036  0.1517 -0.0972
  927loPI   C1A13815  13.813   4.351   6.276  0.3645 -0.1282 -0.0075
  927loPI   C2A13816  13.689   4.218   6.776 -0.0603 -0.2946 -0.0339
  927loPI   C3A13817  13.539   4.138   7.205  0.2311 -0.0673 -0.0796
  927loPI   C4A13818  13.882   4.119   7.589  0.0727  0.0879  0.0909
  927loPI   C5A13819  13.977   4.461   7.739 -0.1878  0.1221  0.0159
  927loPI   C6A13820  14.129   4.790   7.876 -0.1044 -0.0118  0.2265
  927loPI   C1B13821  14.517   4.645   6.294  0.0851  0.0722 -0.0594
  927loPI   C2B13822  14.566   4.610   6.713 -0.2881  0.0486 -0.0659
  927loPI   C3B13823  14.464   4.478   7.082  0.1862 -0.0712 -0.2018
  927loPI   C4B13824  14.399   4.631   7.480  0.1220 -0.1475 -0.0864
  928loPI    C113825  13.941   2.446   5.364  0.1876 -0.1863 -0.0297
  928loPI    C213826  14.068   2.463   4.985 -0.0251  0.2147 -0.0889
  928loPI    C313827  13.688   2.367   5.064  0.0673 -0.0576  0.0364
  928loPI   PO413828  14.139   2.332   5.437  0.3412 -0.1681 -0.1045
  928loPI   GL113829  14.549   2.255   5.634 -0.3364 -0.1683 -0.0685
  928loPI   GL213830  14.539   2.529   5.808 -0.1134  0.1682 -0.0933
  928loPI   C1A13831  14.581   2.055   6.068  0.1470 -0.2168  0.3085
  928loPI   C2A13832  14.665   2.133   6.423  0.0148 -0.1087 -0.1959
  928loPI   C3A13833  14.797   2.216   6.866 -0.0840  0.3497  0.0229
  928loPI   C4A13834  14.854   2.210   7.241  0.0015  0.2956 -0.1409
  928loPI   C5A13835  14.943   1.990   7.541  0.0867 -0.1073  0.1737
  928loPI   C6A13836  14.589   1.836   7.818  0.0364 -0.0647  0.0081
  928loPI   C1B13837  14.813   2.516   6.179 -0.2442 -0.3891 -0.1410
  928loPI   C2B13838  15.133   2.704   6.440 -0.0497 -0.0381  0.0176
  928loPI   C3B13839  15.473   2.826   6.670  0.1782 -0.0790  0.0440
  928loPI   C4B13840  15.609   3.074   6.977  0.0211 -0.0729  0.3216
  929loPI    C113841  16.688  18.284   5.027  0.0048  0.0609  0.1621
  929loPI    C213842  16.571  17.928   4.886  0.0854  0.1339 -0.0959
  929loPI    C313843  16.735  18.197   4.639  0.2328  0.2658  0.1411
  929loPI   PO413844  16.526  18.366   5.198  0.2614  0.2752 -0.2579
  929loPI   GL113845  16.370  18.448   5.497  0.1641  0.1360 -0.3214
  929loPI   GL213846  16.613  18.414   5.737 -0.2444  0.0524  0.0744
  929loPI   C1A13847  16.078  18.480   5.943 -0.1529 -0.1810 -0.0814
  929loPI   C2A13848  16.057  18.519   6.486  0.0326 -0.2846 -0.0653
  929loPI   C3A13849  16.231  18.607   6.909 -0.0124  0.2315 -0.4112
  929loPI   C4A13850  16.625  18.665   7.197  0.5339  0.2053 -0.1942
  929loPI   C5A13851  17.039  18.870   7.389 -0.4302 -0.0575 -0.4148
  929loPI   C6A13852  16.920  19.340   7.555 -0.0268 -0.0009 -0.3319
  929loPI   C1B13853  16.555  18.555   6.111  0.2769 -0.1383  0.4769
  929loPI   C2B13854  16.666  18.511   6.508  0.0142  0.0662  0.1985
  929loPI   C3B13855  16.618  18.282   6.918  0.0161  0.0307  0.0053
  929loPI   C4B13856  16.351  18.344   7.392 -0.0534  0.2695 -0.1141
  930loPI    C113857   7.082   1.803   5.253 -0.0236 -0.0349  0.1459
  930loPI    C213858   7.347   2.057   5.093  0.0159 -0.0634  0.1663
  930loPI    C313859   7.035   2.198   5.300 -0.0225 -0.0274  0.0840
  930loPI   PO413860   7.304   1.525   5.325 -0.0099 -0.0248  0.0366
  930loPI   GL113861   7.500   1.329   5.766  0.2112 -0.1690 -0.2505
  930loPI   GL213862   7.710   1.539   5.974 -0.1319  0.0302  0.1544
  930loPI   C1A13863   7.312   1.230   6.136 -0.2675 -0.1404 -0.1221
  930loPI   C2A13864   7.403   1.112   6.618 -0.2230  0.0886 -0.0891
  930loPI   C3A13865   7.340   1.130   7.021  0.1675  0.1705 -0.0063
  930loPI   C4A13866   7.171   1.023   7.362  0.0342 -0.0500 -0.0795
  930loPI   C5A13867   7.269   1.205   7.819 -0.1597  0.1568 -0.0023
  930loPI   C6A13868   7.371   1.426   8.309  0.1614  0.0400 -0.0585
  930loPI   C1B13869   7.679   1.591   6.465 -0.0806 -0.0787 -0.0558
  930loPI   C2B13870   7.586   1.642   6.910  0.0306 -0.0695  0.0839
  930loPI   C3B13871   7.655   1.918   7.314 -0.3097 -0.0363 -0.0954
  930loPI   C4B13872   7.791   2.157   7.571 -0.1482 -0.1266 -0.1620
  931loPI    C113873   9.975   7.394   5.407  0.0706  0.0456  0.0412
  931loPI    C213874  10.022   7.086   5.156 -0.4927 -0.0243  0.0094
  931loPI    C313875   9.924   7.447   5.014 -0.0632  0.1213  0.0682
  931loPI   PO413876  10.118   7.362   5.547 -0.1669 -0.2154  0.1467
  931loPI   GL113877  10.388   7.146   5.864  0.0399  0.1730 -0.0305
  931loPI   GL213878  10.070   7.286   6.010 -0.2944 -0.1889 -0.0801
  931loPI   C1A13879  10.646   6.903   6.120 -0.3419  0.2473  0.3152
  931loPI   C2A13880  10.461   6.615   6.414 -0.0216 -0.2803  0.1479
  931loPI   C3A13881  10.241   6.496   6.665 -0.3792 -0.3977  0.0853
  931loPI   C4A13882  10.068   6.352   6.952 -0.1504 -0.0288 -0.1356
  931loPI   C5A13883   9.900   6.161   7.321  0.1375 -0.0490 -0.0210
  931loPI   C6A13884  10.075   6.152   7.700 -0.1357 -0.2745 -0.1420
  931loPI   C1B13885  10.286   7.124   6.368  0.2033  0.1353  0.1278
  931loPI   C2B13886  10.413   6.968   6.725 -0.1096 -0.1857 -0.0469
  931loPI   C3B13887  10.564   6.646   7.073  0.1904 -0.0939 -0.2053
  931loPI   C4B13888  10.906   6.832   7.433 -0.1090  0.2317 -0.4108
  932loPI    C113889  16.281  14.481   5.478 -0.1313  0.1851  0.0946
  932loPI    C213890  16.092  14.617   5.153 -0.1807  0.1063  0.0900
  932loPI    C313891  16.327  14.295   5.127  0.0237  0.2544  0.0771
  932loPI   PO413892  16.482  14.576   5.538  0.0062 -0.2554 -0.1494
  932loPI   GL113893  16.632  14.859   5.894  0.3266 -0.0187 -0.1401
  932loPI   GL213894  16.311  15.028   5.923 -0.3098 -0.0146 -0.4460
  932loPI   C1A13895  16.800  14.921   6.196  0.0935 -0.1217 -0.1764
  932loPI   C2A13896  16.985  14.854   6.604  0.1897  0.2647  0.3404
  932loPI   C3A13897  16.955  14.666   7.067  0.0137 -0.0569  0.1679
  932loPI   C4A13898  16.944  14.547   7.479 -0.0029 -0.1975  0.0861
  932loPI   C5A13899  17.118  14.248   7.769 -0.1403 -0.0026  0.1431
  932loPI   C6A13900  17.244  13.892   7.996  0.1025 -0.0923  0.0798
  932loPI   C1B13901  16.398  15.170   6.396  0.2681 -0.2105  0.3767
  932loPI   C2B13902  16.638  15.256   6.771  0.1894  0.0030  0.1774
  932loPI   C3B13903  16.675  15.359   7.272 -0.0047 -0.4541 -0.0418
  932loPI   C4B13904  16.937  15.577   7.539 -0.0393 -0.1249  0.2436
  933loPI    C113905   9.189   4.599   5.077 -0.2371 -0.2181 -0.0962
  933loPI    C213906   9.457   4.413   4.845 -0.1012 -0.0959 -0.0392
  933loPI    C313907   9.376   4.801   4.787 -0.0166 -0.0473  0.1594
  933loPI   PO413908   9.277   4.615   5.332  0.0257 -0.0328 -0.1207
  933loPI   GL113909   9.057   4.679   5.720 -0.0408  0.0220  0.2638
  933loPI   GL213910   9.171   4.936   5.707 -0.3291 -0.1230  0.0718
  933loPI   C1A13911   9.170   4.715   6.185 -0.0004  0.0054 -0.2710
  933loPI   C2A13912   9.213   4.794   6.692 -0.0369 -0.1037 -0.0920
  933loPI   C3A13913   9.036   4.922   7.015 -0.3563 -0.2222 -0.0038
  933loPI   C4A13914   8.977   4.656   7.353 -0.3266  0.0317  0.1857
  933loPI   C5A13915   9.187   4.630   7.713  0.0562 -0.0335  0.0769
  933loPI   C6A13916   9.623   4.735   7.708 -0.0598 -0.1907  0.1149
  933loPI   C1B13917   9.476   5.143   6.004  0.0242 -0.2852  0.0686
  933loPI   C2B13918   9.671   5.345   6.297  0.1388  0.0109 -0.3159
  933loPI   C3B13919   9.749   5.509   6.670  0.1986 -0.2043 -0.0162
  933loPI   C4B13920   9.734   5.705   7.095  0.0047 -0.1141 -0.2428
  934loPI    C113921   5.512   3.815   5.023  0.0518  0.1429  0.0094
  934loPI    C213922   5.138   3.829   5.164  0.0051  0.1171 -0.1105
  934loPI    C313923   5.276   3.493   4.998  0.1681  0.0441  0.1655
  934loPI   PO413924   5.599   4.026   5.120 -0.0821 -0.2474  0.1667
  934loPI   GL113925   5.854   4.443   5.335  0.3176  0.1179 -0.1847
  934loPI   GL213926   5.781   4.236   5.615 -0.0501  0.0103 -0.0092
  934loPI   C1A13927   5.686   4.700   5.677 -0.1693 -0.1544  0.1078
  934loPI   C2A13928   5.419   4.786   6.094  0.0635 -0.1569  0.0096
  934loPI   C3A13929   5.373   4.708   6.505 -0.3585 -0.0766 -0.1500
  934loPI   C4A13930   5.709   4.629   6.810  0.3312 -0.2167  0.1291
  934loPI   C5A13931   5.828   4.844   7.255  0.0535 -0.0147  0.0411
  934loPI   C6A13932   6.062   5.195   7.440  0.0289  0.2772 -0.2702
  934loPI   C1B13933   5.789   4.417   6.034 -0.3522 -0.1823 -0.2122
  934loPI   C2B13934   5.932   4.766   6.339 -0.1175  0.0028  0.0040
  934loPI   C3B13935   6.025   4.965   6.701 -0.2856 -0.1364 -0.0989
  934loPI   C4B13936   6.056   5.164   6.897  0.0337 -0.0739  0.1629
  935loPI    C113937   2.183  15.611   5.425 -0.0622 -0.1287  0.0080
  935loPI    C213938   2.054  15.777   5.084 -0.2354 -0.1731  0.0509
  935loPI    C313939   2.113  15.382   5.104 -0.0936 -0.1535  0.0326
  935loPI   PO413940   2.348  15.852   5.550  0.0490 -0.1851 -0.2417
  935loPI   GL113941   2.562  16.027   5.966 -0.0019 -0.1390  0.3397
  935loPI   GL213942   2.863  15.999   5.955  0.0827 -0.1242 -0.1628
  935loPI   C1A13943   2.641  15.906   6.365 -0.0099 -0.1202 -0.1397
  935loPI   C2A13944   2.747  15.545   6.590 -0.1480 -0.0735 -0.1416
  935loPI   C3A13945   3.014  15.220   6.708 -0.2533 -0.0731 -0.0708
  935loPI   C4A13946   3.242  15.087   7.036 -0.0735  0.2010  0.1706
  935loPI   C5A13947   3.159  14.797   7.340 -0.2293  0.2065 -0.0529
  935loPI   C6A13948   3.294  14.389   7.424 -0.2143 -0.0602 -0.1512
  935loPI   C1B13949   2.982  16.304   6.337 -0.4732 -0.1556 -0.0781
  935loPI   C2B13950   2.890  16.672   6.680 -0.0063  0.0690 -0.1199
  935loPI   C3B13951   2.765  16.800   7.208 -0.2711 -0.1869  0.0119
  935loPI   C4B13952   2.914  16.833   7.641  0.1033 -0.1760  0.1791
  936loPI    C113953  14.600   3.207   5.110 -0.2787  0.1999 -0.1806
  936loPI    C213954  14.963   3.299   4.970 -0.0319  0.0537  0.3378
  936loPI    C313955  14.867   2.918   5.043 -0.2893  0.0925  0.2157
  936loPI   PO413956  14.537   3.260   5.326  0.0341 -0.3292 -0.1475
  936loPI   GL113957  14.305   2.998   5.703 -0.1402 -0.0659  0.0434
  936loPI   GL213958  14.153   2.762   5.712 -0.1947 -0.0631 -0.0446
  936loPI   C1A13959  14.220   3.283   5.933 -0.0387  0.1495  0.2370
  936loPI   C2A13960  14.091   3.622   6.238 -0.0732 -0.1675 -0.0053
  936loPI   C3A13961  13.855   3.790   6.670  0.0889  0.1265 -0.1891
  936loPI   C4A13962  13.782   3.764   7.104  0.2301  0.1766 -0.0471
  936loPI   C5A13963  13.594   3.537   7.424 -0.0156 -0.0040 -0.0332
  936loPI   C6A13964  13.412   3.443   7.808  0.1188 -0.1743 -0.2261
  936loPI   C1B13965  14.105   2.858   6.192  0.0457 -0.3171 -0.2486
  936loPI   C2B13966  14.185   3.001   6.691  0.0137 -0.0344 -0.2259
  936loPI   C3B13967  14.162   2.975   7.106 -0.2795 -0.1445  0.3282
  936loPI   C4B13968  14.130   2.984   7.595  0.3023 -0.4843  0.4575
  937loPI    C113969  16.500   9.126   5.115  0.0552  0.0320  0.2229
  937loPI    C213970  16.142   9.049   4.954  0.1192 -0.0371  0.1121
  937loPI    C313971  16.446   8.796   4.895  0.2385  0.1213  0.0408
  937loPI   PO413972  16.499   9.081   5.395 -0.1156  0.0676  0.0506
  937loPI   GL113973  16.708   9.339   5.773  0.1865 -0.2485 -0.0381
  937loPI   GL213974  16.617   9.006   5.902 -0.1162  0.0463  0.0284
  937loPI   C1A13975  16.834   9.388   6.137  0.2501 -0.0804  0.1682
  937loPI   C2A13976  16.732   9.200   6.519  0.0505 -0.0340 -0.3875
  937loPI   C3A13977  16.575   9.102   6.921 -0.3237  0.0680 -0.1082
  937loPI   C4A13978  16.272   9.235   7.211  0.1850  0.2086 -0.1406
  937loPI   C5A13979  16.050   9.580   7.519  0.1202 -0.0593 -0.1555
  937loPI   C6A13980  16.251   9.668   7.906 -0.0979  0.1048  0.3143
  937loPI   C1B13981  16.518   8.806   6.246  0.0496  0.0772  0.1101
  937loPI   C2B13982  16.310   8.798   6.585 -0.1996  0.0330 -0.2565
  937loPI   C3B13983  16.317   8.700   7.100  0.2457 -0.1284  0.2209
  937loPI   C4B13984  16.467   8.469   7.353 -0.2670 -0.2542  0.0690
  938loPI    C113985   2.204   8.321   5.358  0.0768  0.1618 -0.1007
  938loPI    C213986   1.962   8.479   5.081 -0.0544 -0.0382 -0.1017
  938loPI    C313987   2.301   8.298   4.970 -0.0723 -0.0564 -0.1269
  938loPI   PO413988   2.160   8.585   5.532  0.0512 -0.1271  0.1831
  938loPI   GL113989   1.820   8.566   5.937  0.3559  0.3988 -0.0638
  938loPI   GL213990   1.644   8.751   6.224 -0.0139  0.0852 -0.1501
  938loPI   C1A13991   2.181   8.478   6.172 -0.1694 -0.2456 -0.0838
  938loPI   C2A13992   2.301   8.601   6.533 -0.0337  0.0069 -0.0456
  938loPI   C3A13993   2.227   8.762   6.907 -0.2389  0.0107 -0.1187
  938loPI   C4A13994   2.135   8.782   7.378 -0.0675 -0.2758  0.1965
  938loPI   C5A13995   1.816   8.756   7.617 -0.2992 -0.1295 -0.0376
  938loPI   C6A13996   1.507   8.498   7.914  0.2510  0.1999 -0.4072
  938loPI   C1B13997   1.819   8.512   6.562 -0.2391 -0.0359  0.1945
  938loPI   C2B13998   1.784   8.080   6.889 -0.0357  0.1653  0.0013
  938loPI   C3B13999   1.625   7.980   7.259 -0.1158  0.1636  0.1547
  938loPI   C4B14000   1.502   7.860   7.707  0.0445 -0.4676 -0.0372
  939loPI    C114001  16.899  15.321   5.474  0.1842  0.0405  0.0044
  939loPI    C214002  16.758  14.961   5.370  0.0407  0.1004 -0.0102
  939loPI    C314003  17.151  15.034   5.355  0.0637 -0.0339 -0.0729
  939loPI   PO414004  16.640  15.343   5.653  0.0586 -0.1415 -0.3304
  939loPI   GL114005  16.646  15.480   6.018  0.2472 -0.0920 -0.0467
  939loPI   GL214006  16.551  15.903   6.028  0.1979 -0.2193  0.0913
  939loPI   C1A14007  16.945  15.400   6.287 -0.0637  0.2410  0.0822
  939loPI   C2A14008  17.129  15.371   6.662  0.3292 -0.0681  0.0791
  939loPI   C3A14009  17.169  15.267   7.096  0.0894 -0.0606  0.2589
  939loPI   C4A14010  17.115  14.999   7.451  0.2018 -0.1110 -0.0152
  939loPI   C5A14011  16.824  15.148   7.804  0.1025 -0.1982 -0.1743
  939loPI   C6A14012  17.008  15.166   8.249  0.3208  0.2140  0.0938
  939loPI   C1B14013  16.749  15.892   6.425  0.0262 -0.1211  0.1750
  939loPI   C2B14014  16.738  15.693   6.864 -0.2038 -0.3195  0.0147
  939loPI   C3B14015  16.444  15.789   7.215 -0.2452  0.1818 -0.3114
  939loPI   C4B14016  16.465  15.649   7.614 -0.0453 -0.1350 -0.0966
  940loPI    C114017  12.350   2.199   5.089  0.0887  0.4027 -0.0899
  940loPI    C214018  12.434   2.123   4.705 -0.1702  0.2689 -0.1228
  940loPI    C314019  12.726   2.233   4.956  0.0335  0.1727 -0.3138
  940loPI   PO414020  12.114   2.310   5.167 -0.2168 -0.1550 -0.4202
  940loPI   GL114021  12.032   2.288   5.589  0.0639  0.3066 -0.3367
  940loPI   GL214022  12.185   2.157   5.684  0.0471 -0.0872 -0.3265
  940loPI   C1A14023  12.230   2.618   5.949  0.4359  0.2272 -0.1038
  940loPI   C2A14024  12.285   2.940   6.174  0.0348 -0.2021  0.0159
  940loPI   C3A14025  12.255   2.907   6.632 -0.1426 -0.1571 -0.0415
  940loPI   C4A14026  12.202   2.792   7.060 -0.0615 -0.2108  0.1628
  940loPI   C5A14027  12.061   2.606   7.391 -0.0622  0.0218  0.0232
  940loPI   C6A14028  12.130   2.615   7.703  0.1448  0.0643 -0.0131
  940loPI   C1B14029  12.092   2.091   6.080 -0.0212  0.1246  0.1200
  940loPI   C2B14030  11.889   2.241   6.415  0.0550 -0.1835 -0.0904
  940loPI   C3B14031  11.476   2.369   6.506  0.1082 -0.1114 -0.1985
  940loPI   C4B14032  11.343   2.313   6.986  0.1700  0.0024  0.0470
  941loPI    C114033  15.735   6.270   5.083 -0.2199 -0.1182 -0.1865
  941loPI    C214034  15.607   5.892   5.061  0.1301 -0.2588  0.1039
  941loPI    C314035  15.868   6.031   4.792 -0.1150 -0.1742 -0.0934
  941loPI   PO414036  15.794   6.347   5.265 -0.0627 -0.2415  0.0664
  941loPI   GL114037  15.613   6.469   5.679  0.0154 -0.3145  0.1366
  941loPI   GL214038  15.337   6.471   5.868 -0.0464 -0.0269  0.1822
  941loPI   C1A14039  15.741   6.214   6.161 -0.2649 -0.1047  0.0754
  941loPI   C2A14040  15.940   6.159   6.474 -0.2771 -0.0860  0.3133
  941loPI   C3A14041  16.099   5.986   6.762 -0.0790 -0.1604  0.2176
  941loPI   C4A14042  16.132   5.854   7.201 -0.0990  0.2915  0.0136
  941loPI   C5A14043  16.073   5.810   7.574  0.0617  0.2230  0.1849
  941loPI   C6A14044  16.338   5.521   7.922  0.3453 -0.2518 -0.3985
  941loPI   C1B14045  15.551   6.745   6.166 -0.0721  0.0126 -0.0050
  941loPI   C2B14046  15.856   6.680   6.461 -0.2027  0.1486  0.1293
  941loPI   C3B14047  16.075   6.843   6.911 -0.0364  0.2134  0.0706
  941loPI   C4B14048  15.994   6.837   7.349 -0.4174 -0.0823  0.3532
  942loPI    C114049   7.368   5.439   4.832  0.0947  0.0167 -0.1293
  942loPI    C214050   7.597   5.723   4.997  0.2564 -0.1079 -0.1363
  942loPI    C314051   7.696   5.568   4.642  0.0558 -0.0292 -0.2281
  942loPI   PO414052   7.244   5.346   5.135 -0.3409 -0.0133  0.2009
  942loPI   GL114053   7.317   5.565   5.461 -0.1078  0.2447  0.1429
  942loPI   GL214054   7.638   5.613   5.472 -0.0704 -0.2193 -0.1588
  942loPI   C1A14055   7.402   5.386   5.864  0.1054 -0.2022  0.1182
  942loPI   C2A14056   7.294   5.037   6.038  0.0868  0.1481  0.2489
  942loPI   C3A14057   7.364   4.923   6.541 -0.1179 -0.1810 -0.1979
  942loPI   C4A14058   7.202   4.709   6.870  0.0486 -0.2563  0.1456
  942loPI   C5A14059   7.161   4.476   7.257 -0.0603  0.0823  0.2900
  942loPI   C6A14060   7.212   4.033   7.300 -0.0471  0.0963 -0.1212
  942loPI   C1B14061   7.807   5.818   5.730 -0.3095  0.1480 -0.1341
  942loPI   C2B14062   7.976   6.158   5.992  0.1086 -0.0091 -0.1933
  942loPI   C3B14063   7.910   6.393   6.407 -0.0001 -0.1402 -0.1804
  942loPI   C4B14064   7.981   6.454   6.818 -0.2382 -0.0521 -0.0297
  943loPI    C114065   0.050   8.956   5.253 -0.0574  0.0860 -0.1790
  943loPI    C214066   0.068   8.710   4.938 -0.0321  0.1540 -0.2307
  943loPI    C314067   0.350   8.989   4.991  0.1109 -0.0307 -0.0034
  943loPI   PO414068  -0.129   8.763   5.423 -0.0191 -0.0023  0.4041
  943loPI   GL114069  -0.097   8.874   5.864  0.0484 -0.3199  0.0916
  943loPI   GL214070  -0.385   8.748   6.029 -0.1651  0.0760  0.1396
  943loPI   C1A14071   0.057   9.008   6.312 -0.1495 -0.1500 -0.0359
  943loPI   C2A14072  -0.095   9.112   6.829 -0.0300  0.0382  0.2161
  943loPI   C3A14073   0.050   9.336   7.144 -0.0230  0.4428  0.4047
  943loPI   C4A14074   0.010   9.516   7.627  0.0975 -0.1496  0.2962
  943loPI   C5A14075  -0.364   9.738   7.847  0.3830 -0.1164 -0.2753
  943loPI   C6A14076  -0.697  10.009   7.964 -0.3802  0.0267  0.3222
  943loPI   C1B14077  -0.532   8.851   6.369 -0.2769 -0.0561 -0.2041
  943loPI   C2B14078  -0.581   8.948   6.778 -0.1868 -0.0348  0.0038
  943loPI   C3B14079  -0.625   8.912   7.172  0.1404  0.5087  0.2137
  943loPI   C4B14080  -0.782   8.864   7.478 -0.0975  0.0454  0.2143
  944loPI    C114081   9.083   8.603   4.880 -0.0184  0.1109  0.0412
  944loPI    C214082   9.334   8.482   4.593  0.0110  0.0610  0.0877
  944loPI    C314083   8.983   8.648   4.495  0.0921  0.1954  0.0221
  944loPI   PO414084   9.006   8.398   5.011  0.2483 -0.4530 -0.1522
  944loPI   GL114085   8.811   8.655   5.432  0.1859 -0.1224  0.2619
  944loPI   GL214086   8.787   8.310   5.567 -0.3117 -0.0929 -0.0504
  944loPI   C1A14087   8.628   8.844   5.790  0.0395  0.1929  0.1308
  944loPI   C2A14088   8.849   8.852   6.161  0.2981  0.3994 -0.1533
  944loPI   C3A14089   8.847   8.830   6.545  0.1315 -0.0987 -0.0076
  944loPI   C4A14090   8.988   8.851   6.941 -0.3058  0.1271 -0.0741
  944loPI   C5A14091   8.995   8.750   7.311 -0.2479 -0.1570  0.3609
  944loPI   C6A14092   8.941   8.370   7.562  0.1754  0.0367  0.1399
  944loPI   C1B14093   8.862   8.392   5.957 -0.0875  0.0870 -0.2047
  944loPI   C2B14094   8.787   8.391   6.375  0.0069 -0.0591 -0.2964
  944loPI   C3B14095   8.765   8.365   6.825  0.1760 -0.0629 -0.0197
  944loPI   C4B14096   8.731   8.253   7.166  0.0892  0.1387 -0.3531
  945loPI    C114097  16.285   0.661   5.038  0.2234  0.3682 -0.1101
  945loPI    C214098  16.056   0.718   4.715 -0.0529 -0.0475  0.0038
  945loPI    C314099  16.364   0.464   4.698  0.1052  0.1430 -0.0095
  945loPI   PO414100  16.113   0.536   5.297 -0.2019  0.0431 -0.1602
  945loPI   GL114101  16.084   0.330   5.637 -0.1083  0.1537 -0.1732
  945loPI   GL214102  15.762   0.196   5.628 -0.0583 -0.3571  0.1017
  945loPI   C1A14103  16.203   0.329   6.071  0.0201 -0.1939  0.2405
  945loPI   C2A14104  16.249   0.411   6.542 -0.1406  0.4414 -0.1689
  945loPI   C3A14105  16.223   0.470   6.985 -0.2170 -0.1388  0.1365
  945loPI   C4A14106  16.087   0.220   7.339  0.2916 -0.0086 -0.0183
  945loPI   C5A14107  15.914  -0.089   7.623 -0.2478  0.0666  0.0125
  945loPI   C6A14108  15.672  -0.374   7.745  0.2102  0.0872  0.0473
  945loPI   C1B14109  15.740   0.340   6.027  0.2573 -0.2191  0.2027
  945loPI   C2B14110  15.684   0.223   6.345 -0.0376 -0.1147 -0.0237
  945loPI   C3B14111  15.692   0.101   6.801  0.0724  0.0697 -0.1064
  945loPI   C4B14112  15.516  -0.047   7.201  0.1229  0.0205  0.0219
  946loPI    C114113   2.284   2.314   5.375  0.1245 -0.3591  0.1285
  946loPI    C214114   2.030   2.132   5.126 -0.0052  0.0453 -0.0448
  946loPI    C314115   2.418   2.154   5.034  0.0100 -0.1284 -0.0274
  946loPI   PO414116   2.271   2.179   5.603  0.0617  0.1145 -0.3210
  946loPI   GL114117   1.987   2.016   5.964 -0.1554 -0.1100 -0.0426
  946loPI   GL214118   2.239   2.210   6.103 -0.2781 -0.1241  0.3544
  946loPI   C1A14119   2.008   1.804   6.324 -0.3078  0.3899 -0.1999
  946loPI   C2A14120   1.907   1.744   6.671  0.1880  0.0107 -0.0341
  946loPI   C3A14121   1.955   1.976   7.072  0.3314  0.1239  0.0144
  946loPI   C4A14122   1.918   1.962   7.568  0.2850 -0.0530  0.2101
  946loPI   C5A14123   1.930   2.270   7.750 -0.0600  0.1311 -0.1644
  946loPI   C6A14124   1.550   2.558   7.811 -0.1843  0.1037  0.1303
  946loPI   C1B14125   2.335   2.199   6.477 -0.1146  0.0374 -0.2617
  946loPI   C2B14126   2.180   2.420   6.898  0.1823  0.1592  0.1527
  946loPI   C3B14127   2.228   2.361   7.296  0.1707 -0.1633  0.2583
  946loPI   C4B14128   2.419   2.544   7.700 -0.0335  0.4920  0.0009
  947loPI    C114129   0.785  12.870   4.956  0.0696 -0.0952  0.1421
  947loPI    C214130   1.149  12.955   4.815  0.1140 -0.0420  0.2864
  947loPI    C314131   0.830  12.980   4.575  0.1968 -0.0222  0.1777
  947loPI   PO414132   0.839  12.770   5.171  0.0218 -0.0260  0.0021
  947loPI   GL114133   0.793  12.608   5.561  0.0178 -0.3739  0.0280
  947loPI   GL214134   1.081  12.678   5.597  0.0259  0.1673  0.0884
  947loPI   C1A14135   0.746  12.280   5.863 -0.1871 -0.0072  0.1910
  947loPI   C2A14136   0.721  12.152   6.218 -0.1838 -0.0035 -0.0477
  947loPI   C3A14137   0.804  12.164   6.673  0.2451 -0.0404 -0.0406
  947loPI   C4A14138   0.856  12.010   7.005  0.1548 -0.0709 -0.1629
  947loPI   C5A14139   1.018  12.101   7.460  0.0477 -0.3512 -0.0391
  947loPI   C6A14140   1.385  12.155   7.798  0.1622 -0.1313  0.1264
  947loPI   C1B14141   1.154  12.620   5.948  0.1306  0.0175  0.2197
  947loPI   C2B14142   1.050  12.492   6.305  0.1481 -0.0687 -0.0440
  947loPI   C3B14143   1.130  12.498   6.729  0.0528 -0.2483 -0.1578
  947loPI   C4B14144   1.113  12.433   7.118  0.1348 -0.2459 -0.0599
  948loPI    C114145  17.892  13.528   5.509  0.0192  0.0182  0.0602
  948loPI    C214146  17.618  13.762   5.335  0.0714 -0.0517 -0.1184
  948loPI    C314147  17.910  13.598   5.116  0.2703  0.0392  0.0736
  948loPI   PO414148  17.985  13.658   5.687 -0.2436  0.0948  0.3844
  948loPI   GL114149  17.895  13.823   6.116 -0.1088  0.0514  0.1103
  948loPI   GL214150  18.167  13.735   6.241 -0.0195 -0.0582 -0.2272
  948loPI   C1A14151  17.529  14.035   6.236 -0.5335 -0.1005  0.1379
  948loPI   C2A14152  17.317  14.064   6.578  0.0173  0.0210 -0.2437
  948loPI   C3A14153  17.276  14.399   6.836  0.0243  0.3289  0.0309
  948loPI   C4A14154  17.458  14.565   7.242 -0.2244  0.2208  0.2677
  948loPI   C5A14155  17.419  14.711   7.792  0.0841  0.2781 -0.1799
  948loPI   C6A14156  17.407  15.046   7.922  0.0111  0.2180  0.0403
  948loPI   C1B14157  17.913  13.548   6.589 -0.0449 -0.1501  0.0259
  948loPI   C2B14158  17.774  13.470   7.062 -0.0451 -0.1044  0.1740
  948loPI   C3B14159  18.029  13.536   7.395  0.0670  0.2575  0.0392
  948loPI   C4B14160  18.329  13.282   7.486 -0.2499 -0.1094 -0.1407
  949loPI    C114161  12.942   1.735   5.232  0.0907 -0.1082 -0.0060
  949loPI    C214162  12.913   1.465   5.526  0.0250 -0.1182 -0.0216
  949loPI    C314163  12.834   1.359   5.149 -0.2808 -0.0081  0.0087
  949loPI   PO414164  13.161   1.934   5.329  0.0054  0.0853 -0.1757
  949loPI   GL114165  13.094   2.152   5.786  0.0520 -0.2411 -0.2740
  949loPI   GL214166  13.247   1.824   5.808 -0.0912 -0.1124 -0.1560
  949loPI   C1A14167  13.184   2.089   6.229 -0.0251  0.1442 -0.1696
  949loPI   C2A14168  13.171   1.851   6.643 -0.1764 -0.0507 -0.0779
  949loPI   C3A14169  13.132   1.542   6.990  0.1304 -0.3690  0.0195
  949loPI   C4A14170  13.247   1.539   7.457  0.0080 -0.0296 -0.3088
  949loPI   C5A14171  13.604   1.679   7.703 -0.1968 -0.3282 -0.0269
  949loPI   C6A14172  13.752   1.399   8.052 -0.1778  0.3054 -0.1956
  949loPI   C1B14173  13.409   1.624   6.181  0.3068 -0.0635 -0.1018
  949loPI   C2B14174  13.250   1.430   6.442  0.1456 -0.0001  0.0377
  949loPI   C3B14175  13.295   1.086   6.846 -0.2107 -0.1037 -0.0377
  949loPI   C4B14176  13.194   1.043   7.305  0.0549  0.1785 -0.2853
  950loPI    C114177   5.383   1.033   5.564 -0.0769  0.0081 -0.2078
  950loPI    C214178   5.682   1.171   5.337  0.1138 -0.1756 -0.0720
  950loPI    C314179   5.359   1.009   5.165  0.0939  0.0162 -0.2191
  950loPI   PO414180   5.485   1.001   5.778 -0.3382  0.0017  0.1432
  950loPI   GL114181   5.401   0.636   6.029  0.1034  0.1668 -0.4891
  950loPI   GL214182   5.520   0.290   5.879  0.0041 -0.2737 -0.0454
  950loPI   C1A14183   5.369   0.768   6.489 -0.2026 -0.0037 -0.2394
  950loPI   C2A14184   5.198   0.920   6.837  0.0224  0.1910 -0.0174
  950loPI   C3A14185   5.347   1.018   7.266  0.1838  0.1147 -0.0455
  950loPI   C4A14186   5.222   1.335   7.374 -0.2526 -0.1277 -0.2448
  950loPI   C5A14187   5.272   1.646   7.658  0.3169 -0.1218  0.0224
  950loPI   C6A14188   5.451   2.067   7.652  0.0188  0.2460 -0.3561
  950loPI   C1B14189   5.622   0.315   6.357  0.2713 -0.1519 -0.0636
  950loPI   C2B14190   5.608   0.108   6.697  0.2564  0.2467  0.2794
  950loPI   C3B14191   5.621   0.032   7.128 -0.2599 -0.1273  0.1575
  950loPI   C4B14192   5.614  -0.142   7.517  0.2180  0.1111 -0.4417
  951loPI    C114193   3.868   0.024   5.653  0.0227 -0.2141  0.0444
  951loPI    C214194   3.475   0.085   5.690  0.0572 -0.0243  0.1088
  951loPI    C314195   3.622  -0.077   5.355 -0.0467  0.1756 -0.0359
  951loPI   PO414196   3.996   0.336   5.784  0.1182  0.3849 -0.0233
  951loPI   GL114197   3.899   0.660   6.079  0.0806 -0.0778  0.1469
  951loPI   GL214198   4.082   0.829   5.988  0.1965 -0.1666  0.0878
  951loPI   C1A14199   3.649   0.719   6.397  0.1393  0.0501 -0.1558
  951loPI   C2A14200   3.482   0.876   6.782  0.1732  0.0610 -0.1328
  951loPI   C3A14201   3.332   0.662   7.183 -0.0579 -0.0875 -0.0010
  951loPI   C4A14202   3.639   0.435   7.432  0.5198 -0.1005 -0.1462
  951loPI   C5A14203   3.463   0.226   7.826  0.2710  0.1282  0.0937
  951loPI   C6A14204   3.324  -0.050   8.175 -0.0315  0.1125 -0.1627
  951loPI   C1B14205   4.224   0.869   6.442 -0.3184 -0.1083 -0.3135
  951loPI   C2B14206   4.294   1.046   6.832 -0.3271 -0.0417  0.1423
  951loPI   C3B14207   4.318   1.042   7.308 -0.0537 -0.0751  0.1518
  951loPI   C4B14208   4.013   1.175   7.682  0.0348  0.1233  0.1437
  952loPI    C114209   2.617  12.151   5.013 -0.1996 -0.1659  0.2499
  952loPI    C214210   2.782  11.787   5.030  0.3002  0.0309 -0.1341
  952loPI    C314211   2.627  11.920   4.686 -0.0755  0.1059  0.0584
  952loPI   PO414212   2.368  12.262   5.201 -0.1417  0.0028 -0.0597
  952loPI   GL114213   2.171  12.239   5.679 -0.0646 -0.0641  0.1219
  952loPI   GL214214   1.903  12.163   5.819 -0.0084 -0.0076 -0.1783
  952loPI   C1A14215   2.394  12.465   5.914  0.0150  0.0284  0.1168
  952loPI   C2A14216   2.702  12.348   6.314  0.0435 -0.2106  0.0206
  952loPI   C3A14217   2.826  12.553   6.736  0.1088 -0.2077 -0.0722
  952loPI   C4A14218   2.940  12.759   7.007  0.1112 -0.0438  0.2346
  952loPI   C5A14219   2.869  13.108   7.289  0.0716 -0.0344 -0.4158
  952loPI   C6A14220   2.993  13.267   7.706  0.2157 -0.0848  0.3306
  952loPI   C1B14221   2.009  12.262   6.238  0.2197 -0.1557  0.0058
  952loPI   C2B14222   2.216  12.242   6.533 -0.0736 -0.2274 -0.1010
  952loPI   C3B14223   2.344  12.493   6.907 -0.0512 -0.0257  0.1772
  952loPI   C4B14224   2.439  12.646   7.286  0.2045  0.1241 -0.1507
  953loPI    C114225  18.247  14.356   5.499 -0.0104 -0.0419  0.0439
  953loPI    C214226  17.898  14.300   5.312  0.0512 -0.0456 -0.0703
  953loPI    C314227  18.154  13.995   5.353 -0.0900 -0.1207  0.2845
  953loPI   PO414228  18.070  14.541   5.759 -0.2231 -0.1389  0.4427
  953loPI   GL114229  18.263  14.808   6.026 -0.0789  0.3896  0.0409
  953loPI   GL214230  18.583  14.993   6.250  0.0170  0.1066  0.0649
  953loPI   C1A14231  18.381  14.582   6.384  0.1664  0.0981 -0.2219
  953loPI   C2A14232  18.334  14.565   6.783 -0.3433  0.1335  0.0836
  953loPI   C3A14233  18.499  14.594   7.352 -0.0593 -0.0240 -0.0490
  953loPI   C4A14234  18.734  14.535   7.694  0.2381 -0.1309 -0.2792
  953loPI   C5A14235  18.772  14.951   7.939 -0.0030 -0.1007 -0.0270
  953loPI   C6A14236  18.541  15.247   8.013 -0.0911 -0.2325  0.0740
  953loPI   C1B14237  18.589  15.021   6.766  0.2176 -0.0311 -0.2630
  953loPI   C2B14238  18.626  15.063   7.212 -0.1171 -0.2540 -0.2293
  953loPI   C3B14239  18.425  15.081   7.548 -0.1414 -0.2546  0.0545
  953loPI   C4B14240  18.306  14.758   7.781 -0.1729 -0.3219  0.0145
  954loPI    C114241   1.063  16.653   4.764 -0.1720 -0.0140  0.0481
  954loPI    C214242   0.784  16.460   4.552  0.0249 -0.1459 -0.0947
  954loPI    C314243   1.142  16.536   4.390  0.0269  0.1430  0.0392
  954loPI   PO414244   1.080  16.553   5.046  0.0293  0.2160 -0.2979
  954loPI   GL114245   1.208  16.866   5.277 -0.4214 -0.3350 -0.0451
  954loPI   GL214246   1.130  16.697   5.505  0.0825  0.0025 -0.0824
  954loPI   C1A14247   1.471  17.009   5.771 -0.1892  0.0887  0.2283
  954loPI   C2A14248   1.648  16.945   6.131  0.2575 -0.1328 -0.0468
  954loPI   C3A14249   1.624  16.868   6.575 -0.1607 -0.0568  0.2297
  954loPI   C4A14250   1.905  16.884   6.964  0.3171 -0.0083  0.1864
  954loPI   C5A14251   2.265  17.005   7.199  0.1846  0.3088 -0.2833
  954loPI   C6A14252   2.381  16.870   7.604 -0.0267 -0.1521  0.1101
  954loPI   C1B14253   0.868  16.860   5.883 -0.0112 -0.0082  0.0701
  954loPI   C2B14254   0.681  16.672   6.310 -0.3430  0.0096 -0.1092
  954loPI   C3B14255   0.575  16.440   6.683 -0.2095 -0.1944 -0.1114
  954loPI   C4B14256   0.359  16.223   6.980  0.1318  0.0892  0.2576
  955loPI    C114257   1.866   2.733   5.046  0.1318  0.1803 -0.1133
  955loPI    C214258   2.182   2.658   4.811  0.0709 -0.1777 -0.0862
  955loPI    C314259   1.813   2.566   4.687  0.0028 -0.0257 -0.0001
  955loPI   PO414260   1.829   2.577   5.242  0.2190  0.0358 -0.0193
  955loPI   GL114261   1.720   2.757   5.632 -0.2663  0.3639 -0.0766
  955loPI   GL214262   1.964   2.514   5.760  0.0994 -0.0183 -0.1102
  955loPI   C1A14263   1.496   2.860   5.983 -0.1599  0.0557  0.1077
  955loPI   C2A14264   1.523   2.833   6.532  0.1220  0.0917  0.1186
  955loPI   C3A14265   1.826   2.774   6.836  0.2443  0.2279  0.2858
  955loPI   C4A14266   1.839   2.745   7.260  0.1546  0.3338  0.0801
  955loPI   C5A14267   1.957   2.889   7.717 -0.0058 -0.0754  0.1170
  955loPI   C6A14268   2.051   2.649   8.085 -0.0526  0.3146 -0.2069
  955loPI   C1B14269   1.846   2.468   6.250  0.1410 -0.2652 -0.1495
  955loPI   C2B14270   1.838   2.231   6.568 -0.1807  0.4083 -0.2122
  955loPI   C3B14271   1.550   2.336   6.920  0.1134  0.0504 -0.1837
  955loPI   C4B14272   1.504   2.301   7.378  0.2611 -0.1796  0.0835
  956loPI    C114273  12.879   4.564   5.241  0.1173  0.0583 -0.1461
  956loPI    C214274  13.076   4.512   4.897 -0.2182  0.0318 -0.3386
  956loPI    C314275  12.677   4.487   4.905 -0.2110 -0.0259  0.0656
  956loPI   PO414276  13.075   4.734   5.362  0.0266 -0.2751 -0.3373
  956loPI   GL114277  13.231   4.635   5.832 -0.1464 -0.3681 -0.0420
  956loPI   GL214278  13.408   4.355   6.021  0.0455  0.0897  0.0061
  956loPI   C1A14279  13.060   4.637   6.280  0.1356  0.0462 -0.1807
  956loPI   C2A14280  13.056   4.640   6.731 -0.0393  0.3905 -0.0466
  956loPI   C3A14281  13.024   4.528   7.189  0.0987  0.1524 -0.1007
  956loPI   C4A14282  12.894   4.506   7.615 -0.2547 -0.1976  0.2777
  956loPI   C5A14283  12.580   4.395   7.828  0.0030 -0.0937 -0.4898
  956loPI   C6A14284  12.239   4.210   7.720  0.2000 -0.3085  0.2803
  956loPI   C1B14285  13.257   4.199   6.436  0.1553 -0.3289  0.0828
  956loPI   C2B14286  13.176   4.140   6.868 -0.1506 -0.3148  0.0071
  956loPI   C3B14287  12.916   3.978   7.133  0.1093  0.3655 -0.0923
  956loPI   C4B14288  12.726   4.016   7.544 -0.1262 -0.2173 -0.2883
  957loPI    C114289  14.366   3.729   5.430  0.1184 -0.1295 -0.0236
  957loPI    C214290  14.091   3.444   5.487 -0.0955  0.0774 -0.0091
  957loPI    C314291  14.173   3.571   5.117  0.0393 -0.0404 -0.0202
  957loPI   PO414292  14.601   3.679   5.577  0.0211  0.0763  0.0927
  957loPI   GL114293  14.710   3.313   5.795  0.5054 -0.0282 -0.3446
  957loPI   GL214294  14.677   2.995   6.007  0.0134 -0.2620 -0.1569
  957loPI   C1A14295  14.581   3.433   6.174 -0.1973 -0.3530 -0.1160
  957loPI   C2A14296  14.472   3.369   6.616  0.2339 -0.1089 -0.0490
  957loPI   C3A14297  14.217   3.504   6.956 -0.0484 -0.0825  0.2069
  957loPI   C4A14298  14.093   3.470   7.435 -0.3580 -0.2850  0.0079
  957loPI   C5A14299  13.899   3.515   7.940 -0.0020  0.3392 -0.1344
  957loPI   C6A14300  13.795   3.575   8.372 -0.0320  0.0793 -0.0124
  957loPI   C1B14301  14.596   2.904   6.423 -0.1997  0.2509 -0.2950
  957loPI   C2B14302  14.622   2.679   6.772  0.1349  0.0014 -0.0097
  957loPI   C3B14303  14.448   2.512   7.103  0.0759 -0.1283 -0.1353
  957loPI   C4B14304  14.537   2.725   7.508 -0.1599  0.1468  0.1754
  958loPI    C114305  18.560  12.313   5.025 -0.0155 -0.0487  0.0631
  958loPI    C214306  18.811  12.178   4.744  0.0936  0.0482  0.1133
  958loPI    C314307  18.425  12.239   4.656  0.0905 -0.0862  0.0314
  958loPI   PO414308  18.739  12.195   5.241  0.0567  0.0171 -0.0157
  958loPI   GL114309  18.961  12.076   5.589 -0.0162 -0.1846  0.0966
  958loPI   GL214310  18.800  12.054   5.913 -0.2312  0.1050 -0.0931
  958loPI   C1A14311  18.922  12.515   5.987  0.2072  0.3068  0.0366
  958loPI   C2A14312  19.152  12.517   6.474 -0.1733  0.0163  0.2301
  958loPI   C3A14313  19.286  12.677   6.892 -0.2060  0.1141 -0.3605
  958loPI   C4A14314  19.360  12.679   7.284 -0.0052  0.0329 -0.0136
  958loPI   C5A14315  19.382  12.962   7.561  0.1529 -0.1367 -0.0328
  958loPI   C6A14316  19.513  13.407   7.761  0.0352 -0.0586  0.2068
  958loPI   C1B14317  18.839  12.083   6.377  0.0482 -0.1297  0.0588
  958loPI   C2B14318  18.945  12.057   6.741  0.0986 -0.1664 -0.4873
  958loPI   C3B14319  19.068  12.285   7.093 -0.1294 -0.3272  0.0251
  958loPI   C4B14320  19.044  12.306   7.587 -0.0589  0.2559  0.1531
  959loPI    C114321  14.167  16.785   5.571  0.1165 -0.1890  0.0624
  959loPI    C214322  14.187  16.736   5.175  0.1068  0.0913  0.0252
  959loPI    C314323  13.896  16.960   5.334  0.0812 -0.0610  0.1953
  959loPI   PO414324  14.188  16.618   5.679  0.0420 -0.1148  0.0787
  959loPI   GL114325  14.011  16.296   5.977  0.3098 -0.2018 -0.1823
  959loPI   GL214326  13.735  16.450   5.803  0.3061 -0.3366 -0.0592
  959loPI   C1A14327  14.373  16.038   6.208  0.3348  0.0209  0.1276
  959loPI   C2A14328  14.400  16.013   6.610 -0.1454  0.0725  0.0744
  959loPI   C3A14329  14.637  16.238   7.034 -0.0302  0.2451  0.1096
  959loPI   C4A14330  14.786  16.438   7.454  0.1002  0.4529  0.2171
  959loPI   C5A14331  15.106  16.381   7.731 -0.0877 -0.1931 -0.3568
  959loPI   C6A14332  15.504  16.543   7.905  0.2709  0.1870 -0.0335
  959loPI   C1B14333  13.644  16.434   6.285  0.0268  0.1198  0.0638
  959loPI   C2B14334  13.286  16.308   6.460  0.0486 -0.1918 -0.4860
  959loPI   C3B14335  12.920  16.154   6.759 -0.2354 -0.2054 -0.1960
  959loPI   C4B14336  12.896  16.085   7.232 -0.1096  0.2665  0.0779
  960loPI    C114337   3.321   4.839   4.826 -0.2395  0.0703 -0.0697
  960loPI    C214338   3.517   5.151   4.670 -0.1891 -0.0243 -0.1981
  960loPI    C314339   3.637   4.779   4.589 -0.1689 -0.0761  0.0601
  960loPI   PO414340   3.363   4.877   5.094  0.0746 -0.0528 -0.2235
  960loPI   GL114341   3.263   5.067   5.436 -0.2772 -0.0304  0.2625
  960loPI   GL214342   2.993   5.370   5.480 -0.2959  0.2691  0.0401
  960loPI   C1A14343   3.266   5.064   5.943 -0.1476 -0.3881  0.2908
  960loPI   C2A14344   3.323   5.067   6.237 -0.4553 -0.2635 -0.1611
  960loPI   C3A14345   3.365   5.359   6.560 -0.0188 -0.0056  0.0548
  960loPI   C4A14346   3.616   5.274   6.881 -0.0275 -0.0021 -0.2803
  960loPI   C5A14347   3.717   4.997   7.264 -0.1305  0.1424 -0.0452
  960loPI   C6A14348   3.725   4.783   7.721 -0.1227 -0.0009 -0.0682
  960loPI   C1B14349   2.797   5.237   5.713  0.1946  0.0717 -0.2112
  960loPI   C2B14350   2.772   5.224   6.083 -0.0142 -0.2667 -0.4353
  960loPI   C3B14351   2.821   5.232   6.406 -0.2798 -0.1528  0.0515
  960loPI   C4B14352   2.841   5.465   6.797 -0.0334 -0.3677  0.1653
  961loPI    C114353  10.355   4.304   5.430  0.1849 -0.1760  0.1502
  961loPI    C214354  10.039   4.078   5.524  0.0261  0.0246  0.1062
  961loPI    C314355  10.039   4.468   5.611  0.4053 -0.0380  0.4171
  961loPI   PO414356  10.521   4.162   5.389  0.0969  0.1503  0.0070
  961loPI   GL114357  10.726   3.871   5.693 -0.0274  0.1430 -0.1392
  961loPI   GL214358  10.445   3.788   5.635  0.1144 -0.0284 -0.4619
  961loPI   C1A14359  11.027   4.004   6.025  0.0486 -0.0278  0.1412
  961loPI   C2A14360  11.025   4.123   6.504  0.2763 -0.2126 -0.0344
  961loPI   C3A14361  11.036   4.004   6.888 -0.3491  0.0503 -0.1933
  961loPI   C4A14362  10.899   4.013   7.285  0.0891 -0.1585 -0.0897
  961loPI   C5A14363  10.976   4.207   7.706 -0.1407 -0.2672  0.1443
  961loPI   C6A14364  10.920   4.544   7.980 -0.1049  0.3482  0.1769
  961loPI   C1B14365  10.124   3.576   5.928 -0.0647  0.1577 -0.0258
  961loPI   C2B14366   9.897   3.557   6.338  0.1726  0.0855  0.1620
  961loPI   C3B14367   9.548   3.459   6.634 -0.2296  0.2617 -0.3836
  961loPI   C4B14368   9.159   3.461   6.953 -0.1418  0.2693 -0.2573
  962loPI    C114369   7.494   6.383   5.120 -0.0627 -0.3204 -0.0137
  962loPI    C214370   7.258   6.494   4.818  0.0420  0.1424  0.0673
  962loPI    C314371   7.651   6.454   4.759  0.0281 -0.0217  0.0819
  962loPI   PO414372   7.338   6.088   5.189  0.1095  0.2884 -0.4167
  962loPI   GL114373   6.998   5.972   5.460  0.0744 -0.1362 -0.0245
  962loPI   GL214374   6.861   6.175   5.729 -0.1381 -0.0739 -0.0575
  962loPI   C1A14375   7.227   5.917   5.844 -0.0558  0.0742  0.0797
  962loPI   C2A14376   7.200   5.694   6.193  0.2308 -0.4329 -0.2967
  962loPI   C3A14377   7.283   5.730   6.636  0.1199  0.0985  0.3979
  962loPI   C4A14378   7.364   5.751   7.009  0.2153  0.0452 -0.1299
  962loPI   C5A14379   7.628   5.874   7.306 -0.0849  0.1187 -0.0814
  962loPI   C6A14380   7.845   5.884   7.693  0.5069 -0.0730  0.1806
  962loPI   C1B14381   6.921   6.229   6.172 -0.0739 -0.1029  0.1835
  962loPI   C2B14382   6.519   6.181   6.499  0.0791 -0.0614 -0.2029
  962loPI   C3B14383   6.228   6.189   6.860  0.1639  0.0794  0.0522
  962loPI   C4B14384   5.896   5.967   7.122  0.0548  0.2596 -0.0538
  963loPI    C114385  18.580   3.552   5.149 -0.1789  0.1176  0.0203
  963loPI    C214386  18.227   3.733   5.200 -0.2179  0.0134  0.1280
  963loPI    C314387  18.257   3.419   4.955 -0.2324 -0.0712  0.2342
  963loPI   PO414388  18.757   3.468   5.302 -0.0332  0.0148  0.2280
  963loPI   GL114389  19.142   3.630   5.595  0.0353  0.0521 -0.4082
  963loPI   GL214390  19.055   3.463   5.742 -0.1019  0.2054  0.2227
  963loPI   C1A14391  19.475   3.753   5.854 -0.2054  0.1892  0.0379
  963loPI   C2A14392  19.383   3.881   6.221 -0.1432 -0.1047  0.0965
  963loPI   C3A14393  19.222   3.894   6.676 -0.2364  0.2131 -0.0235
  963loPI   C4A14394  19.268   3.976   7.132 -0.2297 -0.0444  0.4140
  963loPI   C5A14395  19.233   3.912   7.463 -0.4023  0.1449  0.1685
  963loPI   C6A14396  18.839   4.047   7.619  0.0918  0.1461  0.1951
  963loPI   C1B14397  19.038   3.495   6.060  0.2681 -0.4076  0.1147
  963loPI   C2B14398  18.971   3.514   6.478  0.1305  0.1907  0.0792
  963loPI   C3B14399  18.957   3.637   6.983 -0.0277  0.1144 -0.0642
  963loPI   C4B14400  18.761   3.586   7.331  0.1255 -0.4684 -0.6478
  964loPI    C114401   0.401   6.812   4.689  0.2479  0.0597 -0.0089
  964loPI    C214402   0.462   6.522   4.957  0.0689 -0.0271 -0.0603
  964loPI    C314403   0.221   6.457   4.645  0.0306  0.1762 -0.0741
  964loPI   PO414404   0.376   7.010   4.918 -0.3667  0.1482  0.0556
  964loPI   GL114405   0.554   6.872   5.315 -0.0571  0.0787  0.2428
  964loPI   GL214406   0.407   6.575   5.469 -0.1918  0.0233 -0.0371
  964loPI   C1A14407   0.442   6.991   5.764 -0.1839  0.1096 -0.2049
  964loPI   C2A14408   0.342   6.956   6.196  0.2216 -0.3816  0.1903
  964loPI   C3A14409   0.229   7.071   6.660  0.0150 -0.0503  0.0548
  964loPI   C4A14410   0.364   7.065   7.132 -0.1065 -0.0210  0.1466
  964loPI   C5A14411   0.161   6.730   7.378 -0.0888 -0.3666  0.2595
  964loPI   C6A14412   0.081   6.440   7.705 -0.2209 -0.0715 -0.0942
  964loPI   C1B14413   0.451   6.179   5.887 -0.2003 -0.1463  0.0473
  964loPI   C2B14414   0.503   6.021   6.286 -0.0249 -0.0755  0.0026
  964loPI   C3B14415   0.723   5.941   6.711 -0.1911 -0.0397 -0.2111
  964loPI   C4B14416   0.773   5.829   7.111 -0.4110  0.1408 -0.0660
  965loPI    C114417  16.044   2.426   4.666 -0.0441  0.1547 -0.1138
  965loPI    C214418  16.341   2.647   4.514  0.0049  0.1528 -0.0217
  965loPI    C314419  16.069   2.815   4.754  0.0178  0.1221  0.0145
  965loPI   PO414420  16.110   2.231   4.916 -0.2253  0.0299 -0.0821
  965loPI   GL114421  16.183   2.051   5.343  0.1326  0.3188 -0.0220
  965loPI   GL214422  15.829   2.144   5.354  0.1406  0.2281  0.0437
  965loPI   C1A14423  16.529   2.336   5.477  0.3518  0.2640  0.1081
  965loPI   C2A14424  16.832   2.649   5.662 -0.1967 -0.1185  0.1798
  965loPI   C3A14425  17.126   2.602   6.005  0.0083  0.2177  0.0379
  965loPI   C4A14426  17.556   2.480   6.140  0.2496  0.1214  0.1455
  965loPI   C5A14427  17.818   2.566   6.413 -0.0935  0.2056 -0.5948
  965loPI   C6A14428  17.917   2.548   6.925  0.2690 -0.1038 -0.0219
  965loPI   C1B14429  16.021   2.213   5.778 -0.1346  0.1482 -0.0979
  965loPI   C2B14430  16.350   2.009   5.809  0.0307 -0.1489  0.1641
  965loPI   C3B14431  16.476   1.784   6.243  0.0631 -0.2422 -0.0655
  965loPI   C4B14432  16.427   1.717   6.632  0.0507  0.1385 -0.2693
  966loPI    C114433  11.372   2.559   5.411  0.0076  0.0834 -0.2275
  966loPI    C214434  11.554   2.209   5.350  0.1657  0.1304 -0.0349
  966loPI    C314435  11.625   2.516   5.104  0.2845  0.1245 -0.0083
  966loPI   PO414436  11.416   2.570   5.731 -0.4326  0.2832  0.3029
  966loPI   GL114437  11.082   2.618   6.017  0.2712  0.2311 -0.2056
  966loPI   GL214438  11.176   2.264   6.094  0.0262 -0.2059 -0.1235
  966loPI   C1A14439  11.104   2.733   6.491 -0.3149  0.5576  0.0324
  966loPI   C2A14440  11.120   2.821   6.893 -0.2254 -0.4321  0.1235
  966loPI   C3A14441  10.950   3.011   7.308  0.1119  0.0259  0.2582
  966loPI   C4A14442  11.119   2.891   7.757 -0.1409  0.0142 -0.0868
  966loPI   C5A14443  11.101   2.415   7.751 -0.1315  0.2335 -0.0534
  966loPI   C6A14444  10.910   2.078   7.584  0.4609 -0.0187  0.3619
  966loPI   C1B14445  11.013   2.209   6.474 -0.1505 -0.3100  0.1091
  966loPI   C2B14446  10.895   2.331   6.897 -0.1230  0.0344  0.0539
  966loPI   C3B14447  10.912   2.504   7.221 -0.0741 -0.0806  0.1219
  966loPI   C4B14448  11.359   2.659   7.317 -0.2424  0.0607 -0.1100
  967loPI    C114449   8.195  12.955   5.536 -0.0462 -0.0212 -0.0343
  967loPI    C214450   8.278  12.921   5.146 -0.0931 -0.0239 -0.0443
  967loPI    C314451   7.913  12.830   5.281 -0.0439 -0.1331  0.0171
  967loPI   PO414452   8.367  13.131   5.623 -0.0595 -0.2551 -0.0256
  967loPI   GL114453   8.788  13.240   5.819  0.0936 -0.0266 -0.0379
  967loPI   GL214454   8.608  12.990   6.039  0.0261 -0.3983 -0.2192
  967loPI   C1A14455   8.953  13.368   6.216 -0.2031  0.0178 -0.0854
  967loPI   C2A14456   8.743  13.444   6.628  0.1507  0.1577  0.2161
  967loPI   C3A14457   8.661  13.302   7.062 -0.1400  0.0854  0.1790
  967loPI   C4A14458   8.639  13.433   7.458 -0.2575  0.0940  0.0728
  967loPI   C5A14459   8.390  13.231   7.702  0.3537  0.0352 -0.1524
  967loPI   C6A14460   8.013  13.187   7.950 -0.0695  0.1273 -0.0805
  967loPI   C1B14461   8.833  12.920   6.405 -0.1258  0.4164 -0.0845
  967loPI   C2B14462   8.804  12.865   6.841 -0.1586  0.0004 -0.2046
  967loPI   C3B14463   8.567  12.757   7.210 -0.4652 -0.1258 -0.0841
  967loPI   C4B14464   8.608  12.411   7.494 -0.2820 -0.1461  0.1308
  968loPI    C114465  11.439  11.079   4.718  0.0304 -0.3645  0.1387
  968loPI    C214466  11.611  10.852   4.437 -0.0103 -0.1218 -0.0860
  968loPI    C314467  11.227  10.960   4.400 -0.1410 -0.4407  0.2798
  968loPI   PO414468  11.586  11.100   5.048  0.0426 -0.0768 -0.2248
  968loPI   GL114469  11.391  11.109   5.411  0.1292  0.0125  0.1763
  968loPI   GL214470  11.507  10.965   5.602  0.0665  0.1373  0.0254
  968loPI   C1A14471  11.276  11.405   5.650 -0.0373 -0.3136  0.0376
  968loPI   C2A14472  11.212  11.652   5.985  0.0601 -0.5157  0.2372
  968loPI   C3A14473  11.151  11.569   6.480 -0.2594 -0.0371  0.3660
  968loPI   C4A14474  11.117  11.510   6.910 -0.0458  0.0195  0.0510
  968loPI   C5A14475  11.070  11.065   7.048 -0.0352  0.3287  0.1504
  968loPI   C6A14476  11.136  10.876   7.426 -0.1831  0.0071 -0.1341
  968loPI   C1B14477  11.430  11.026   6.070  0.1690  0.0993  0.2972
  968loPI   C2B14478  11.415  11.058   6.409  0.1810 -0.1059  0.1902
  968loPI   C3B14479  11.463  11.128   6.785 -0.1446  0.0859 -0.1749
  968loPI   C4B14480  11.579  11.108   7.253  0.1702 -0.0778  0.2774
  969loPI    C114481   3.293   6.099   4.724  0.4781  0.1211  0.3160
  969loPI    C214482   3.435   6.466   4.796  0.3223  0.2620 -0.0697
  969loPI    C314483   3.557   6.264   4.473  0.1658  0.1046 -0.0322
  969loPI   PO414484   3.273   5.968   4.907  0.0123 -0.0913 -0.1462
  969loPI   GL114485   3.347   5.743   5.219  0.0180 -0.1744 -0.0210
  969loPI   GL214486   3.158   5.971   5.403  0.1649  0.2132  0.0506
  969loPI   C1A14487   3.463   5.471   5.657  0.0716 -0.3893  0.0647
  969loPI   C2A14488   3.663   5.477   6.124 -0.2049 -0.4554 -0.1726
  969loPI   C3A14489   3.940   5.480   6.556 -0.1593  0.1049 -0.2566
  969loPI   C4A14490   4.270   5.707   6.904 -0.0975 -0.1124  0.2023
  969loPI   C5A14491   4.375   5.812   7.260 -0.0967 -0.2576  0.0931
  969loPI   C6A14492   4.398   5.887   7.681 -0.2563  0.0634 -0.3255
  969loPI   C1B14493   2.870   6.098   5.685 -0.1446 -0.3709 -0.0414
  969loPI   C2B14494   2.852   6.113   6.160  0.3972 -0.0270  0.0233
  969loPI   C3B14495   3.109   5.808   6.396  0.5261 -0.0776 -0.1402
  969loPI   C4B14496   3.260   5.715   6.870 -0.0623  0.1507 -0.2404
  970loPI    C114497   9.533  15.516   5.383  0.1463  0.0632  0.1275
  970loPI    C214498   9.570  15.908   5.315  0.0513  0.0414 -0.0534
  970loPI    C314499   9.538  15.654   5.008 -0.1295 -0.0841  0.0671
  970loPI   PO414500   9.485  15.593   5.756  0.2015 -0.1687  0.1888
  970loPI   GL114501   9.755  15.691   6.086 -0.3492  0.0186 -0.3409
  970loPI   GL214502  10.076  15.672   5.985 -0.0222  0.0472  0.0509
  970loPI   C1A14503   9.770  15.711   6.408 -0.0203 -0.2062 -0.0440
  970loPI   C2A14504  10.172  15.569   6.696  0.2811  0.1220  0.3406
  970loPI   C3A14505  10.134  15.272   7.028 -0.0048 -0.3019 -0.0471
  970loPI   C4A14506  10.142  14.948   7.283 -0.2134  0.1501  0.4522
  970loPI   C5A14507  10.191  14.629   7.482 -0.1962  0.0618 -0.3143
  970loPI   C6A14508  10.322  14.246   7.730 -0.2662  0.0723 -0.1928
  970loPI   C1B14509  10.450  15.665   6.245 -0.0338  0.1961  0.0485
  970loPI   C2B14510  10.606  15.338   6.618 -0.2727 -0.0626  0.2495
  970loPI   C3B14511  10.616  15.334   7.077 -0.1020  0.1514  0.0377
  970loPI   C4B14512  10.596  15.530   7.518  0.0389 -0.2448  0.0931
  971loPI    C114513  14.183   9.916   4.983  0.1455  0.0215  0.0040
  971loPI    C214514  14.410   9.586   4.990  0.0027 -0.0750  0.1882
  971loPI    C314515  14.079   9.597   4.766  0.1410  0.0354 -0.0144
  971loPI   PO414516  14.184   9.973   5.190 -0.0099 -0.4139 -0.0886
  971loPI   GL114517  13.889  10.368   5.384  0.1777  0.0967 -0.0025
  971loPI   GL214518  13.903  10.318   5.755  0.2304 -0.3612  0.2007
  971loPI   C1A14519  13.713  10.755   5.623  0.0844 -0.2800 -0.0251
  971loPI   C2A14520  13.843  10.881   6.015 -0.0899 -0.1955 -0.1961
  971loPI   C3A14521  13.791  11.033   6.432  0.3927  0.1052  0.0809
  971loPI   C4A14522  13.810  11.041   6.904  0.1737 -0.0230  0.1588
  971loPI   C5A14523  13.698  11.043   7.369 -0.0720  0.2909 -0.0121
  971loPI   C6A14524  13.632  10.692   7.710  0.0730  0.2120 -0.1557
  971loPI   C1B14525  14.036  10.403   6.117  0.2043 -0.0743  0.1693
  971loPI   C2B14526  13.811  10.447   6.380 -0.0256 -0.2651  0.5452
  971loPI   C3B14527  13.821  10.535   6.838  0.1723  0.1121  0.0315
  971loPI   C4B14528  13.851  10.512   7.299  0.1121 -0.0778 -0.2030
  972loPI    C114529   6.174   8.975   4.974 -0.0250 -0.1521  0.0252
  972loPI    C214530   6.246   9.306   4.762 -0.2203 -0.1319 -0.0113
  972loPI    C314531   6.460   8.975   4.695 -0.0301 -0.0164  0.0192
  972loPI   PO414532   6.165   8.946   5.295  0.1196  0.1690 -0.0558
  972loPI   GL114533   6.330   8.678   5.632  0.3514 -0.1649  0.0028
  972loPI   GL214534   6.000   8.604   5.710  0.0636  0.0582  0.0686
  972loPI   C1A14535   6.471   8.555   6.046 -0.2418  0.1382  0.2159
  972loPI   C2A14536   6.465   8.436   6.451 -0.3434 -0.0827 -0.1477
  972loPI   C3A14537   6.323   8.607   6.852  0.0583  0.1513 -0.1573
  972loPI   C4A14538   6.374   8.590   7.426 -0.0141  0.4629  0.1513
  972loPI   C5A14539   6.578   8.421   7.758 -0.0607 -0.1276 -0.0760
  972loPI   C6A14540   6.674   8.413   8.157 -0.0881  0.0363 -0.1969
  972loPI   C1B14541   5.931   8.604   6.088 -0.0509 -0.1794  0.3508
  972loPI   C2B14542   5.949   8.392   6.457 -0.1601  0.0572 -0.2171
  972loPI   C3B14543   5.622   8.309   6.808 -0.1547  0.0681 -0.5495
  972loPI   C4B14544   5.371   8.357   7.187 -0.1800 -0.2053 -0.2267
  973loPI    C114545   5.715  12.948   5.227  0.2425  0.0397  0.1276
  973loPI    C214546   5.617  13.257   5.461  0.0884  0.1055 -0.0220
  973loPI    C314547   5.753  13.322   5.090  0.0280 -0.0068 -0.0641
  973loPI   PO414548   5.787  12.787   5.455 -0.0035  0.2847  0.3943
  973loPI   GL114549   5.938  12.645   5.789 -0.3331 -0.1546  0.2285
  973loPI   GL214550   6.162  12.520   5.920  0.1952 -0.0015 -0.3269
  973loPI   C1A14551   5.941  12.881   6.154 -0.1050 -0.1105 -0.0626
  973loPI   C2A14552   5.904  12.827   6.602  0.0016 -0.1079  0.0551
  973loPI   C3A14553   5.681  12.960   6.875  0.2015  0.0014 -0.2465
  973loPI   C4A14554   5.709  13.085   7.232  0.2490 -0.2023 -0.2513
  973loPI   C5A14555   6.035  13.026   7.612  0.0132 -0.2548  0.0399
  973loPI   C6A14556   6.330  13.094   7.934 -0.3123  0.0854 -0.1279
  973loPI   C1B14557   5.819  12.380   6.305  0.0414 -0.0515 -0.1151
  973loPI   C2B14558   5.487  12.291   6.610  0.0231 -0.2454  0.1425
  973loPI   C3B14559   5.052  12.462   6.737  0.1421 -0.3500  0.1373
  973loPI   C4B14560   4.705  12.692   6.602  0.0298 -0.0057  0.2165
  974loPI    C114561   2.224   5.617   4.838 -0.1934  0.0375 -0.0209
  974loPI    C214562   2.392   5.662   4.478  0.0962  0.1705  0.1272
  974loPI    C314563   2.149   5.352   4.548  0.0704  0.1210 -0.1688
  974loPI   PO414564   2.340   5.658   4.993 -0.0222  0.2145 -0.0845
  974loPI   GL114565   2.269   5.501   5.465 -0.1363  0.0064 -0.1137
  974loPI   GL214566   2.155   5.234   5.523 -0.0557  0.3018  0.0041
  974loPI   C1A14567   2.116   5.804   5.714  0.0781 -0.0672  0.0425
  974loPI   C2A14568   2.116   5.870   6.179 -0.2421  0.2615  0.0355
  974loPI   C3A14569   1.902   5.987   6.546 -0.0707 -0.0492  0.1508
  974loPI   C4A14570   1.665   6.161   6.870  0.0574  0.1761 -0.1510
  974loPI   C5A14571   1.422   6.382   7.200 -0.0076  0.1536 -0.1785
  974loPI   C6A14572   1.368   6.794   7.501 -0.2389 -0.0247  0.0976
  974loPI   C1B14573   2.196   5.337   5.956  0.0594  0.0628  0.4520
  974loPI   C2B14574   2.250   5.429   6.411 -0.0579  0.1287  0.2565
  974loPI   C3B14575   2.267   5.651   6.811  0.1925 -0.2260  0.2198
  974loPI   C4B14576   2.492   5.854   7.155 -0.0812 -0.0275 -0.2172
  975loPI    C114577  11.448   6.813   5.044  0.0795 -0.0231 -0.1199
  975loPI    C214578  11.441   6.896   4.653  0.1861 -0.0718 -0.1324
  975loPI    C314579  11.118   6.739   4.830  0.0958  0.0635 -0.1755
  975loPI   PO414580  11.575   6.967   5.168  0.0716  0.0267  0.2223
  975loPI   GL114581  11.794   6.931   5.569 -0.1433 -0.3084 -0.4088
  975loPI   GL214582  11.910   7.117   5.787  0.0987  0.0640  0.2662
  975loPI   C1A14583  11.749   6.794   6.077 -0.0131  0.2404 -0.1954
  975loPI   C2A14584  12.003   6.604   6.459  0.0589 -0.1051  0.0637
  975loPI   C3A14585  12.198   6.720   6.908  0.3789 -0.0416  0.4232
  975loPI   C4A14586  12.714   6.569   7.037  0.0893 -0.1023 -0.1114
  975loPI   C5A14587  12.853   6.448   7.536 -0.0240 -0.1317  0.0713
  975loPI   C6A14588  12.535   6.056   7.615  0.1996 -0.0937 -0.0109
  975loPI   C1B14589  11.604   7.262   6.146 -0.3133  0.1360 -0.0079
  975loPI   C2B14590  11.687   7.036   6.588  0.0428  0.1672 -0.3366
  975loPI   C3B14591  11.609   6.749   6.946  0.1071  0.0747  0.1336
  975loPI   C4B14592  11.432   6.639   7.326  0.0021  0.3499 -0.0915
  976loPI    C114593  14.133  18.395   5.230 -0.0026 -0.0998  0.1878
  976loPI    C214594  14.486  18.272   5.371 -0.0326 -0.2443  0.1393
  976loPI    C314595  14.327  18.096   5.049  0.1375  0.2243 -0.2129
  976loPI   PO414596  13.987  18.442   5.466  0.2689  0.0224  0.1213
  976loPI   GL114597  14.093  18.355   5.778  0.0490  0.0504 -0.1682
  976loPI   GL214598  14.319  18.041   5.884 -0.0788 -0.0738  0.1776
  976loPI   C1A14599  13.703  18.370   6.079  0.0027  0.1692 -0.1604
  976loPI   C2A14600  13.525  18.400   6.418  0.0595 -0.1937 -0.2343
  976loPI   C3A14601  13.534  18.760   6.798 -0.1384 -0.1218 -0.0720
  976loPI   C4A14602  13.608  18.705   7.229  0.3169  0.0941 -0.0944
  976loPI   C5A14603  13.539  18.697   7.602  0.0662 -0.0282  0.2425
  976loPI   C6A14604  13.909  18.824   7.835 -0.0894 -0.1593  0.2017
  976loPI   C1B14605  14.142  18.181   6.247  0.1851 -0.3534  0.2747
  976loPI   C2B14606  13.822  18.067   6.529 -0.2756  0.0118 -0.0126
  976loPI   C3B14607  13.907  17.787   6.928 -0.0536 -0.2430  0.3752
  976loPI   C4B14608  13.992  17.560   7.132 -0.0655 -0.0357 -0.3563
  977loPI    C114609   4.607   0.916   5.249  0.0248  0.1322 -0.2109
  977loPI    C214610   4.576   1.133   5.583 -0.1624  0.1438 -0.2349
  977loPI    C314611   4.902   1.165   5.353  0.0531 -0.0039  0.0429
  977loPI   PO414612   4.556   0.744   5.283 -0.1908 -0.0250  0.1517
  977loPI   GL114613   4.533   0.678   5.791 -0.1543  0.1570 -0.0562
  977loPI   GL214614   4.734   0.608   6.062  0.0077 -0.0562 -0.0791
  977loPI   C1A14615   4.495   1.070   6.056 -0.0081 -0.3113 -0.1642
  977loPI   C2A14616   4.275   1.376   6.473  0.1034  0.0371  0.2043
  977loPI   C3A14617   4.380   1.526   6.916 -0.0810  0.1012  0.0695
  977loPI   C4A14618   4.393   1.699   7.358 -0.1358  0.2423 -0.1063
  977loPI   C5A14619   4.139   1.752   7.805 -0.2548 -0.3723  0.0175
  977loPI   C6A14620   3.877   1.506   8.035  0.0637  0.1672  0.0778
  977loPI   C1B14621   4.726   0.534   6.495 -0.0712 -0.3647  0.0621
  977loPI   C2B14622   4.731   0.647   6.951 -0.1844 -0.0773  0.0077
  977loPI   C3B14623   4.801   0.771   7.295  0.1544 -0.0198  0.1931
  977loPI   C4B14624   5.001   0.897   7.615 -0.1733  0.1127 -0.1061
  978loPI    C114625   9.343  12.560   4.843 -0.0796 -0.0680 -0.1539
  978loPI    C214626   9.277  12.928   4.702 -0.1722 -0.0659 -0.1059
  978loPI    C314627   8.999  12.644   4.658 -0.2265 -0.0499  0.1215
  978loPI   PO414628   9.426  12.615   5.200 -0.1487 -0.1601 -0.0028
  978loPI   GL114629   9.517  12.613   5.498 -0.2660  0.2560  0.0903
  978loPI   GL214630   9.826  12.747   5.431  0.0394  0.3256 -0.1687
  978loPI   C1A14631   9.658  12.745   5.915 -0.4171  0.0725  0.0007
  978loPI   C2A14632   9.922  12.739   6.264 -0.0791 -0.0281 -0.2524
  978loPI   C3A14633   9.824  12.763   6.715 -0.0527  0.1010  0.0986
  978loPI   C4A14634   9.667  12.706   7.190 -0.1459 -0.1650  0.2460
  978loPI   C5A14635   9.623  12.260   7.291 -0.2181  0.0881 -0.0646
  978loPI   C6A14636   9.432  11.828   7.221 -0.1907  0.1347 -0.1553
  978loPI   C1B14637  10.091  12.997   5.561 -0.1366 -0.3439 -0.0355
  978loPI   C2B14638  10.192  13.120   5.979 -0.2416  0.0013 -0.0940
  978loPI   C3B14639  10.308  12.970   6.463 -0.0102 -0.0101  0.1726
  978loPI   C4B14640  10.230  13.031   6.935 -0.1496 -0.1967 -0.1173
  979loPI    C114641  18.327  11.046   5.659 -0.2046  0.0414  0.0200
  979loPI    C214642  18.127  11.049   5.313 -0.0769  0.1519 -0.0541
  979loPI    C314643  18.484  10.869   5.336  0.0043  0.3142 -0.0322
  979loPI   PO414644  18.325  11.326   5.715 -0.1837 -0.0317 -0.0260
  979loPI   GL114645  18.077  11.420   6.001 -0.5555  0.2015  0.0103
  979loPI   GL214646  17.914  11.130   5.993 -0.0417  0.0799  0.0888
  979loPI   C1A14647  18.332  11.566   6.337  0.0758  0.0978 -0.1629
  979loPI   C2A14648  18.473  11.700   6.752 -0.0871 -0.0377  0.0267
  979loPI   C3A14649  18.549  11.847   7.071 -0.2059  0.2647  0.0003
  979loPI   C4A14650  18.752  11.927   7.457 -0.1947 -0.2689 -0.0401
  979loPI   C5A14651  18.761  11.826   7.923 -0.2931 -0.3713 -0.1262
  979loPI   C6A14652  18.651  11.893   8.336  0.0470 -0.0990  0.3602
  979loPI   C1B14653  17.909  11.216   6.442 -0.2455 -0.0747  0.2620
  979loPI   C2B14654  18.072  11.388   6.777  0.1225 -0.1697 -0.1462
  979loPI   C3B14655  18.237  11.429   7.211 -0.3021 -0.3292  0.0277
  979loPI   C4B14656  18.282  11.125   7.649 -0.0996 -0.3154  0.3217
  980loPI    C114657   8.730  11.069   5.221 -0.1187  0.0536 -0.1283
  980loPI    C214658   8.756  11.210   4.848 -0.0286  0.0258 -0.1327
  980loPI    C314659   9.029  11.315   5.121  0.0268 -0.1225 -0.1305
  980loPI   PO414660   8.592  10.901   5.320 -0.3202  0.1856  0.0317
  980loPI   GL114661   8.239  10.912   5.570  0.0774 -0.0289  0.1092
  980loPI   GL214662   8.239  11.146   5.793  0.1351  0.0285 -0.0481
  980loPI   C1A14663   8.020  10.528   5.869 -0.2527  0.0156 -0.1630
  980loPI   C2A14664   7.972  10.689   6.197 -0.5409  0.0411 -0.2179
  980loPI   C3A14665   7.881  10.841   6.651 -0.2294  0.5336 -0.0909
  980loPI   C4A14666   7.913  10.553   6.933 -0.1808  0.1181 -0.1097
  980loPI   C5A14667   7.816  10.371   7.305  0.1340 -0.0981 -0.0738
  980loPI   C6A14668   8.015   9.993   7.552  0.1296  0.0973 -0.0731
  980loPI   C1B14669   8.119  11.183   6.245 -0.1754 -0.1858 -0.0120
  980loPI   C2B14670   8.166  11.235   6.723 -0.0579  0.0449  0.5127
  980loPI   C3B14671   8.153  11.257   7.110  0.0731  0.0211 -0.0115
  980loPI   C4B14672   8.099  11.223   7.520 -0.1238  0.0356 -0.2258
  981loPI    C114673   7.722  14.754   5.433 -0.0630 -0.0316 -0.2752
  981loPI    C214674   7.819  14.492   5.147 -0.0923 -0.0998 -0.2229
  981loPI    C314675   8.072  14.786   5.243  0.1620 -0.4035  0.0607
  981loPI   PO414676   7.599  14.561   5.611 -0.1337  0.0140  0.0280
  981loPI   GL114677   7.779  14.459   5.936 -0.1677  0.0912 -0.1481
  981loPI   GL214678   7.951  14.617   6.120 -0.0696  0.1042 -0.0495
  981loPI   C1A14679   7.581  14.114   6.211  0.0346 -0.2102 -0.0827
  981loPI   C2A14680   7.561  13.851   6.649 -0.0008  0.1574 -0.1723
  981loPI   C3A14681   7.715  13.892   7.090  0.0070  0.1943  0.0747
  981loPI   C4A14682   7.914  13.956   7.434 -0.2012 -0.1296  0.0945
  981loPI   C5A14683   8.148  14.240   7.500 -0.0333  0.3088 -0.0181
  981loPI   C6A14684   8.580  14.418   7.609  0.1895  0.0747 -0.1395
  981loPI   C1B14685   7.987  14.345   6.458  0.1122 -0.0109 -0.0658
  981loPI   C2B14686   8.366  14.296   6.727  0.0893 -0.0227  0.2559
  981loPI   C3B14687   8.575  14.186   7.100  0.1224  0.0941  0.0457
  981loPI   C4B14688   8.608  13.948   7.424  0.0160 -0.0217 -0.0526
  982loPI    C114689  16.930   7.700   5.242  0.1741 -0.2289  0.0369
  982loPI    C214690  17.000   8.070   5.107 -0.0338 -0.0990  0.2771
  982loPI    C314691  17.176   7.757   4.932  0.2560  0.1239  0.1615
  982loPI   PO414692  16.925   7.717   5.462 -0.2069  0.0148  0.0570
  982loPI   GL114693  16.654   7.842   5.891 -0.2754  0.0603  0.1068
  982loPI   GL214694  16.890   7.744   6.000  0.1355 -0.3027  0.0295
  982loPI   C1A14695  16.546   7.869   6.329  0.1398 -0.0223  0.0962
  982loPI   C2A14696  16.585   7.932   6.801  0.1753  0.1295  0.0177
  982loPI   C3A14697  16.688   8.023   7.244  0.0953 -0.0033 -0.0559
  982loPI   C4A14698  16.830   7.967   7.756  0.0329 -0.1223 -0.0346
  982loPI   C5A14699  16.790   7.573   7.932 -0.2320  0.0598  0.1229
  982loPI   C6A14700  16.629   7.108   8.095  0.3487 -0.0105  0.0888
  982loPI   C1B14701  17.003   7.683   6.505  0.1013  0.1742  0.1142
  982loPI   C2B14702  17.349   7.502   6.735 -0.0369  0.0432 -0.2288
  982loPI   C3B14703  17.527   7.228   7.058  0.0444  0.0820  0.3696
  982loPI   C4B14704  17.732   7.353   7.394 -0.2308  0.0195  0.2756
  983loPI    C114705   8.316  11.458   5.352  0.3153  0.0652  0.1302
  983loPI    C214706   8.304  11.188   5.057  0.0985  0.0494  0.1516
  983loPI    C314707   7.983  11.245   5.289  0.0688  0.4732  0.0149
  983loPI   PO414708   8.581  11.581   5.303  0.1040  0.1905  0.3903
  983loPI   GL114709   8.669  11.788   5.688  0.1558 -0.1264 -0.3153
  983loPI   GL214710   8.577  12.088   5.884 -0.2415 -0.2331  0.1631
  983loPI   C1A14711   8.945  11.858   6.092 -0.1101  0.3486 -0.0151
  983loPI   C2A14712   9.225  11.906   6.491  0.1337 -0.2496  0.0338
  983loPI   C3A14713   9.205  12.022   6.833 -0.1648 -0.1165  0.2716
  983loPI   C4A14714   9.122  12.197   7.318 -0.0001  0.0297 -0.0361
  983loPI   C5A14715   9.156  12.236   7.805  0.6230 -0.3805 -0.1398
  983loPI   C6A14716   8.999  12.340   8.265 -0.0658 -0.1858  0.3752
  983loPI   C1B14717   8.230  12.012   6.124  0.2587  0.2810  0.2002
  983loPI   C2B14718   8.213  11.713   6.415 -0.6506  0.4244  0.0008
  983loPI   C3B14719   8.322  11.730   6.898  0.1396 -0.4257 -0.1516
  983loPI   C4B14720   8.399  12.084   7.084  0.1498 -0.2330  0.0139
  984loPI    C114721   4.304   7.838   4.854 -0.2610 -0.0315 -0.1356
  984loPI    C214722   3.920   7.828   4.967 -0.2647  0.0399 -0.1419
  984loPI    C314723   4.039   7.621   4.646 -0.2851 -0.0347 -0.1015
  984loPI   PO414724   4.399   7.814   5.115  0.1868  0.1276  0.1811
  984loPI   GL114725   4.555   7.873   5.574 -0.3554 -0.0227 -0.1235
  984loPI   GL214726   4.269   7.768   5.824  0.2329  0.1338 -0.2171
  984loPI   C1A14727   4.853   8.251   5.681 -0.1222  0.1759  0.2646
  984loPI   C2A14728   4.784   8.577   5.822 -0.0333 -0.1248 -0.0457
  984loPI   C3A14729   4.636   8.921   5.993 -0.1657 -0.3636 -0.0645
  984loPI   C4A14730   4.523   8.984   6.340 -0.0127  0.2664 -0.4251
  984loPI   C5A14731   4.555   8.870   6.752 -0.1819 -0.1151 -0.0943
  984loPI   C6A14732   4.397   8.853   7.242 -0.0586  0.0380  0.1907
  984loPI   C1B14733   4.011   7.332   5.949  0.0182 -0.4826 -0.2029
  984loPI   C2B14734   3.751   6.995   6.099 -0.0976 -0.2879 -0.0344
  984loPI   C3B14735   3.387   6.837   6.055 -0.2745 -0.0678  0.1196
  984loPI   C4B14736   3.083   6.794   6.263 -0.0166  0.4185  0.1315
  985loPI    C114737  11.101   6.272   5.034 -0.0198 -0.1551 -0.1554
  985loPI    C214738  11.205   6.136   4.672  0.1075 -0.2149 -0.0969
  985loPI    C314739  10.840   6.289   4.731  0.1826  0.0595 -0.3218
  985loPI   PO414740  11.219   6.410   5.247  0.1036  0.2112 -0.1164
  985loPI   GL114741  11.077   6.386   5.742  0.1361  0.0222 -0.0187
  985loPI   GL214742  11.342   6.326   5.729  0.1731  0.1636 -0.1125
  985loPI   C1A14743  10.864   6.409   6.020 -0.0909  0.1618 -0.1773
  985loPI   C2A14744  10.817   6.219   6.430 -0.2996 -0.2375  0.0514
  985loPI   C3A14745  10.602   6.142   6.801 -0.2140  0.0022  0.3149
  985loPI   C4A14746  10.722   5.855   7.082 -0.0188  0.1327 -0.0831
  985loPI   C5A14747  10.837   5.847   7.571 -0.1691  0.0516  0.3357
  985loPI   C6A14748  11.104   5.648   7.939 -0.3194 -0.2453  0.0205
  985loPI   C1B14749  11.442   6.329   6.153 -0.0177  0.0532  0.3765
  985loPI   C2B14750  11.438   6.422   6.560 -0.0436  0.0308  0.2820
  985loPI   C3B14751  11.172   6.261   6.927  0.2428 -0.2538  0.1532
  985loPI   C4B14752  10.963   6.333   7.306 -0.0455 -0.0322  0.0241
  986loPI    C114753   6.864  15.191   5.452 -0.2275  0.0492 -0.0320
  986loPI    C214754   6.645  15.342   5.152 -0.1746 -0.0364 -0.1141
  986loPI    C314755   7.017  15.212   5.083 -0.1092  0.0776  0.0182
  986loPI   PO414756   6.809  15.305   5.731  0.0507 -0.0015  0.3359
  986loPI   GL114757   6.612  15.371   6.047  0.1228 -0.0757  0.1314
  986loPI   GL214758   6.826  15.518   6.236 -0.1050  0.2330  0.0777
  986loPI   C1A14759   6.521  15.079   6.428 -0.1504  0.0604 -0.0477
  986loPI   C2A14760   6.716  15.104   6.813  0.1256 -0.1717  0.4384
  986loPI   C3A14761   6.495  15.186   7.216 -0.0649 -0.2589  0.4635
  986loPI   C4A14762   6.725  15.164   7.527 -0.1072 -0.1073  0.5221
  986loPI   C5A14763   7.009  15.123   7.899  0.0581  0.1736 -0.1150
  986loPI   C6A14764   7.219  15.036   8.233 -0.0106  0.1069  0.0148
  986loPI   C1B14765   6.986  15.546   6.657  0.0567  0.2785  0.1483
  986loPI   C2B14766   7.008  15.414   7.093 -0.1893  0.1963 -0.1323
  986loPI   C3B14767   7.218  15.183   7.405 -0.0801  0.1079  0.1376
  986loPI   C4B14768   7.384  14.837   7.694 -0.1527 -0.2117  0.0896
  987loPI    C114769   7.144  13.216   5.476  0.0760  0.3082 -0.1341
  987loPI    C214770   7.315  12.875   5.354 -0.1371  0.1175  0.0916
  987loPI    C314771   7.395  13.218   5.164  0.2792 -0.0129  0.0227
  987loPI   PO414772   7.130  13.198   5.729  0.1160 -0.2271  0.2373
  987loPI   GL114773   7.422  13.399   6.036  0.1129  0.0206  0.1519
  987loPI   GL214774   7.607  13.251   6.174 -0.0052  0.1025 -0.5040
  987loPI   C1A14775   7.266  13.752   6.250  0.1629 -0.0896 -0.2639
  987loPI   C2A14776   7.101  13.930   6.639 -0.0231 -0.0831 -0.1570
  987loPI   C3A14777   6.658  14.135   6.748  0.0484  0.2130  0.1008
  987loPI   C4A14778   6.660  14.114   7.108  0.1483  0.3698  0.2011
  987loPI   C5A14779   6.755  14.247   7.414 -0.1221 -0.1490 -0.0343
  987loPI   C6A14780   6.641  14.232   7.835 -0.1081 -0.0536  0.0313
  987loPI   C1B14781   7.625  13.406   6.610 -0.2471  0.0275  0.1489
  987loPI   C2B14782   7.676  13.252   6.973 -0.2781 -0.3420  0.3487
  987loPI   C3B14783   7.798  13.455   7.249  0.2015 -0.2977  0.1311
  987loPI   C4B14784   7.737  13.411   7.626 -0.2789  0.0592 -0.3083
  988loPI    C114785  14.558   5.631   5.771 -0.1647  0.1095  0.0931
  988loPI    C214786  14.515   5.305   5.998  0.0520  0.0428  0.0406
  988loPI    C314787  14.265   5.371   5.693  0.1463 -0.1945 -0.0906
  988loPI   PO414788  14.850   5.667   5.754  0.2931  0.0272  0.0497
  988loPI   GL114789  15.227   5.418   5.989 -0.0951  0.0905 -0.0146
  988loPI   GL214790  15.473   5.615   5.945 -0.0622  0.0511 -0.0726
  988loPI   C1A14791  15.059   5.566   6.373 -0.0734  0.2534 -0.0453
  988loPI   C2A14792  15.104   5.903   6.672 -0.2213 -0.1205  0.1922
  988loPI   C3A14793  15.197   6.213   7.053 -0.0727 -0.2532  0.0287
  988loPI   C4A14794  15.402   6.449   7.303  0.2810  0.0608 -0.1731
  988loPI   C5A14795  15.510   6.701   7.609 -0.4032  0.1706  0.1260
  988loPI   C6A14796  15.580   7.104   7.658 -0.1444 -0.0999  0.1821
  988loPI   C1B14797  15.588   5.829   6.419  0.0318  0.0712 -0.2697
  988loPI   C2B14798  15.563   5.906   6.889  0.1139  0.0541  0.1611
  988loPI   C3B14799  15.633   5.933   7.280 -0.1037  0.1684  0.1739
  988loPI   C4B14800  15.494   6.026   7.647  0.1073  0.1135 -0.0646
  989loPI    C114801   9.749  11.775   4.993  0.0918 -0.0306 -0.1283
  989loPI    C214802   9.652  11.426   4.822  0.0733 -0.1232  0.0688
  989loPI    C314803   9.454  11.552   5.147 -0.1304  0.2208 -0.1812
  989loPI   PO414804  10.020  11.756   5.040  0.0888 -0.3139  0.1052
  989loPI   GL114805  10.214  11.644   5.479 -0.3353 -0.0845  0.1462
  989loPI   GL214806  10.282  11.969   5.476 -0.1988  0.0395  0.3027
  989loPI   C1A14807  10.055  11.751   5.874  0.4205  0.1223 -0.2021
  989loPI   C2A14808  10.146  11.706   6.325 -0.4275 -0.0753 -0.0331
  989loPI   C3A14809  10.146  11.698   6.705 -0.1281  0.0562  0.1465
  989loPI   C4A14810  10.164  11.786   7.172  0.0818  0.0455  0.0507
  989loPI   C5A14811  10.445  11.959   7.348 -0.0904  0.0800 -0.0754
  989loPI   C6A14812  10.490  12.263   7.578  0.1603  0.0455  0.3390
  989loPI   C1B14813  10.423  12.098   5.965 -0.4367 -0.1162  0.2655
  989loPI   C2B14814  10.460  12.098   6.414 -0.1127  0.1400 -0.0663
  989loPI   C3B14815  10.434  12.113   6.870 -0.0859 -0.2325  0.2239
  989loPI   C4B14816  10.114  12.327   7.166 -0.0415 -0.0219  0.1961
  990loPI    C114817  16.343   2.931   5.262  0.1009 -0.1883  0.0840
  990loPI    C214818  15.989   3.043   5.409  0.2095  0.0180  0.1910
  990loPI    C314819  16.064   2.656   5.344 -0.0684 -0.0195  0.0797
  990loPI   PO414820  16.557   3.162   5.429  0.1393  0.1887  0.0717
  990loPI   GL114821  16.552   3.106   5.846  0.1919 -0.3145 -0.0863
  990loPI   GL214822  16.182   3.222   5.842 -0.0290 -0.1825 -0.0422
  990loPI   C1A14823  16.399   3.068   6.284 -0.1302  0.0489  0.0075
  990loPI   C2A14824  16.176   3.074   6.721  0.0062 -0.1221  0.3909
  990loPI   C3A14825  16.049   2.892   7.142  0.0303 -0.1134  0.0770
  990loPI   C4A14826  15.862   2.595   7.415 -0.2060 -0.0249  0.0080
  990loPI   C5A14827  15.642   2.391   7.574 -0.1460 -0.2926 -0.1105
  990loPI   C6A14828  15.717   2.298   7.973 -0.2635  0.0931 -0.1237
  990loPI   C1B14829  16.119   3.461   6.262  0.0132 -0.0256  0.5179
  990loPI   C2B14830  16.014   3.584   6.650  0.0521  0.2295 -0.2836
  990loPI   C3B14831  15.953   3.404   7.143 -0.3545  0.0134 -0.0692
  990loPI   C4B14832  16.005   3.161   7.584 -0.0555 -0.3258  0.0682
  991loPI    C114833   9.354  15.019   5.452 -0.0880  0.1397 -0.0332
  991loPI    C214834   9.626  14.766   5.598 -0.2191  0.0639  0.0822
  991loPI    C314835   9.728  15.025   5.311 -0.0041  0.0951  0.1844
  991loPI   PO414836   9.286  15.130   5.742 -0.0618 -0.2189  0.5184
  991loPI   GL114837   9.321  15.335   6.130 -0.1504  0.1436 -0.2714
  991loPI   GL214838   9.648  15.217   6.285 -0.2361 -0.1491  0.1374
  991loPI   C1A14839   9.318  15.501   6.490 -0.2284 -0.0435 -0.2332
  991loPI   C2A14840   8.985  15.709   6.808 -0.1160  0.4085 -0.2202
  991loPI   C3A14841   8.626  15.691   6.979  0.0710  0.1132  0.2336
  991loPI   C4A14842   8.660  15.763   7.477 -0.3274  0.1160 -0.0243
  991loPI   C5A14843   8.939  15.605   7.857  0.1522 -0.1932 -0.2594
  991loPI   C6A14844   9.125  15.180   8.004 -0.1439 -0.0870  0.2087
  991loPI   C1B14845   9.715  15.319   6.744 -0.0028 -0.1710  0.0361
  991loPI   C2B14846   9.685  15.095   7.140  0.0128 -0.1607 -0.0097
  991loPI   C3B14847   9.672  14.932   7.515  0.2676  0.3759 -0.4440
  991loPI   C4B14848   9.314  14.801   7.713 -0.0766 -0.1741 -0.1750
  992loPI    C114849  13.804   3.148   5.027  0.0810  0.0739  0.1080
  992loPI    C214850  14.087   2.968   5.244  0.1992  0.2048  0.0642
  992loPI    C314851  14.166   3.082   4.869 -0.0201 -0.0673 -0.0685
  992loPI   PO414852  13.719   3.255   5.080  0.1522  0.0300 -0.3132
  992loPI   GL114853  13.490   3.264   5.390  0.0435 -0.0713 -0.0981
  992loPI   GL214854  13.713   3.028   5.611 -0.2105 -0.0997  0.1833
  992loPI   C1A14855  13.258   3.175   5.752 -0.3596 -0.0078  0.1933
  992loPI   C2A14856  13.237   3.065   6.053 -0.3727 -0.2117  0.0051
  992loPI   C3A14857  13.199   3.162   6.528  0.0271  0.1560  0.1884
  992loPI   C4A14858  13.238   3.196   6.951 -0.1376 -0.2736  0.4402
  992loPI   C5A14859  13.017   3.104   7.306  0.0128  0.0749  0.0065
  992loPI   C6A14860  12.714   3.062   7.515 -0.1642  0.3966 -0.2306
  992loPI   C1B14861  13.753   2.977   5.905  0.1756  0.1508  0.0955
  992loPI   C2B14862  13.585   2.873   6.344 -0.0594 -0.2991  0.1924
  992loPI   C3B14863  13.500   2.813   6.803 -0.1134 -0.0436 -0.0929
  992loPI   C4B14864  13.540   2.606   7.213 -0.0600  0.0900 -0.0846
  993loPI    C114865  13.630  13.936   5.093 -0.1714  0.1888  0.1926
  993loPI    C214866  13.479  14.307   5.108 -0.1528  0.2025  0.0544
  993loPI    C314867  13.352  14.050   4.829  0.0071  0.1821 -0.0009
  993loPI   PO414868  13.775  13.918   5.407 -0.4345  0.1304  0.1534
  993loPI   GL114869  13.492  13.708   5.797  0.1018 -0.1606 -0.1218
  993loPI   GL214870  13.651  13.436   5.749 -0.1967  0.0260 -0.1598
  993loPI   C1A14871  13.404  14.066   6.157 -0.2904  0.2075 -0.1599
  993loPI   C2A14872  13.360  13.939   6.630 -0.0571  0.0577 -0.0835
  993loPI   C3A14873  13.345  13.680   7.032 -0.2357  0.3347  0.1894
  993loPI   C4A14874  13.375  13.519   7.464  0.1633 -0.0934 -0.0094
  993loPI   C5A14875  13.696  13.681   7.787  0.2074  0.0975  0.0768
  993loPI   C6A14876  13.669  13.916   8.191  0.4449 -0.0386 -0.3140
  993loPI   C1B14877  13.714  13.530   6.186  0.1644 -0.0105 -0.0084
  993loPI   C2B14878  13.658  13.496   6.592  0.0761  0.2827 -0.0027
  993loPI   C3B14879  13.764  13.416   7.103  0.1665  0.0275  0.0473
  993loPI   C4B14880  13.910  13.218   7.513  0.1461 -0.0945 -0.1119
  994loPI    C114881  10.299  12.341   4.236  0.0658 -0.0301 -0.2060
  994loPI    C214882  10.102  12.642   4.060 -0.1601  0.0186  0.1196
  994loPI    C314883  10.303  12.377   3.838  0.0310  0.3980 -0.1731
  994loPI   PO414884  10.209  12.492   4.585 -0.1950 -0.1084  0.2183
  994loPI   GL114885  10.255  12.199   4.991  0.2423 -0.3032 -0.1121
  994loPI   GL214886   9.939  12.206   5.192 -0.1405  0.2511 -0.2166
  994loPI   C1A14887  10.297  12.565   5.388  0.2386 -0.0470  0.3341
  994loPI   C2A14888  10.297  12.637   5.856  0.1089 -0.1723 -0.0358
  994loPI   C3A14889  10.405  12.524   6.243  0.1638  0.0063 -0.1259
  994loPI   C4A14890  10.291  12.541   6.687  0.4591 -0.0597  0.0104
  994loPI   C5A14891  10.461  12.635   7.114 -0.0977  0.1529  0.1195
  994loPI   C6A14892  10.872  12.319   7.212  0.0261 -0.0010  0.3698
  994loPI   C1B14893   9.943  12.324   5.643  0.1731 -0.2815  0.2341
  994loPI   C2B14894   9.991  12.256   6.082 -0.0884  0.0793 -0.0119
  994loPI   C3B14895   9.966  12.143   6.511  0.1028  0.1183  0.2221
  994loPI   C4B14896   9.745  11.992   6.886  0.0929 -0.1171  0.0048
  995loPI    C114897  12.293  11.152   4.860 -0.0517 -0.3331  0.0148
  995loPI    C214898  11.931  11.254   4.725  0.1015  0.1545 -0.0486
  995loPI    C314899  12.188  11.065   4.485 -0.0582 -0.0682 -0.0472
  995loPI   PO414900  12.254  11.105   5.169 -0.2420  0.1435 -0.2690
  995loPI   GL114901  12.514  11.149   5.519  0.3589  0.4287  0.3003
  995loPI   GL214902  12.319  11.043   5.823  0.0791 -0.1544  0.4106
  995loPI   C1A14903  12.393  11.550   5.860  0.0075 -0.0572 -0.0377
  995loPI   C2A14904  12.472  11.617   6.226  0.1498 -0.1282  0.2407
  995loPI   C3A14905  12.393  11.619   6.775 -0.0963  0.0720  0.1891
  995loPI   C4A14906  12.336  11.706   7.276 -0.2570  0.0521  0.3061
  995loPI   C5A14907  12.574  11.560   7.607 -0.2950 -0.1049 -0.4098
  995loPI   C6A14908  12.977  11.481   7.882  0.0066  0.0844  0.1344
  995loPI   C1B14909  12.272  11.097   6.244  0.0848  0.1594 -0.0424
  995loPI   C2B14910  12.359  11.128   6.708  0.0173  0.1139  0.1669
  995loPI   C3B14911  12.352  11.213   7.169  0.1722 -0.2301 -0.2324
  995loPI   C4B14912  12.249  11.090   7.545 -0.0679  0.0692  0.1047
  996loPI    C114913  15.811  11.130   5.174  0.0112 -0.2853 -0.1396
  996loPI    C214914  15.591  11.020   4.858 -0.0323 -0.0542 -0.1912
  996loPI    C314915  15.542  11.383   5.021  0.2191 -0.0492 -0.1217
  996loPI   PO414916  15.693  10.991   5.400 -0.0811 -0.0264  0.3842
  996loPI   GL114917  15.541  10.989   5.798 -0.1307 -0.1284  0.2759
  996loPI   GL214918  15.784  10.856   5.886  0.4897  0.0514 -0.0315
  996loPI   C1A14919  15.388  10.672   6.090  0.2905  0.0956  0.1323
  996loPI   C2A14920  15.326  10.667   6.520 -0.1284  0.1183 -0.0751
  996loPI   C3A14921  15.294  10.715   7.029  0.2189  0.0588  0.1386
  996loPI   C4A14922  15.235  10.655   7.515 -0.2381 -0.4212  0.0090
  996loPI   C5A14923  15.370  10.677   8.007 -0.0543 -0.0201  0.0266
  996loPI   C6A14924  15.236  10.942   8.286 -0.0545  0.1930  0.0446
  996loPI   C1B14925  15.721  10.986   6.307  0.0305 -0.2299  0.1172
  996loPI   C2B14926  15.665  11.040   6.733 -0.1857  0.0954 -0.1996
  996loPI   C3B14927  15.619  11.074   7.219 -0.2066  0.1138  0.4326
  996loPI   C4B14928  15.554  10.993   7.635 -0.1121  0.0008 -0.3160
  997loPI    C114929  11.494  10.509   5.008 -0.1056 -0.0117  0.0791
  997loPI    C214930  11.219  10.575   4.724 -0.0063  0.0771  0.0024
  997loPI    C314931  11.553  10.372   4.636 -0.0290  0.0031  0.0855
  997loPI   PO414932  11.361  10.656   5.229 -0.1457  0.3409 -0.1795
  997loPI   GL114933  11.564  10.483   5.658 -0.0487  0.1774 -0.3206
  997loPI   GL214934  11.585  10.131   5.817  0.0766 -0.0776  0.0662
  997loPI   C1A14935  11.191  10.620   6.021 -0.2682  0.1496  0.3304
  997loPI   C2A14936  11.025  10.694   6.488  0.1244  0.2460 -0.1138
  997loPI   C3A14937  10.980  10.511   6.942 -0.1662  0.1482 -0.0992
  997loPI   C4A14938  10.923  10.286   7.313  0.0471  0.3030  0.1413
  997loPI   C5A14939  10.832   9.938   7.638  0.0966 -0.2951 -0.1434
  997loPI   C6A14940  10.484   9.684   7.807  0.0893 -0.2774 -0.1711
  997loPI   C1B14941  11.580  10.274   6.231 -0.4556 -0.2306  0.3273
  997loPI   C2B14942  11.386  10.178   6.606  0.1029  0.4477  0.0632
  997loPI   C3B14943  11.386  10.130   7.021 -0.1063  0.2265 -0.1918
  997loPI   C4B14944  11.339  10.190   7.555  0.1410  0.1243  0.0266
  998loPI    C114945  17.326   8.958   5.205  0.0501  0.0237 -0.5035
  998loPI    C214946  17.037   9.207   5.325  0.3601  0.1726 -0.0392
  998loPI    C314947  16.948   8.895   5.091 -0.1381  0.3333 -0.0748
  998loPI   PO414948  17.439   8.916   5.471 -0.3026 -0.1237 -0.1369
  998loPI   GL114949  17.231   9.121   5.830 -0.0637  0.2374 -0.1878
  998loPI   GL214950  17.318   9.287   5.984 -0.1324  0.1127 -0.1002
  998loPI   C1A14951  17.028   8.973   6.230 -0.0674  0.3035  0.0064
  998loPI   C2A14952  16.908   8.737   6.622 -0.3235 -0.0958 -0.3460
  998loPI   C3A14953  17.224   8.491   6.767  0.1794 -0.2133  0.0563
  998loPI   C4A14954  17.316   8.348   7.125 -0.0538  0.0170 -0.4185
  998loPI   C5A14955  17.232   8.115   7.488 -0.0184  0.1213 -0.2398
  998loPI   C6A14956  17.260   8.352   7.878  0.0835  0.1507 -0.1134
  998loPI   C1B14957  17.245   9.317   6.485  0.0970 -0.0406  0.0920
  998loPI   C2B14958  17.069   9.309   6.875 -0.2014  0.1987 -0.1216
  998loPI   C3B14959  17.023   9.262   7.312  0.0226  0.0330 -0.0779
  998loPI   C4B14960  17.018   9.113   7.697 -0.0198  0.0674 -0.1916
  999loPI    C114961   7.367   0.806   5.521  0.0020 -0.1826  0.0375
  999loPI    C214962   7.079   1.048   5.657  0.0772  0.1049 -0.2975
  999loPI    C314963   7.127   0.996   5.263  0.2551 -0.2253 -0.2364
  999loPI   PO414964   7.365   0.555   5.552 -0.0589 -0.1704  0.0231
  999loPI   GL114965   7.252   0.297   5.841 -0.0451 -0.0925 -0.1917
  999loPI   GL214966   7.123   0.611   5.982 -0.2509  0.0279  0.1098
  999loPI   C1A14967   7.417   0.177   6.242  0.3238 -0.3523 -0.0406
  999loPI   C2A14968   7.425   0.223   6.695  0.0837  0.1594  0.3116
  999loPI   C3A14969   7.617   0.277   7.019  0.0248 -0.1908  0.0469
  999loPI   C4A14970   7.761   0.399   7.455  0.1498 -0.3088  0.2306
  999loPI   C5A14971   7.926   0.421   7.883 -0.0298  0.0332  0.0845
  999loPI   C6A14972   8.206   0.513   8.229 -0.1462 -0.0942  0.0629
  999loPI   C1B14973   7.322   0.678   6.398  0.0214  0.1036  0.0022
  999loPI   C2B14974   7.284   0.661   6.867  0.0792  0.3114  0.0542
  999loPI   C3B14975   7.330   0.514   7.311  0.2514 -0.0373 -0.1216
  999loPI   C4B14976   7.105   0.536   7.700  0.1338 -0.3016  0.0432
 1000loPI    C114977  14.425   8.364   5.084  0.1473 -0.0284 -0.0161
 1000loPI    C214978  14.696   8.658   5.060 -0.1685  0.2787  0.1022
 1000loPI    C314979  14.424   8.611   4.770  0.1933 -0.2231 -0.1715
 1000loPI   PO414980  14.269   8.403   5.318 -0.1592  0.1458 -0.1449
 1000loPI   GL114981  14.151   8.306   5.681 -0.2768 -0.3418  0.0330
 1000loPI   GL214982  14.079   8.002   5.869  0.2251 -0.1856 -0.1886
 1000loPI   C1A14983  13.890   8.661   5.950  0.0836 -0.1462  0.1954
 1000loPI   C2A14984  13.935   8.861   6.344  0.0430  0.2126  0.0084
 1000loPI   C3A14985  13.885   8.745   6.762  0.1787  0.1234  0.1277
 1000loPI   C4A14986  13.986   8.892   7.235  0.2484 -0.2134  0.0134
 1000loPI   C5A14987  14.324   8.638   7.308  0.0165  0.2088  0.0866
 1000loPI   C6A14988  14.673   8.559   7.541  0.0886 -0.2847  0.3078
 1000loPI   C1B14989  14.027   7.970   6.331  0.0400  0.3200 -0.2540
 1000loPI   C2B14990  14.129   7.823   6.699 -0.0643  0.0402  0.0680
 1000loPI   C3B14991  14.303   7.859   7.183 -0.0478 -0.2861 -0.0548
 1000loPI   C4B14992  14.440   8.116   7.398 -0.0423 -0.0357 -0.2911
 1001loPI    C114993  15.527   9.660   5.678  0.2512  0.0613  0.0440
 1001loPI    C214994  15.609   9.289   5.804  0.0720  0.0060  0.0008
 1001loPI    C314995  15.260   9.367   5.623  0.1116  0.1943  0.0032
 1001loPI   PO414996  15.705   9.767   5.656  0.2692  0.2568 -0.1620
 1001loPI   GL114997  15.978   9.623   5.925  0.1164 -0.0745  0.2755
 1001loPI   GL214998  16.311   9.519   6.050  0.2652 -0.0902  0.1377
 1001loPI   C1A14999  15.660   9.393   6.284 -0.0308  0.0281 -0.1033
 1001loPI   C2A15000  15.306   9.119   6.566  0.0241 -0.0476  0.0533
 1001loPI   C3A15001  15.022   8.959   6.836  0.2285  0.0934 -0.2301
 1001loPI   C4A15002  14.994   8.779   7.199  0.0997  0.1125 -0.1671
 1001loPI   C5A15003  15.133   8.728   7.640  0.0760 -0.1341 -0.0452
 1001loPI   C6A15004  15.000   8.888   8.017  0.0396  0.2041  0.0019
 1001loPI   C1B15005  16.299   9.307   6.311 -0.0427 -0.1514  0.0945
 1001loPI   C2B15006  16.223   9.414   6.669 -0.1273  0.1396 -0.0840
 1001loPI   C3B15007  16.225   9.794   7.052  0.0839 -0.2002  0.1133
 1001loPI   C4B15008  15.913  10.042   7.165  0.3341 -0.1047 -0.1610
 1002loPI    C115009   7.507   2.781   5.336  0.1559 -0.1394  0.0389
 1002loPI    C215010   7.226   2.857   5.061  0.0345 -0.2222  0.1389
 1002loPI    C315011   7.301   3.123   5.351  0.2394 -0.0854 -0.0364
 1002loPI   PO415012   7.413   2.496   5.385 -0.0391  0.4392 -0.2863
 1002loPI   GL115013   7.331   2.376   5.696  0.1921 -0.1367 -0.2290
 1002loPI   GL215014   7.099   2.570   5.856 -0.0415 -0.1406  0.0409
 1002loPI   C1A15015   7.279   2.189   6.112 -0.2220  0.2775 -0.5636
 1002loPI   C2A15016   7.192   1.998   6.569  0.0499  0.1337 -0.1176
 1002loPI   C3A15017   7.261   2.116   7.042 -0.0183 -0.2338  0.1032
 1002loPI   C4A15018   7.250   2.041   7.504  0.1404 -0.3869 -0.1351
 1002loPI   C5A15019   7.435   1.825   7.885  0.1163 -0.2340  0.2660
 1002loPI   C6A15020   7.744   1.548   7.830  0.1330 -0.0301  0.0562
 1002loPI   C1B15021   6.775   2.852   6.166  0.1492 -0.1164  0.1187
 1002loPI   C2B15022   6.944   2.937   6.553  0.1606  0.0607  0.3968
 1002loPI   C3B15023   6.938   2.936   7.019  0.4326  0.1652 -0.2212
 1002loPI   C4B15024   6.870   2.915   7.492 -0.1515  0.0316 -0.2153
 1003loPI    C115025   6.177   0.895   5.199 -0.1343  0.0225  0.0083
 1003loPI    C215026   6.138   0.509   5.099 -0.1002 -0.0203  0.1570
 1003loPI    C315027   5.824   0.755   5.073 -0.1339 -0.0685  0.1063
 1003loPI   PO415028   6.359   0.872   5.452  0.1322  0.2983  0.3497
 1003loPI   GL115029   6.399   0.819   5.855 -0.0736 -0.2034 -0.3728
 1003loPI   GL215030   6.651   0.856   5.903 -0.1821 -0.2582 -0.1700
 1003loPI   C1A15031   6.441   0.812   6.363 -0.0249  0.1794 -0.0217
 1003loPI   C2A15032   6.352   1.062   6.673  0.1622  0.1227 -0.1579
 1003loPI   C3A15033   6.141   1.251   6.837 -0.2517 -0.1528  0.0953
 1003loPI   C4A15034   6.236   1.330   7.207  0.1869 -0.1638 -0.1427
 1003loPI   C5A15035   6.290   1.478   7.594  0.1183 -0.1091 -0.0481
 1003loPI   C6A15036   6.471   1.328   7.949 -0.1849  0.2039 -0.1096
 1003loPI   C1B15037   6.922   0.981   6.282  0.1385  0.2384  0.0201
 1003loPI   C2B15038   6.883   1.037   6.765 -0.0634 -0.0857 -0.0155
 1003loPI   C3B15039   6.845   0.773   7.062  0.2637  0.3226 -0.1260
 1003loPI   C4B15040   6.656   0.662   7.515  0.2987 -0.2498 -0.1071
 1004loPI    C115041   4.434  16.403   5.718  0.0097 -0.0151 -0.0837
 1004loPI    C215042   4.826  16.392   5.641  0.0187  0.2087 -0.0755
 1004loPI    C315043   4.584  16.116   5.484  0.1787  0.0702 -0.0815
 1004loPI   PO415044   4.354  16.635   5.684  0.0084  0.1495 -0.0116
 1004loPI   GL115045   4.002  16.792   6.004 -0.0044  0.2573  0.3015
 1004loPI   GL215046   3.912  16.479   5.942 -0.3125  0.0372 -0.0891
 1004loPI   C1A15047   3.830  16.887   6.404 -0.2296 -0.0589  0.1955
 1004loPI   C2A15048   3.703  17.017   6.761 -0.0285 -0.0697  0.1465
 1004loPI   C3A15049   3.951  16.949   7.168 -0.0033 -0.3209 -0.2701
 1004loPI   C4A15050   4.013  16.958   7.649 -0.1078  0.1927  0.0821
 1004loPI   C5A15051   4.206  16.834   7.969 -0.1866 -0.0746  0.1895
 1004loPI   C6A15052   4.159  16.617   8.344 -0.2574 -0.1403  0.2279
 1004loPI   C1B15053   3.909  16.421   6.372 -0.3944 -0.1676 -0.1071
 1004loPI   C2B15054   3.941  16.531   6.850 -0.0698 -0.3487 -0.3677
 1004loPI   C3B15055   3.675  16.552   7.247  0.3090  0.1029  0.1551
 1004loPI   C4B15056   3.302  16.706   7.388  0.1126 -0.1259 -0.2066
 1005loPI    C115057  10.042   2.068   5.044 -0.0799 -0.0617 -0.0112
 1005loPI    C215058  10.354   2.278   4.906 -0.1979  0.1905  0.0993
 1005loPI    C315059   9.995   2.314   4.732 -0.2198  0.0825  0.1213
 1005loPI   PO415060   9.994   2.112   5.252  0.0722 -0.0747 -0.0918
 1005loPI   GL115061   9.967   2.317   5.530  0.0373  0.0928 -0.2441
 1005loPI   GL215062  10.130   2.504   5.604 -0.0787 -0.1444 -0.2628
 1005loPI   C1A15063   9.948   1.929   5.903 -0.1397  0.2080  0.4296
 1005loPI   C2A15064  10.046   1.827   6.294 -0.1553 -0.3656 -0.3264
 1005loPI   C3A15065  10.104   1.859   6.808 -0.0723  0.0922  0.0580
 1005loPI   C4A15066   9.893   1.828   7.161  0.0606 -0.0622 -0.0721
 1005loPI   C5A15067   9.913   2.017   7.605 -0.2673  0.0294  0.1945
 1005loPI   C6A15068   9.537   1.946   7.953 -0.0605  0.2787  0.2029
 1005loPI   C1B15069  10.107   2.458   6.026 -0.3334 -0.1347  0.0592
 1005loPI   C2B15070   9.910   2.597   6.412  0.2418  0.0596  0.2048
 1005loPI   C3B15071   9.515   2.558   6.630  0.1203 -0.1666  0.0730
 1005loPI   C4B15072   9.112   2.538   6.624  0.1150  0.1472 -0.2096
 1006loPI    C115073   6.059  16.554   4.997 -0.0264  0.1080 -0.0063
 1006loPI    C215074   6.439  16.519   4.878  0.0059  0.0299  0.1188
 1006loPI    C315075   6.142  16.449   4.620  0.0755 -0.2006  0.0986
 1006loPI   PO415076   6.089  16.713   5.193  0.1028  0.3985 -0.0226
 1006loPI   GL115077   6.290  16.643   5.687  0.1230  0.0655 -0.0657
 1006loPI   GL215078   6.371  16.394   5.868  0.4406  0.1090 -0.1111
 1006loPI   C1A15079   6.239  16.877   6.052  0.1199 -0.3044 -0.1213
 1006loPI   C2A15080   6.528  16.988   6.398 -0.0958  0.1089 -0.0083
 1006loPI   C3A15081   6.568  16.970   6.864 -0.1527  0.1346 -0.2933
 1006loPI   C4A15082   6.563  16.765   7.313 -0.0311  0.0098  0.3073
 1006loPI   C5A15083   6.515  16.515   7.555  0.1347  0.0874 -0.1521
 1006loPI   C6A15084   6.602  16.375   7.915 -0.0220  0.0564  0.0254
 1006loPI   C1B15085   6.454  16.495   6.221 -0.1842 -0.3251  0.0375
 1006loPI   C2B15086   6.241  16.572   6.728 -0.2610  0.0176 -0.0521
 1006loPI   C3B15087   5.989  16.585   7.115  0.2820  0.0375  0.3731
 1006loPI   C4B15088   6.008  16.578   7.619 -0.2198  0.1095  0.1248
 1007loPI    C115089  12.174   3.838   5.070  0.1504  0.0198 -0.1588
 1007loPI    C215090  12.417   4.068   4.850  0.1245  0.1332 -0.0701
 1007loPI    C315091  12.095   3.899   4.683 -0.0628  0.4640 -0.0526
 1007loPI   PO415092  12.313   3.690   5.177  0.1113 -0.2379 -0.3872
 1007loPI   GL115093  12.165   3.741   5.628 -0.1836  0.2060  0.2386
 1007loPI   GL215094  11.945   3.859   5.750 -0.0763  0.0699  0.0657
 1007loPI   C1A15095  12.082   3.428   6.069 -0.1124 -0.0902 -0.0800
 1007loPI   C2A15096  11.877   3.195   6.458 -0.1077 -0.1240 -0.0587
 1007loPI   C3A15097  11.904   3.219   6.912  0.0450  0.0830  0.2104
 1007loPI   C4A15098  11.969   3.146   7.292 -0.1348 -0.0636 -0.1703
 1007loPI   C5A15099  12.248   3.040   7.612  0.0031  0.1898  0.1505
 1007loPI   C6A15100  12.509   2.793   7.972  0.0647  0.0942  0.3763
 1007loPI   C1B15101  12.020   3.920   6.290  0.2288  0.1015  0.0735
 1007loPI   C2B15102  12.016   3.847   6.790 -0.0056 -0.2228 -0.3341
 1007loPI   C3B15103  11.975   3.614   7.150 -0.1369 -0.0205 -0.2527
 1007loPI   C4B15104  11.881   3.858   7.548 -0.1213 -0.2718 -0.0294
 1008loPI    C115105   6.338  15.429   5.518 -0.0262  0.0263  0.0771
 1008loPI    C215106   6.171  15.254   5.199  0.1212 -0.2072  0.1255
 1008loPI    C315107   6.154  15.652   5.241 -0.2240 -0.2072  0.0164
 1008loPI   PO415108   6.257  15.310   5.740 -0.0326  0.1448  0.2090
 1008loPI   GL115109   6.038  15.063   6.055  0.1463 -0.2791 -0.1517
 1008loPI   GL215110   6.266  14.913   6.014  0.1905  0.1044  0.1161
 1008loPI   C1A15111   6.003  15.214   6.562 -0.0354 -0.0829 -0.2384
 1008loPI   C2A15112   5.977  15.614   6.790 -0.3677  0.0958 -0.1063
 1008loPI   C3A15113   6.016  15.752   7.315  0.1469  0.2991 -0.1014
 1008loPI   C4A15114   5.847  15.784   7.863 -0.0711  0.1784  0.3401
 1008loPI   C5A15115   5.639  16.157   7.950  0.0663  0.0446 -0.0100
 1008loPI   C6A15116   5.416  16.485   8.356 -0.0832  0.3901  0.3398
 1008loPI   C1B15117   6.147  14.745   6.427  0.0051  0.1040 -0.1763
 1008loPI   C2B15118   6.110  14.802   6.956 -0.2618 -0.2830  0.2649
 1008loPI   C3B15119   6.110  14.884   7.397 -0.5370 -0.1088  0.1687
 1008loPI   C4B15120   6.118  15.232   7.569  0.2205 -0.1665  0.0703
 1009loPI    C115121  17.602   3.277   4.556  0.0098  0.1613  0.2529
 1009loPI    C215122  17.445   2.933   4.426  0.1857  0.1380  0.0976
 1009loPI    C315123  17.208   3.216   4.579  0.0261 -0.0044  0.1170
 1009loPI   PO415124  17.850   3.164   4.760 -0.1816  0.3134 -0.1132
 1009loPI   GL115125  17.756   3.436   5.251  0.1492 -0.0116 -0.0038
 1009loPI   GL215126  17.858   3.634   5.523  0.2657 -0.0097 -0.1924
 1009loPI   C1A15127  17.539   3.202   5.598 -0.0598  0.1001 -0.0820
 1009loPI   C2A15128  17.500   3.007   6.014 -0.0982  0.4594  0.1650
 1009loPI   C3A15129  17.343   2.894   6.402 -0.1175 -0.3778 -0.0416
 1009loPI   C4A15130  17.429   2.658   6.668 -0.0302 -0.2768  0.0142
 1009loPI   C5A15131  17.435   2.350   6.968  0.0001 -0.1658 -0.0480
 1009loPI   C6A15132  17.693   2.202   7.191 -0.1699 -0.0779 -0.3172
 1009loPI   C1B15133  18.014   3.550   5.868  0.5262  0.3431 -0.3483
 1009loPI   C2B15134  17.924   3.215   6.131 -0.1128 -0.2301 -0.2276
 1009loPI   C3B15135  17.844   3.030   6.579  0.0607  0.2641  0.0036
 1009loPI   C4B15136  17.661   2.995   7.005  0.2218 -0.0346  0.0285
 1010loPI    C115137   8.876   7.841   4.984 -0.1512  0.1638 -0.0937
 1010loPI    C215138   8.920   7.715   4.607  0.0550  0.0009 -0.0176
 1010loPI    C315139   9.129   8.030   4.739  0.0682 -0.0125 -0.0066
 1010loPI   PO415140   8.993   7.660   5.230  0.1458  0.0299  0.1195
 1010loPI   GL115141   9.160   7.766   5.628  0.0017 -0.1398 -0.2214
 1010loPI   GL215142   9.223   8.095   5.730  0.1206 -0.2924  0.4834
 1010loPI   C1A15143   8.663   7.887   5.913 -0.0642 -0.3823  0.0598
 1010loPI   C2A15144   8.710   7.869   6.372 -0.0964  0.0360 -0.0446
 1010loPI   C3A15145   8.622   7.866   6.864  0.2103  0.0489 -0.0411
 1010loPI   C4A15146   8.576   7.758   7.295 -0.2439 -0.1886  0.3337
 1010loPI   C5A15147   8.733   7.372   7.508 -0.0985 -0.3338 -0.2331
 1010loPI   C6A15148   8.925   7.033   7.523  0.2414  0.1993  0.1086
 1010loPI   C1B15149   9.161   8.028   6.166  0.0635 -0.0452  0.1086
 1010loPI   C2B15150   9.164   8.017   6.607 -0.1040 -0.0935 -0.0463
 1010loPI   C3B15151   9.134   7.918   7.055 -0.3428 -0.1025 -0.0620
 1010loPI   C4B15152   8.985   7.899   7.516  0.1941 -0.1979  0.2861
 1011loPI    C115153   8.766   1.814   5.098 -0.0046  0.1040  0.1345
 1011loPI    C215154   8.519   1.652   5.368  0.1215 -0.1697  0.0893
 1011loPI    C315155   8.419   1.654   4.980  0.1748 -0.2535  0.0747
 1011loPI   PO415156   8.972   1.764   5.220 -0.0258 -0.0007 -0.1502
 1011loPI   GL115157   9.074   1.759   5.617 -0.0414 -0.2484  0.0550
 1011loPI   GL215158   8.827   1.540   5.818 -0.1590 -0.0758 -0.2509
 1011loPI   C1A15159   9.112   1.790   6.167 -0.0017  0.0193 -0.1008
 1011loPI   C2A15160   9.159   1.408   6.505 -0.1971 -0.0878 -0.0675
 1011loPI   C3A15161   8.973   1.110   6.863  0.0926  0.0209  0.0272
 1011loPI   C4A15162   9.072   1.187   7.181  0.0956 -0.1451  0.0901
 1011loPI   C5A15163   9.272   1.261   7.485  0.2462  0.0715  0.0066
 1011loPI   C6A15164   9.466   0.994   7.879  0.1758 -0.1053  0.0334
 1011loPI   C1B15165   8.838   1.248   6.063  0.2057  0.2144  0.0944
 1011loPI   C2B15166   8.599   1.149   6.407 -0.0083  0.1337  0.1286
 1011loPI   C3B15167   8.483   1.293   6.824  0.4652  0.1820  0.0249
 1011loPI   C4B15168   8.491   1.355   7.238  0.1149  0.0030  0.1869
 1012loPI    C115169   8.474   7.102   5.373  0.0932 -0.1900 -0.1702
 1012loPI    C215170   8.194   7.095   5.087  0.0727 -0.2116 -0.1497
 1012loPI    C315171   8.159   6.858   5.406  0.1031 -0.1982 -0.1364
 1012loPI   PO415172   8.569   7.395   5.384 -0.2025 -0.1048 -0.1015
 1012loPI   GL115173   8.717   7.494   5.684 -0.0870  0.6312 -0.1808
 1012loPI   GL215174   8.963   7.260   5.666  0.0219 -0.2458  0.1096
 1012loPI   C1A15175   9.061   7.568   6.080 -0.1868 -0.1993 -0.2372
 1012loPI   C2A15176   8.986   7.555   6.622 -0.3195 -0.2361  0.4706
 1012loPI   C3A15177   9.031   7.323   6.981  0.0550 -0.0361  0.0095
 1012loPI   C4A15178   9.219   7.428   7.344  0.1390  0.0765 -0.1822
 1012loPI   C5A15179   9.489   7.180   7.591  0.2061 -0.0291 -0.0130
 1012loPI   C6A15180   9.857   7.093   7.423 -0.2821  0.0846  0.0211
 1012loPI   C1B15181   9.158   7.051   5.981  0.2537 -0.2233  0.1482
 1012loPI   C2B15182   9.222   7.037   6.438 -0.0729  0.0621 -0.0074
 1012loPI   C3B15183   9.446   7.189   6.739 -0.0886 -0.2284 -0.2492
 1012loPI   C4B15184   9.446   7.017   7.083  0.2209 -0.0834  0.0738
 1013loPI    C115185  17.751   9.361   5.679  0.0191 -0.0982 -0.0744
 1013loPI    C215186  17.850   9.292   5.298  0.1044  0.0960 -0.0887
 1013loPI    C315187  17.490   9.441   5.387  0.0439 -0.0513 -0.0837
 1013loPI   PO415188  17.809   9.215   5.826  0.2382  0.0988  0.1717
 1013loPI   GL115189  17.716   8.911   6.048  0.1752  0.0638 -0.0749
 1013loPI   GL215190  17.511   8.628   5.890  0.0012 -0.0317 -0.1381
 1013loPI   C1A15191  17.583   8.873   6.554  0.3120  0.2589  0.2883
 1013loPI   C2A15192  17.422   8.893   6.946  0.2941  0.0762 -0.0450
 1013loPI   C3A15193  17.375   8.774   7.443  0.2543  0.2493  0.1387
 1013loPI   C4A15194  17.448   8.752   7.827 -0.0713 -0.1146  0.0807
 1013loPI   C5A15195  17.766   8.486   7.903  0.2282 -0.0171 -0.2536
 1013loPI   C6A15196  18.138   8.174   7.857  0.1200 -0.1997  0.2353
 1013loPI   C1B15197  17.390   8.493   6.271 -0.1944 -0.0202  0.0932
 1013loPI   C2B15198  17.451   8.113   6.570 -0.1296  0.1197 -0.0375
 1013loPI   C3B15199  17.654   7.986   6.834 -0.1271 -0.2793  0.0411
 1013loPI   C4B15200  17.698   7.905   7.374 -0.1533  0.1258  0.2282
 1014loPI    C115201   8.749  14.981   5.480  0.0881  0.1764 -0.2771
 1014loPI    C215202   8.663  14.633   5.657 -0.1548  0.2761 -0.1959
 1014loPI    C315203   8.584  14.684   5.269 -0.1039  0.2354 -0.2117
 1014loPI   PO415204   8.799  15.092   5.828 -0.1041  0.3754 -0.1490
 1014loPI   GL115205   8.595  14.962   6.078  0.0230  0.1118 -0.2315
 1014loPI   GL215206   8.432  15.103   6.187 -0.1058 -0.1737 -0.0218
 1014loPI   C1A15207   8.827  14.820   6.410  0.0222 -0.2449 -0.0345
 1014loPI   C2A15208   9.035  14.587   6.753  0.0311  0.2617  0.1957
 1014loPI   C3A15209   9.049  14.230   6.957  0.0437  0.1868  0.1770
 1014loPI   C4A15210   9.268  13.941   7.213  0.0771  0.1169  0.2098
 1014loPI   C5A15211   9.535  14.071   7.538 -0.0874  0.0145  0.3019
 1014loPI   C6A15212   9.758  14.388   7.783  0.1900  0.0182  0.2628
 1014loPI   C1B15213   8.333  14.846   6.453  0.3505 -0.1077  0.1139
 1014loPI   C2B15214   8.503  14.734   6.845 -0.3027 -0.0517  0.3105
 1014loPI   C3B15215   8.803  14.726   7.157  0.1852 -0.4089 -0.2647
 1014loPI   C4B15216   9.152  14.956   7.223  0.0486 -0.0937  0.1471
 1015loPI    C115217  16.078  16.386   5.254 -0.1357 -0.0314 -0.0969
 1015loPI    C215218  16.441  16.422   5.090  0.0443 -0.4006  0.2042
 1015loPI    C315219  16.274  16.061   5.126 -0.2096 -0.2690  0.3726
 1015loPI   PO415220  16.126  16.495   5.470  0.2629  0.0304 -0.0823
 1015loPI   GL115221  16.285  16.316   5.862  0.1993  0.0271 -0.1858
 1015loPI   GL215222  16.328  16.658   5.924  0.1009 -0.0179  0.0650
 1015loPI   C1A15223  16.293  16.200   6.315  0.2753 -0.3039 -0.0220
 1015loPI   C2A15224  16.427  16.095   6.760  0.2036  0.2584 -0.2393
 1015loPI   C3A15225  16.463  16.279   7.117 -0.2526 -0.1749  0.1336
 1015loPI   C4A15226  16.648  16.176   7.488 -0.0685  0.3836 -0.0928
 1015loPI   C5A15227  17.012  16.000   7.763  0.1878 -0.1058  0.0901
 1015loPI   C6A15228  17.198  15.582   7.979  0.2016  0.1016 -0.0929
 1015loPI   C1B15229  16.190  16.694   6.310 -0.0579 -0.1286  0.2479
 1015loPI   C2B15230  16.327  16.781   6.752 -0.1354  0.2576 -0.3262
 1015loPI   C3B15231  16.388  16.788   7.144  0.0288 -0.1177  0.4567
 1015loPI   C4B15232  16.330  16.942   7.570 -0.1798  0.0758 -0.3825
 1016loPI    C115233  14.977   0.872   4.797 -0.2196 -0.0013 -0.3022
 1016loPI    C215234  14.642   0.664   4.866 -0.1786  0.0012 -0.0903
 1016loPI    C315235  14.819   0.646   4.507 -0.2053 -0.2864 -0.0908
 1016loPI   PO415236  14.922   1.047   5.059  0.0086  0.0701  0.0834
 1016loPI   GL115237  15.230   1.032   5.424 -0.0956 -0.0308  0.3676
 1016loPI   GL215238  15.493   1.017   5.565 -0.2485  0.3546  0.0155
 1016loPI   C1A15239  15.180   1.156   5.894 -0.0624  0.1483 -0.3196
 1016loPI   C2A15240  15.184   1.171   6.364 -0.3268  0.1395 -0.1433
 1016loPI   C3A15241  15.133   1.335   6.769  0.0303  0.1100  0.0490
 1016loPI   C4A15242  15.154   1.569   7.142  0.0801  0.2352  0.0821
 1016loPI   C5A15243  14.951   1.476   7.547  0.1897 -0.2553  0.0567
 1016loPI   C6A15244  14.910   1.426   7.991 -0.0910 -0.0198 -0.1048
 1016loPI   C1B15245  15.470   0.758   5.950 -0.0354  0.0143  0.0873
 1016loPI   C2B15246  15.506   0.682   6.378  0.1645 -0.1249  0.0694
 1016loPI   C3B15247  15.581   0.608   6.710 -0.0781  0.1731  0.2600
 1016loPI   C4B15248  15.724   0.478   7.112 -0.0879  0.2497  0.1523
 1017loPI    C115249   3.468   2.155   4.836  0.0917 -0.1175  0.0069
 1017loPI    C215250   3.317   2.401   4.560  0.0117 -0.4705 -0.2713
 1017loPI    C315251   3.708   2.315   4.559  0.0806 -0.1760 -0.0367
 1017loPI   PO415252   3.241   2.271   5.117  0.1156 -0.0987  0.5465
 1017loPI   GL115253   3.187   2.605   5.458 -0.0157  0.1100 -0.2071
 1017loPI   GL215254   3.065   2.993   5.539 -0.0903  0.2550 -0.1160
 1017loPI   C1A15255   3.181   2.584   5.928  0.2347  0.1694  0.1218
 1017loPI   C2A15256   3.157   2.526   6.349  0.1123  0.3851  0.1662
 1017loPI   C3A15257   3.144   2.417   6.880 -0.2703 -0.0770 -0.5637
 1017loPI   C4A15258   3.200   2.428   7.287 -0.2294 -0.1655 -0.1423
 1017loPI   C5A15259   3.011   2.594   7.648  0.4345  0.0347 -0.0448
 1017loPI   C6A15260   2.841   2.917   7.470 -0.0173 -0.1184  0.2002
 1017loPI   C1B15261   3.246   3.044   5.945 -0.1335 -0.1666 -0.1393
 1017loPI   C2B15262   3.268   2.983   6.358  0.0994  0.2037 -0.0040
 1017loPI   C3B15263   3.163   2.918   6.801 -0.2887 -0.0439  0.1255
 1017loPI   C4B15264   3.261   2.931   7.203 -0.2941  0.0419 -0.3562
 1018loPI    C115265  14.801   7.197   5.507  0.0319  0.3640  0.2480
 1018loPI    C215266  14.967   7.103   5.156  0.0249  0.0614  0.3222
 1018loPI    C315267  14.817   7.469   5.215  0.0287  0.1159  0.0122
 1018loPI   PO415268  14.989   7.180   5.631  0.0674 -0.0814  0.0985
 1018loPI   GL115269  15.261   7.192   5.993  0.1698 -0.3443  0.0385
 1018loPI   GL215270  15.460   7.017   5.766 -0.1103 -0.0328  0.7748
 1018loPI   C1A15271  15.336   7.412   6.333  0.2691 -0.1230 -0.3945
 1018loPI   C2A15272  15.160   7.373   6.742  0.1616 -0.0663 -0.3176
 1018loPI   C3A15273  15.304   7.466   7.236 -0.1640 -0.0243 -0.1455
 1018loPI   C4A15274  15.469   7.644   7.524 -0.0687  0.2739  0.3505
 1018loPI   C5A15275  15.783   8.047   7.542  0.1122 -0.1914  0.3837
 1018loPI   C6A15276  16.029   8.299   7.787 -0.4317  0.0145 -0.0213
 1018loPI   C1B15277  15.933   6.878   5.722 -0.0312 -0.2519 -0.2189
 1018loPI   C2B15278  16.092   6.454   5.880  0.0296  0.0048 -0.1833
 1018loPI   C3B15279  16.301   6.422   6.320 -0.0702  0.3549  0.0692
 1018loPI   C4B15280  16.374   6.411   6.682  0.2625  0.1011 -0.3245
 1019loPI    C115281  16.934  17.647   5.112  0.1771 -0.1034  0.0041
 1019loPI    C215282  17.122  17.965   4.960  0.1619 -0.0334  0.1302
 1019loPI    C315283  17.205  17.599   4.821 -0.0685  0.0545 -0.2557
 1019loPI   PO415284  16.920  17.703   5.356 -0.0951  0.0984 -0.1004
 1019loPI   GL115285  16.810  17.893   5.790  0.0785 -0.0005  0.0802
 1019loPI   GL215286  17.001  17.721   6.101  0.2123  0.3135 -0.1334
 1019loPI   C1A15287  16.883  18.172   6.191 -0.3806  0.1310  0.1865
 1019loPI   C2A15288  16.989  18.077   6.657 -0.0243 -0.3462  0.2254
 1019loPI   C3A15289  17.000  17.901   7.055  0.1249  0.3712  0.0094
 1019loPI   C4A15290  17.034  17.788   7.536  0.2448  0.0966  0.1063
 1019loPI   C5A15291  17.388  17.647   7.724 -0.2483 -0.3314 -0.1981
 1019loPI   C6A15292  17.737  17.460   7.913 -0.0197 -0.2996 -0.2982
 1019loPI   C1B15293  16.898  17.513   6.573  0.0997  0.0839  0.0134
 1019loPI   C2B15294  17.197  17.370   6.937  0.4514  0.3299  0.0479
 1019loPI   C3B15295  17.449  17.706   7.165  0.2191  0.1995  0.2807
 1019loPI   C4B15296  17.911  17.776   7.031 -0.2866  0.0826 -0.0920
 1020loPI    C115297   7.785   8.130   5.108  0.0551 -0.2369  0.0275
 1020loPI    C215298   8.011   8.403   4.922 -0.1228  0.0520  0.2269
 1020loPI    C315299   7.722   8.213   4.722  0.1123 -0.1178  0.0432
 1020loPI   PO415300   7.984   7.948   5.338  0.0986  0.0071 -0.5119
 1020loPI   GL115301   8.197   7.641   5.658 -0.3281 -0.0148  0.0487
 1020loPI   GL215302   8.058   7.379   5.506 -0.1193 -0.0128 -0.0797
 1020loPI   C1A15303   8.210   7.647   6.047  0.0558 -0.1956 -0.0748
 1020loPI   C2A15304   8.235   7.661   6.456  0.2806 -0.1053  0.2300
 1020loPI   C3A15305   8.048   7.869   6.807  0.3087 -0.3424  0.0968
 1020loPI   C4A15306   8.091   7.964   7.231  0.1162  0.1417 -0.1784
 1020loPI   C5A15307   8.187   7.623   7.559  0.0097 -0.0370 -0.1953
 1020loPI   C6A15308   8.407   7.612   7.901 -0.1714 -0.3209 -0.1515
 1020loPI   C1B15309   7.960   7.169   5.853 -0.0578 -0.2797  0.3652
 1020loPI   C2B15310   7.895   7.269   6.271 -0.1444 -0.1464 -0.0587
 1020loPI   C3B15311   7.916   7.386   6.737 -0.0989 -0.4240 -0.0188
 1020loPI   C4B15312   7.920   7.526   7.106  0.4252 -0.1362 -0.1807
 1021loPI    C115313  14.161  14.818   5.219  0.0172  0.0130  0.0233
 1021loPI    C215314  14.118  14.694   4.841 -0.3063 -0.0036  0.0621
 1021loPI    C315315  14.229  15.070   4.917  0.0061 -0.0702 -0.0491
 1021loPI   PO415316  14.281  14.699   5.354 -0.1888 -0.0569  0.0353
 1021loPI   GL115317  14.263  14.636   5.792  0.1792  0.1110 -0.0099
 1021loPI   GL215318  14.466  14.408   5.934  0.1667  0.1488 -0.0430
 1021loPI   C1A15319  13.994  14.644   6.092  0.1258 -0.2586 -0.1637
 1021loPI   C2A15320  14.016  14.628   6.540  0.1262 -0.2949  0.1494
 1021loPI   C3A15321  14.225  14.551   6.940 -0.2149  0.0793 -0.1231
 1021loPI   C4A15322  14.191  14.912   7.222  0.0212  0.1715  0.2598
 1021loPI   C5A15323  14.313  15.093   7.539  0.3033 -0.2662  0.2012
 1021loPI   C6A15324  14.040  15.349   7.834  0.1906 -0.4403 -0.1747
 1021loPI   C1B15325  14.404  14.439   6.357  0.0342  0.0273 -0.3253
 1021loPI   C2B15326  14.472  14.118   6.661  0.1671  0.1133 -0.0968
 1021loPI   C3B15327  14.265  14.067   7.096  0.2455  0.0145 -0.0805
 1021loPI   C4B15328  14.173  13.659   7.223 -0.1409  0.0565  0.1379
 1022loPI    C115329   9.444  10.226   5.102  0.0332  0.0787  0.0393
 1022loPI    C215330   9.071  10.236   4.959  0.0755  0.1982 -0.0634
 1022loPI    C315331   9.333   9.970   4.816 -0.0628 -0.1087  0.2403
 1022loPI   PO415332   9.361  10.262   5.347 -0.0216 -0.1696 -0.0666
 1022loPI   GL115333   9.272  10.307   5.727  0.2483 -0.2234  0.3505
 1022loPI   GL215334   9.175  10.613   5.878  0.0769 -0.1055 -0.0334
 1022loPI   C1A15335   9.420  10.063   6.023 -0.1807  0.2092 -0.0880
 1022loPI   C2A15336   9.592  10.081   6.456 -0.2395 -0.0706 -0.0237
 1022loPI   C3A15337   9.796  10.034   6.926  0.1021 -0.1060 -0.2150
 1022loPI   C4A15338  10.184  10.082   7.292 -0.0755  0.0912  0.0484
 1022loPI   C5A15339  10.101  10.100   7.730  0.2695  0.1938  0.3772
 1022loPI   C6A15340  10.107   9.821   8.149  0.1316 -0.0690 -0.2516
 1022loPI   C1B15341   9.112  10.848   6.243 -0.0494  0.0688 -0.0140
 1022loPI   C2B15342   8.920  10.932   6.677  0.1247 -0.0170 -0.0300
 1022loPI   C3B15343   8.961  10.952   7.216  0.3783  0.3279  0.0168
 1022loPI   C4B15344   8.686  10.873   7.560  0.1651 -0.1796  0.1116
 1023loPI    C115345   4.606  15.323   5.221  0.0920 -0.0376  0.1697
 1023loPI    C215346   4.299  15.368   5.474 -0.0651  0.0821 -0.0392
 1023loPI    C315347   4.231  15.268   5.093  0.1674 -0.0560 -0.0466
 1023loPI   PO415348   4.793  15.221   5.430 -0.1978 -0.0918  0.0261
 1023loPI   GL115349   4.813  15.279   5.821 -0.3397  0.1069 -0.0859
 1023loPI   GL215350   4.517  15.217   5.864 -0.3862  0.0616  0.2188
 1023loPI   C1A15351   4.997  15.110   6.217 -0.0269 -0.1331 -0.2073
 1023loPI   C2A15352   4.968  15.356   6.669  0.2156  0.2929  0.1854
 1023loPI   C3A15353   5.232  15.257   7.072  0.0211  0.1159 -0.0539
 1023loPI   C4A15354   5.414  15.335   7.526 -0.0077  0.2421  0.1254
 1023loPI   C5A15355   5.691  15.284   7.847  0.0034  0.0913  0.0139
 1023loPI   C6A15356   5.972  15.289   8.108 -0.1395 -0.1836 -0.1233
 1023loPI   C1B15357   4.512  15.231   6.347  0.1954  0.2678  0.2647
 1023loPI   C2B15358   4.200  15.272   6.584  0.0516  0.3492  0.1527
 1023loPI   C3B15359   4.139  15.205   7.022 -0.2771  0.2665 -0.0655
 1023loPI   C4B15360   4.576  15.354   6.980 -0.1548  0.0129  0.1497
 1024loPI    C115361   0.290   2.157   4.987  0.1001 -0.1801 -0.0581
 1024loPI    C215362  -0.064   2.200   4.805  0.1470  0.2215 -0.0622
 1024loPI    C315363   0.238   2.019   4.615  0.1249  0.4263 -0.2983
 1024loPI   PO415364   0.252   2.185   5.220 -0.0498 -0.0795  0.1355
 1024loPI   GL115365   0.346   2.292   5.642 -0.0088 -0.0488  0.2849
 1024loPI   GL215366   0.559   2.454   5.861  0.0111 -0.1009 -0.0496
 1024loPI   C1A15367   0.260   2.144   6.044 -0.1227  0.2158 -0.1058
 1024loPI   C2A15368   0.397   2.081   6.433 -0.1751 -0.0373  0.1189
 1024loPI   C3A15369   0.314   2.100   6.810  0.2100  0.0046  0.0786
 1024loPI   C4A15370   0.120   1.948   7.128 -0.0240 -0.0832 -0.2150
 1024loPI   C5A15371  -0.244   1.830   7.247  0.1700  0.0997  0.1684
 1024loPI   C6A15372  -0.596   1.922   7.513 -0.1918  0.0946  0.0244
 1024loPI   C1B15373   0.623   2.491   6.193  0.0777  0.1388  0.0695
 1024loPI   C2B15374   0.680   2.441   6.672  0.2658 -0.0826 -0.0128
 1024loPI   C3B15375   0.651   2.375   7.056  0.1809 -0.0464  0.1500
 1024loPI   C4B15376   0.593   2.178   7.494  0.0765 -0.1513  0.1455
 1025loPI    C115377   9.108   2.219   5.279  0.1656  0.1654 -0.0472
 1025loPI    C215378   8.824   2.339   5.024  0.0697 -0.0793 -0.0575
 1025loPI    C315379   9.205   2.440   4.959 -0.0164  0.2813 -0.0240
 1025loPI   PO415380   8.833   2.182   5.524 -0.0998 -0.0753  0.0220
 1025loPI   GL115381   8.738   2.088   5.925  0.3486 -0.0733 -0.1508
 1025loPI   GL215382   8.506   1.922   5.781 -0.3746  0.0222  0.3869
 1025loPI   C1A15383   8.988   2.250   6.272 -0.1117 -0.1771 -0.1932
 1025loPI   C2A15384   9.109   2.011   6.613 -0.1026  0.0100  0.0147
 1025loPI   C3A15385   9.406   2.082   6.909  0.1242 -0.4306 -0.1476
 1025loPI   C4A15386   9.529   2.219   7.349 -0.1842  0.0032 -0.0398
 1025loPI   C5A15387   9.313   2.291   7.606 -0.1107 -0.1926 -0.1022
 1025loPI   C6A15388   8.967   2.064   7.785  0.0393 -0.0283 -0.0666
 1025loPI   C1B15389   8.573   1.718   6.235  0.0942  0.0515 -0.3140
 1025loPI   C2B15390   8.690   1.666   6.582  0.0023 -0.1032 -0.2990
 1025loPI   C3B15391   8.894   1.608   6.963 -0.2229  0.1269  0.2102
 1025loPI   C4B15392   9.365   1.654   7.164  0.3919 -0.0053 -0.2393
 1026loPI    C115393   9.081  11.942   5.140  0.0758 -0.0088 -0.0782
 1026loPI    C215394   9.412  12.142   5.245  0.0880 -0.0304 -0.0757
 1026loPI    C315395   9.335  12.071   4.859  0.0397  0.0545 -0.0819
 1026loPI   PO415396   9.038  11.800   5.396  0.0632 -0.0678  0.1713
 1026loPI   GL115397   9.208  11.408   5.623  0.1414  0.1063 -0.3135
 1026loPI   GL215398   8.885  11.308   5.625 -0.1304  0.0414  0.1653
 1026loPI   C1A15399   9.428  11.614   5.951 -0.1941  0.3015  0.0971
 1026loPI   C2A15400   9.641  11.929   6.170 -0.0733  0.2708  0.1521
 1026loPI   C3A15401   9.534  12.351   6.390  0.0387 -0.1656  0.1096
 1026loPI   C4A15402   9.448  12.488   6.733 -0.2684  0.0093 -0.0216
 1026loPI   C5A15403   9.218  12.657   7.068  0.0873 -0.0896 -0.0343
 1026loPI   C6A15404   9.175  12.683   7.493  0.1574 -0.1608  0.0498
 1026loPI   C1B15405   8.940  11.262   6.030  0.0889  0.2185 -0.0514
 1026loPI   C2B15406   9.148  11.365   6.341  0.2903 -0.1262 -0.0435
 1026loPI   C3B15407   9.188  11.486   6.772  0.0157 -0.0523 -0.0831
 1026loPI   C4B15408   9.133  11.432   7.119 -0.1454  0.2031  0.1607
 1027loPI    C115409  12.294   1.484   5.211 -0.0579 -0.0892  0.0738
 1027loPI    C215410  12.510   1.726   4.976 -0.0875  0.1232  0.2618
 1027loPI    C315411  12.397   1.365   4.843  0.3520  0.0219  0.1477
 1027loPI   PO415412  12.444   1.655   5.502 -0.0913  0.0094 -0.2216
 1027loPI   GL115413  12.453   1.730   5.951 -0.1952 -0.1241  0.0384
 1027loPI   GL215414  12.735   1.855   5.854 -0.0864  0.1513 -0.2840
 1027loPI   C1A15415  12.659   1.891   6.390  0.1390  0.1070 -0.1525
 1027loPI   C2A15416  12.462   1.738   6.787 -0.0122 -0.3851 -0.2395
 1027loPI   C3A15417  12.327   1.906   7.151  0.2085  0.0605  0.1529
 1027loPI   C4A15418  12.424   2.298   7.293 -0.2513  0.1320 -0.2880
 1027loPI   C5A15419  12.616   2.618   7.205  0.2434  0.0391  0.2529
 1027loPI   C6A15420  13.047   2.669   7.152 -0.1486  0.1040  0.1501
 1027loPI   C1B15421  12.894   1.543   6.066 -0.0427 -0.1501 -0.1732
 1027loPI   C2B15422  12.732   1.435   6.530 -0.2107  0.3786 -0.2698
 1027loPI   C3B15423  12.675   1.387   7.021  0.0226  0.0431  0.0689
 1027loPI   C4B15424  12.466   1.399   7.319  0.2972 -0.0134 -0.2474
 1028loPI    C115425   1.201  13.326   5.129  0.2708  0.2727  0.0413
 1028loPI    C215426   0.828  13.377   4.995  0.1660 -0.1160  0.1735
 1028loPI    C315427   1.139  13.491   4.771 -0.0300  0.2367  0.0747
 1028loPI   PO415428   1.168  13.133   5.276 -0.0573  0.0104  0.1245
 1028loPI   GL115429   0.986  13.152   5.692 -0.2486 -0.0461 -0.0980
 1028loPI   GL215430   0.813  12.951   5.925  0.0506  0.0439 -0.0642
 1028loPI   C1A15431   1.011  13.425   6.086 -0.3624 -0.0309  0.3429
 1028loPI   C2A15432   1.131  13.426   6.584 -0.1568  0.0281  0.1213
 1028loPI   C3A15433   0.911  13.592   6.894 -0.2065  0.0139 -0.2765
 1028loPI   C4A15434   1.196  13.824   7.259 -0.0200  0.1784 -0.0227
 1028loPI   C5A15435   1.502  13.951   7.496 -0.0666 -0.0349 -0.0254
 1028loPI   C6A15436   1.945  14.191   7.596 -0.1092 -0.0471  0.1743
 1028loPI   C1B15437   0.771  12.941   6.288  0.0704 -0.2851 -0.2293
 1028loPI   C2B15438   0.608  13.102   6.650 -0.1897  0.3269 -0.3833
 1028loPI   C3B15439   0.572  13.135   7.106  0.1665  0.0602  0.0100
 1028loPI   C4B15440   0.301  13.271   7.453 -0.1167  0.3655  0.3717
 1029loPI    C115441  18.297  12.312   5.448  0.0489  0.0644 -0.0556
 1029loPI    C215442  18.445  12.683   5.419  0.2747 -0.0499 -0.4299
 1029loPI    C315443  18.050  12.623   5.402  0.2331  0.1776 -0.3021
 1029loPI   PO415444  18.434  12.242   5.632 -0.1903 -0.0988 -0.2788
 1029loPI   GL115445  18.366  12.392   6.047 -0.1743 -0.1024 -0.0612
 1029loPI   GL215446  18.275  12.635   5.914 -0.0420  0.0836  0.5040
 1029loPI   C1A15447  18.600  12.502   6.371 -0.2935  0.2029  0.1578
 1029loPI   C2A15448  18.769  12.570   6.764  0.0514 -0.0845  0.0743
 1029loPI   C3A15449  18.803  12.778   7.067 -0.2936 -0.2784  0.0448
 1029loPI   C4A15450  18.860  12.738   7.465  0.0312  0.3656  0.0758
 1029loPI   C5A15451  18.793  12.911   7.843 -0.3802 -0.2277 -0.0106
 1029loPI   C6A15452  19.068  13.180   8.028 -0.1334 -0.0337 -0.4054
 1029loPI   C1B15453  18.299  12.843   6.224 -0.0084 -0.2294 -0.0308
 1029loPI   C2B15454  18.325  12.789   6.616 -0.0145  0.1269  0.1876
 1029loPI   C3B15455  18.198  12.783   7.002  0.6010  0.1540 -0.2891
 1029loPI   C4B15456  18.303  12.737   7.349  0.1675  0.0357 -0.1470
 1030loPI    C115457   5.661   4.529   4.861  0.0498 -0.0024 -0.1649
 1030loPI    C215458   5.815   4.562   4.493  0.1763 -0.1235 -0.1235
 1030loPI    C315459   5.682   4.208   4.623 -0.3457  0.0214 -0.2396
 1030loPI   PO415460   5.391   4.731   4.834 -0.1927 -0.0066  0.3253
 1030loPI   GL115461   5.226   4.686   5.246  0.1593  0.1456  0.1554
 1030loPI   GL215462   5.307   4.415   5.437 -0.0232  0.0410 -0.0772
 1030loPI   C1A15463   5.323   5.029   5.621  0.1003  0.0147 -0.1723
 1030loPI   C2A15464   5.428   5.279   6.001 -0.2229  0.3847 -0.1578
 1030loPI   C3A15465   5.568   5.180   6.440  0.1118 -0.4011 -0.1449
 1030loPI   C4A15466   5.519   5.048   6.864  0.0298 -0.3936 -0.1068
 1030loPI   C5A15467   5.304   5.179   7.227  0.1230 -0.2009 -0.2655
 1030loPI   C6A15468   4.880   5.297   7.451  0.2165  0.2205  0.1227
 1030loPI   C1B15469   5.049   4.616   5.771  0.0906  0.1606  0.0848
 1030loPI   C2B15470   4.907   4.700   6.191 -0.0190  0.0218 -0.2165
 1030loPI   C3B15471   4.623   4.917   6.569  0.1575  0.0139  0.3854
 1030loPI   C4B15472   4.424   5.327   6.668  0.3722 -0.0392  0.0258
 1031loPI    C115473   6.542  13.124   5.400  0.1468 -0.0375  0.3557
 1031loPI    C215474   6.279  12.823   5.389  0.1761 -0.0539 -0.0868
 1031loPI    C315475   6.157  13.198   5.319  0.2267 -0.0287 -0.0405
 1031loPI   PO415476   6.655  13.153   5.626  0.1483 -0.2013  0.0285
 1031loPI   GL115477   6.529  12.790   5.884  0.0835 -0.0130 -0.0515
 1031loPI   GL215478   6.844  12.844   5.973  0.0817  0.2518 -0.0705
 1031loPI   C1A15479   6.391  12.739   6.252 -0.1082 -0.2516 -0.2722
 1031loPI   C2A15480   6.260  12.486   6.554  0.0092  0.0028 -0.3585
 1031loPI   C3A15481   5.886  12.375   6.842 -0.2979 -0.0712 -0.1337
 1031loPI   C4A15482   5.470  12.401   7.065  0.2392 -0.0152  0.2038
 1031loPI   C5A15483   5.282  12.621   7.270  0.1648 -0.0704 -0.1824
 1031loPI   C6A15484   5.015  12.710   7.595  0.1352 -0.2210  0.0407
 1031loPI   C1B15485   6.927  12.918   6.356 -0.2748 -0.0244 -0.1238
 1031loPI   C2B15486   6.775  13.038   6.753  0.3140  0.2418  0.1199
 1031loPI   C3B15487   6.900  13.207   7.206  0.0730 -0.2766  0.1961
 1031loPI   C4B15488   7.323  13.206   7.305 -0.2706  0.0402 -0.1791
 1032loPI    C115489   4.093   6.954   5.003 -0.1813 -0.0247  0.1918
 1032loPI    C215490   3.874   7.285   4.959  0.0750  0.1169 -0.0503
 1032loPI    C315491   4.056   7.123   4.643  0.2729 -0.0313  0.1370
 1032loPI   PO415492   4.141   6.951   5.206  0.2055 -0.0966  0.0049
 1032loPI   GL115493   4.246   7.022   5.546  0.1899 -0.0629  0.1300
 1032loPI   GL215494   4.473   6.848   5.549  0.1542  0.2634 -0.1669
 1032loPI   C1A15495   4.185   6.812   5.997  0.0873 -0.0357 -0.1748
 1032loPI   C2A15496   4.097   6.780   6.415  0.0046 -0.1720  0.1170
 1032loPI   C3A15497   4.049   6.953   6.710 -0.0441 -0.1976  0.2029
 1032loPI   C4A15498   3.655   6.995   6.860 -0.1721 -0.0644  0.1338
 1032loPI   C5A15499   3.286   7.360   6.947  0.1282 -0.1784 -0.4050
 1032loPI   C6A15500   3.038   7.377   7.262 -0.1471 -0.1178 -0.3588
 1032loPI   C1B15501   4.707   6.774   5.915  0.1380 -0.2370  0.1214
 1032loPI   C2B15502   4.526   6.676   6.256 -0.1998  0.2364  0.2933
 1032loPI   C3B15503   4.475   6.361   6.536 -0.1490 -0.0508  0.0286
 1032loPI   C4B15504   4.530   6.124   6.863  0.4342  0.0586  0.0131
 1033loPI    C115505   5.021   0.093   5.627  0.0952  0.0729 -0.2605
 1033loPI    C215506   5.272  -0.204   5.718 -0.0450  0.0160 -0.0522
 1033loPI    C315507   5.367   0.057   5.430  0.2221 -0.0426 -0.0198
 1033loPI   PO415508   5.035   0.254   5.858 -0.0484  0.1647  0.1940
 1033loPI   GL115509   5.124   0.283   6.285  0.3221 -0.1382  0.1819
 1033loPI   GL215510   4.783   0.045   6.302  0.2578 -0.0043 -0.0037
 1033loPI   C1A15511   5.144   0.356   6.769 -0.1733  0.3356 -0.2400
 1033loPI   C2A15512   5.135   0.387   7.161 -0.2157  0.1217  0.1535
 1033loPI   C3A15513   5.045   0.375   7.537  0.2679  0.1911  0.2467
 1033loPI   C4A15514   5.197   0.151   7.801 -0.0437  0.2048  0.0042
 1033loPI   C5A15515   5.370  -0.173   7.992 -0.1045  0.1020  0.0843
 1033loPI   C6A15516   5.329  -0.432   8.320  0.2520 -0.0276 -0.0036
 1033loPI   C1B15517   4.731   0.075   6.740 -0.1045  0.1416 -0.2946
 1033loPI   C2B15518   4.638   0.181   7.169 -0.0125 -0.0229  0.2253
 1033loPI   C3B15519   4.406   0.496   7.372  0.2620 -0.0381  0.2014
 1033loPI   C4B15520   4.097   0.620   7.562 -0.1763 -0.2492  0.0765
 1034loPI    C115521   1.690  13.122   4.999 -0.1753 -0.1655 -0.1497
 1034loPI    C215522   1.908  13.447   4.916  0.0953 -0.2786  0.1028
 1034loPI    C315523   1.670  13.290   4.636  0.2105 -0.0553 -0.1246
 1034loPI   PO415524   1.654  13.187   5.247  0.1818  0.1095 -0.0524
 1034loPI   GL115525   1.703  13.183   5.684  0.0058  0.0149  0.2338
 1034loPI   GL215526   1.504  12.910   5.649 -0.1959  0.0733 -0.2025
 1034loPI   C1A15527   1.849  13.265   6.092 -0.0189 -0.0178  0.1584
 1034loPI   C2A15528   1.761  13.360   6.446 -0.0095 -0.1409  0.1550
 1034loPI   C3A15529   1.697  13.218   6.962 -0.1952 -0.1283  0.1377
 1034loPI   C4A15530   1.629  13.332   7.360 -0.1594  0.0056 -0.1761
 1034loPI   C5A15531   1.506  13.399   7.801 -0.0516  0.1914  0.1295
 1034loPI   C6A15532   1.600  13.535   8.271 -0.1322 -0.2602 -0.2000
 1034loPI   C1B15533   1.342  13.004   6.144  0.0427  0.1510 -0.2006
 1034loPI   C2B15534   1.186  12.949   6.513 -0.0208 -0.0811 -0.0007
 1034loPI   C3B15535   1.025  13.003   6.933 -0.0929  0.3762 -0.1094
 1034loPI   C4B15536   1.034  13.301   7.271 -0.1103 -0.0825 -0.4033
 1035loPI    C115537   2.983  13.086   5.049 -0.0052 -0.0389  0.1231
 1035loPI    C215538   3.055  12.769   4.816 -0.0208  0.0662 -0.0265
 1035loPI    C315539   3.006  13.131   4.652 -0.3078  0.0960  0.1174
 1035loPI   PO415540   2.785  13.007   5.270 -0.2349 -0.0199  0.0850
 1035loPI   GL115541   2.852  12.957   5.580 -0.1053 -0.3227 -0.2745
 1035loPI   GL215542   2.795  12.773   5.776 -0.0991  0.0549  0.0374
 1035loPI   C1A15543   2.817  13.287   5.853  0.3201  0.2388 -0.1078
 1035loPI   C2A15544   2.761  13.469   6.245 -0.0110  0.2534  0.1583
 1035loPI   C3A15545   2.611  13.699   6.654  0.0900  0.2679 -0.0284
 1035loPI   C4A15546   2.535  13.777   7.084 -0.0424 -0.1578  0.1097
 1035loPI   C5A15547   2.770  13.637   7.427 -0.1307  0.0717  0.1746
 1035loPI   C6A15548   3.008  13.935   7.773  0.1285  0.1830  0.1580
 1035loPI   C1B15549   2.792  12.835   6.178  0.0271  0.0616 -0.0047
 1035loPI   C2B15550   2.675  12.991   6.511  0.1816 -0.1679 -0.2633
 1035loPI   C3B15551   2.513  13.111   6.975 -0.0431  0.0969  0.3402
 1035loPI   C4B15552   2.196  13.236   7.216  0.0726  0.0506 -0.2686
 1036loPI    C115553  10.914   5.420   4.960 -0.0017  0.0079 -0.1188
 1036loPI    C215554  10.863   5.816   4.981 -0.1430 -0.0189  0.0672
 1036loPI    C315555  10.905   5.639   4.625  0.3212  0.2108  0.0000
 1036loPI   PO415556  11.014   5.397   5.179 -0.1745  0.4999 -0.0717
 1036loPI   GL115557  11.013   5.630   5.483  0.1869  0.0667 -0.1410
 1036loPI   GL215558  10.948   5.963   5.442  0.2460 -0.0836 -0.1766
 1036loPI   C1A15559  11.037   5.392   5.893  0.1411  0.3443  0.1359
 1036loPI   C2A15560  11.116   5.428   6.366 -0.3956  0.0108  0.0492
 1036loPI   C3A15561  11.275   5.449   6.666 -0.1610  0.0049 -0.2545
 1036loPI   C4A15562  11.189   5.590   7.086  0.1382  0.0003  0.0150
 1036loPI   C5A15563  11.344   5.636   7.482 -0.2455 -0.1840  0.0155
 1036loPI   C6A15564  11.302   6.089   7.799  0.0017  0.0452 -0.2682
 1036loPI   C1B15565  10.945   5.915   5.892  0.0468 -0.0981  0.2215
 1036loPI   C2B15566  10.781   5.723   6.239  0.2366 -0.2788 -0.4486
 1036loPI   C3B15567  10.729   5.604   6.577 -0.0823  0.0859 -0.3797
 1036loPI   C4B15568  10.787   5.352   6.850 -0.1778 -0.2517 -0.2185
 1037loPI    C115569  16.404   9.542   5.455  0.1776 -0.1994 -0.0656
 1037loPI    C215570  16.028   9.421   5.393  0.2241 -0.2234 -0.3083
 1037loPI    C315571  16.241   9.578   5.092  0.1877  0.4100 -0.0209
 1037loPI   PO415572  16.453   9.756   5.632  0.0474 -0.1818 -0.2346
 1037loPI   GL115573  16.704   9.861   5.924 -0.2271 -0.0474 -0.0338
 1037loPI   GL215574  16.755  10.173   6.015 -0.0211 -0.2852 -0.0733
 1037loPI   C1A15575  16.595   9.822   6.339 -0.0359  0.1055  0.0006
 1037loPI   C2A15576  16.613   9.723   6.670  0.3405 -0.1833 -0.1663
 1037loPI   C3A15577  16.662   9.543   7.064  0.1243 -0.0437 -0.0913
 1037loPI   C4A15578  16.556   9.406   7.621  0.0488 -0.0382  0.0969
 1037loPI   C5A15579  16.679   9.470   8.041 -0.0740 -0.1089 -0.2047
 1037loPI   C6A15580  16.743   9.794   8.316 -0.0861 -0.0305 -0.2601
 1037loPI   C1B15581  16.763  10.262   6.455  0.3174  0.0516 -0.0268
 1037loPI   C2B15582  16.913  10.264   6.875  0.1609  0.2031  0.3636
 1037loPI   C3B15583  16.719  10.097   7.244 -0.2881 -0.0950 -0.1772
 1037loPI   C4B15584  16.440   9.856   7.463 -0.0536 -0.1133 -0.0607
 1038loPI    C115585   8.833  13.582   5.446 -0.0246  0.0645 -0.0793
 1038loPI    C215586   8.631  13.309   5.234 -0.1430 -0.0207  0.1398
 1038loPI    C315587   8.548  13.698   5.191 -0.0719 -0.0277 -0.0691
 1038loPI   PO415588   9.076  13.483   5.441  0.1695  0.1354 -0.1096
 1038loPI   GL115589   9.336  13.325   5.852 -0.1105 -0.2734  0.2342
 1038loPI   GL215590   9.406  13.669   5.728 -0.1200 -0.2075  0.0097
 1038loPI   C1A15591   9.586  13.140   6.255 -0.0260 -0.0107  0.1943
 1038loPI   C2A15592   9.720  13.280   6.614 -0.1161  0.0059 -0.0260
 1038loPI   C3A15593   9.631  13.197   7.054  0.0469  0.1639 -0.5014
 1038loPI   C4A15594   9.525  13.505   7.388  0.1654 -0.0539  0.0219
 1038loPI   C5A15595   9.406  13.527   7.725  0.0130 -0.0291  0.1029
 1038loPI   C6A15596   9.398  13.670   8.092  0.1124 -0.2640  0.0530
 1038loPI   C1B15597   9.442  13.770   6.155  0.0080 -0.0210 -0.0247
 1038loPI   C2B15598   9.642  13.795   6.584 -0.1493  0.2123 -0.0295
 1038loPI   C3B15599   9.865  13.592   6.929 -0.1823  0.0881  0.1498
 1038loPI   C4B15600  10.099  13.488   7.207 -0.1270 -0.0513  0.0886
 1039loPI    C115601  12.249  14.594   5.281  0.1776  0.0759 -0.1054
 1039loPI    C215602  12.126  14.251   5.115  0.1049  0.0280  0.0453
 1039loPI    C315603  12.067  14.598   4.925  0.3101 -0.0556 -0.1758
 1039loPI   PO415604  12.077  14.630   5.513 -0.0814  0.0377 -0.1731
 1039loPI   GL115605  12.261  14.688   5.943  0.1854  0.0485 -0.0951
 1039loPI   GL215606  12.027  14.340   5.944 -0.0947 -0.1198 -0.0692
 1039loPI   C1A15607  12.205  14.616   6.324  0.2433 -0.1455 -0.0020
 1039loPI   C2A15608  12.019  14.663   6.722  0.0494  0.0095  0.1081
 1039loPI   C3A15609  11.713  14.694   7.076  0.0981 -0.1272 -0.1252
 1039loPI   C4A15610  11.634  14.518   7.521  0.0572 -0.1439  0.0287
 1039loPI   C5A15611  11.914  14.418   7.764 -0.1969  0.3167  0.1926
 1039loPI   C6A15612  12.148  14.042   7.795  0.1375  0.1580 -0.3429
 1039loPI   C1B15613  11.805  14.282   6.318  0.1343  0.1635  0.1722
 1039loPI   C2B15614  11.557  14.457   6.605 -0.1884  0.1060 -0.0670
 1039loPI   C3B15615  11.324  14.841   6.745 -0.0866 -0.0791  0.1125
 1039loPI   C4B15616  11.045  15.143   6.875 -0.0940 -0.0293 -0.2302
 1040loPI    C115617   5.928   6.485   4.749  0.1971 -0.0648 -0.1959
 1040loPI    C215618   5.565   6.490   4.581  0.0107 -0.0466  0.1962
 1040loPI    C315619   5.794   6.163   4.552 -0.0549 -0.0759 -0.0106
 1040loPI   PO415620   5.803   6.642   5.020  0.1374 -0.1085  0.2588
 1040loPI   GL115621   5.755   6.600   5.513 -0.4334  0.0025 -0.0338
 1040loPI   GL215622   6.031   6.406   5.332  0.1144 -0.1361 -0.1081
 1040loPI   C1A15623   5.647   6.690   5.843 -0.1111  0.2853 -0.0267
 1040loPI   C2A15624   5.569   6.611   6.346  0.0243  0.2003  0.2444
 1040loPI   C3A15625   5.484   6.555   6.722 -0.2944 -0.3897  0.0549
 1040loPI   C4A15626   5.126   6.680   6.923 -0.0515 -0.0610 -0.1961
 1040loPI   C5A15627   4.699   6.583   7.017  0.0933  0.0157 -0.1050
 1040loPI   C6A15628   4.308   6.613   6.987 -0.0123  0.0026  0.2321
 1040loPI   C1B15629   5.912   6.202   5.791  0.0232  0.1188  0.1216
 1040loPI   C2B15630   5.618   6.213   6.031  0.1331  0.4209 -0.0007
 1040loPI   C3B15631   5.182   6.089   6.007 -0.2467 -0.1950 -0.0291
 1040loPI   C4B15632   4.752   6.241   5.989  0.2372  0.1175  0.2344
 1041loPI    C115633  14.520  13.793   5.493  0.1959  0.2045  0.0797
 1041loPI    C215634  14.656  14.126   5.318  0.0156  0.1938 -0.0848
 1041loPI    C315635  14.323  14.138   5.539 -0.0657  0.0976 -0.2005
 1041loPI   PO415636  14.742  13.634   5.631  0.2951 -0.1486 -0.0894
 1041loPI   GL115637  14.704  13.468   6.016  0.0843 -0.2822 -0.1339
 1041loPI   GL215638  14.862  13.717   6.131  0.2271  0.0962 -0.1837
 1041loPI   C1A15639  14.862  13.317   6.410  0.0781 -0.0483  0.0324
 1041loPI   C2A15640  14.895  13.198   6.774  0.1626  0.1376  0.1010
 1041loPI   C3A15641  14.915  12.906   7.147 -0.0949 -0.0860 -0.0599
 1041loPI   C4A15642  14.805  12.849   7.517  0.0513 -0.0643  0.3362
 1041loPI   C5A15643  14.635  12.909   7.933 -0.3220 -0.2372  0.0235
 1041loPI   C6A15644  14.353  13.223   8.162 -0.0867  0.1613 -0.1054
 1041loPI   C1B15645  14.871  13.754   6.563  0.1622  0.1490 -0.1082
 1041loPI   C2B15646  14.791  13.691   7.010 -0.0624  0.1304 -0.0422
 1041loPI   C3B15647  14.655  13.607   7.324 -0.0529  0.0219  0.4102
 1041loPI   C4B15648  14.761  13.712   7.724  0.3376 -0.0643 -0.1429
 1042loPI    C115649   7.184  16.411   5.249 -0.1441 -0.1125 -0.0937
 1042loPI    C215650   7.243  16.020   5.307  0.0616 -0.0949 -0.1714
 1042loPI    C315651   6.905  16.148   5.134 -0.1644 -0.2102  0.1731
 1042loPI   PO415652   7.188  16.522   5.526  0.2868  0.2530  0.1626
 1042loPI   GL115653   7.181  16.662   5.871  0.1845 -0.0514  0.1557
 1042loPI   GL215654   6.808  16.646   5.876  0.2499 -0.5068  0.0721
 1042loPI   C1A15655   7.193  16.876   6.301 -0.1689 -0.1013  0.0820
 1042loPI   C2A15656   7.119  16.832   6.755  0.3315  0.0307 -0.0361
 1042loPI   C3A15657   7.068  17.013   7.155 -0.0440  0.1532 -0.0826
 1042loPI   C4A15658   6.991  17.061   7.534  0.0414  0.2241  0.0057
 1042loPI   C5A15659   6.846  17.348   7.877 -0.1782 -0.3340  0.0175
 1042loPI   C6A15660   6.781  17.474   8.311  0.0807 -0.0180 -0.1522
 1042loPI   C1B15661   6.946  16.438   6.310  0.0869 -0.1057 -0.1336
 1042loPI   C2B15662   6.793  16.450   6.781  0.4366  0.2249  0.0711
 1042loPI   C3B15663   6.989  16.530   7.254 -0.1465 -0.0631 -0.0337
 1042loPI   C4B15664   7.122  16.330   7.630  0.0870 -0.1792  0.0011
 1043loPI    C115665   2.179  16.233   5.194  0.1716  0.0048  0.2115
 1043loPI    C215666   2.441  16.499   5.052 -0.1508  0.2270  0.0177
 1043loPI    C315667   2.255  16.249   4.801 -0.0210 -0.0288  0.1715
 1043loPI   PO415668   2.018  16.318   5.364 -0.1610 -0.3982  0.2476
 1043loPI   GL115669   1.991  16.373   5.760 -0.3389  0.0236  0.2455
 1043loPI   GL215670   2.043  16.084   5.875 -0.1718  0.0971 -0.2301
 1043loPI   C1A15671   1.919  16.505   6.173 -0.1261 -0.0194  0.0551
 1043loPI   C2A15672   2.100  16.551   6.621  0.2981  0.1826 -0.0563
 1043loPI   C3A15673   2.369  16.552   6.978 -0.1544 -0.0330 -0.2664
 1043loPI   C4A15674   2.406  16.331   7.375 -0.3133 -0.1655  0.0394
 1043loPI   C5A15675   2.772  16.166   7.740 -0.0671 -0.0422  0.1393
 1043loPI   C6A15676   3.187  16.179   7.658 -0.0572 -0.2062 -0.2805
 1043loPI   C1B15677   2.177  16.010   6.239  0.3303 -0.0040 -0.2209
 1043loPI   C2B15678   2.191  16.017   6.619  0.1473  0.1745 -0.0393
 1043loPI   C3B15679   2.236  16.003   7.033 -0.0138  0.0881 -0.2552
 1043loPI   C4B15680   2.501  15.828   7.324 -0.1470  0.3943 -0.1687
 1044loPI    C115681   5.262  11.592   5.176  0.1578 -0.0294  0.0911
 1044loPI    C215682   5.197  11.552   4.783  0.0646 -0.3717  0.1382
 1044loPI    C315683   5.262  11.915   4.939  0.1767 -0.2409 -0.2029
 1044loPI   PO415684   5.370  11.527   5.443  0.0456  0.0506  0.0961
 1044loPI   GL115685   5.359  11.630   5.875  0.0445 -0.2817  0.0494
 1044loPI   GL215686   5.284  11.871   5.865 -0.2077 -0.2229  0.1714
 1044loPI   C1A15687   5.315  11.545   6.395  0.1845 -0.3609  0.1417
 1044loPI   C2A15688   5.341  11.487   6.822 -0.1273  0.1412  0.1696
 1044loPI   C3A15689   5.405  11.685   7.224 -0.1331 -0.3739 -0.1035
 1044loPI   C4A15690   5.468  11.954   7.553  0.2991  0.1526 -0.1821
 1044loPI   C5A15691   5.707  12.091   7.918  0.1436  0.2258 -0.0379
 1044loPI   C6A15692   5.836  12.300   8.302 -0.0296 -0.2604 -0.1066
 1044loPI   C1B15693   5.266  12.000   6.238  0.1720  0.3053  0.0150
 1044loPI   C2B15694   5.190  11.924   6.698 -0.2548 -0.3762  0.1293
 1044loPI   C3B15695   5.077  12.099   7.142 -0.0296 -0.2106 -0.0475
 1044loPI   C4B15696   5.055  12.224   7.565 -0.0251 -0.1355 -0.0055
 1045loPI    C115697   0.233   1.032   4.815 -0.0451 -0.2364 -0.0412
 1045loPI    C215698  -0.038   0.859   4.577 -0.0195 -0.2565 -0.0557
 1045loPI    C315699   0.266   0.644   4.725 -0.0212 -0.2381 -0.0252
 1045loPI   PO415700   0.019   1.222   4.962 -0.1071  0.0064 -0.3828
 1045loPI   GL115701   0.045   1.357   5.419 -0.0959  0.0179  0.2393
 1045loPI   GL215702   0.030   0.981   5.473  0.2049  0.3189 -0.2492
 1045loPI   C1A15703  -0.008   1.286   5.921 -0.0389  0.0891 -0.0112
 1045loPI   C2A15704  -0.197   1.260   6.355 -0.0900  0.1874  0.3241
 1045loPI   C3A15705  -0.335   1.286   6.814 -0.2781  0.0311 -0.2150
 1045loPI   C4A15706  -0.390   1.321   7.247 -0.2244  0.1693  0.1115
 1045loPI   C5A15707  -0.597   1.356   7.588  0.0466  0.0835 -0.1740
 1045loPI   C6A15708  -0.991   1.295   7.798  0.3337  0.1374  0.2137
 1045loPI   C1B15709   0.060   0.789   5.850 -0.2359 -0.0176  0.2238
 1045loPI   C2B15710  -0.026   0.810   6.190 -0.0059 -0.2858 -0.0271
 1045loPI   C3B15711  -0.355   0.781   6.418  0.0061 -0.0937 -0.2273
 1045loPI   C4B15712  -0.847   0.566   6.360 -0.3131 -0.2075 -0.0339
 1046loPI    C115713  13.580   8.821   5.192 -0.2242 -0.3865  0.1542
 1046loPI    C215714  13.809   8.646   5.469  0.2530  0.0963  0.0811
 1046loPI    C315715  13.860   8.558   5.082  0.1294  0.0084  0.0843
 1046loPI   PO415716  13.534   9.038   5.335  0.1776  0.0544  0.0384
 1046loPI   GL115717  13.573   9.059   5.691  0.0984  0.1464 -0.1314
 1046loPI   GL215718  13.821   9.265   5.724  0.0429 -0.3829 -0.0381
 1046loPI   C1A15719  13.589   9.115   6.134 -0.0345  0.0107 -0.1950
 1046loPI   C2A15720  13.719   9.199   6.606  0.0137 -0.1125  0.0380
 1046loPI   C3A15721  13.848   9.221   6.971 -0.1490 -0.1578 -0.1904
 1046loPI   C4A15722  13.994   9.351   7.378  0.0076  0.1953  0.1385
 1046loPI   C5A15723  13.833   9.574   7.736 -0.2208 -0.0628  0.0304
 1046loPI   C6A15724  13.655   9.983   7.879  0.0019 -0.0764 -0.0593
 1046loPI   C1B15725  14.043   9.279   6.179  0.3482  0.2742 -0.1628
 1046loPI   C2B15726  14.207   9.274   6.632  0.2050 -0.3051  0.2507
 1046loPI   C3B15727  14.457   9.066   6.926  0.1760 -0.1621  0.3898
 1046loPI   C4B15728  14.729   9.177   7.219 -0.1707 -0.0450 -0.1046
 1047loPI    C115729  13.113   2.398   5.174 -0.3065 -0.3230 -0.0856
 1047loPI    C215730  13.251   2.334   4.804 -0.0208  0.0122 -0.0415
 1047loPI    C315731  13.022   2.653   4.880 -0.1550 -0.1057  0.0528
 1047loPI   PO415732  13.291   2.437   5.401 -0.1800  0.1538  0.0939
 1047loPI   GL115733  13.417   2.673   5.688  0.3174 -0.0769  0.3182
 1047loPI   GL215734  13.620   2.391   5.800 -0.0182 -0.1387 -0.1020
 1047loPI   C1A15735  13.205   2.545   6.020  0.0102 -0.3895  0.2012
 1047loPI   C2A15736  13.075   2.617   6.402 -0.2010  0.2253 -0.2635
 1047loPI   C3A15737  12.943   2.282   6.631  0.0562 -0.0018 -0.0072
 1047loPI   C4A15738  12.827   2.033   6.975  0.0498  0.2781  0.0669
 1047loPI   C5A15739  12.825   1.751   7.406  0.0484  0.1415  0.2196
 1047loPI   C6A15740  12.865   1.835   7.825 -0.1603 -0.0659 -0.0006
 1047loPI   C1B15741  13.645   2.412   6.200  0.0444  0.1619  0.1748
 1047loPI   C2B15742  13.547   2.325   6.707  0.2515  0.0832  0.0531
 1047loPI   C3B15743  13.354   2.119   7.042 -0.1012 -0.2669  0.0604
 1047loPI   C4B15744  13.273   2.035   7.424  0.0150 -0.2122  0.1676
 1048loPI    C115745   3.192   8.223   4.702  0.6176  0.3185 -0.0416
 1048loPI    C215746   3.540   8.034   4.759  0.2847 -0.3242 -0.0445
 1048loPI    C315747   3.308   7.937   4.447  0.1732  0.2179 -0.1409
 1048loPI   PO415748   3.181   8.322   5.059 -0.1962 -0.1460  0.2319
 1048loPI   GL115749   3.106   8.401   5.567  0.2186 -0.1559 -0.0274
 1048loPI   GL215750   3.127   8.706   5.492  0.0323 -0.3011  0.1985
 1048loPI   C1A15751   3.374   8.264   5.878  0.2925 -0.0959  0.0905
 1048loPI   C2A15752   3.469   7.932   6.158  0.1653  0.1466  0.1292
 1048loPI   C3A15753   3.411   7.823   6.570 -0.1331 -0.3453 -0.0769
 1048loPI   C4A15754   3.686   7.756   6.896 -0.0819 -0.2973 -0.1403
 1048loPI   C5A15755   3.676   7.374   7.295  0.3846 -0.2059  0.2497
 1048loPI   C6A15756   3.461   7.301   7.598  0.1850 -0.0433 -0.2560
 1048loPI   C1B15757   3.140   8.704   5.979  0.0407  0.0750 -0.0195
 1048loPI   C2B15758   3.254   8.417   6.323  0.1498  0.2286 -0.1965
 1048loPI   C3B15759   3.260   8.357   6.828  0.0055  0.0956  0.4005
 1048loPI   C4B15760   3.343   8.381   7.325  0.3190 -0.0606  0.2137
 1049loPI    C115761  13.368   7.304   5.061 -0.0429 -0.0094  0.0800
 1049loPI    C215762  13.551   7.389   4.715 -0.2829  0.0381 -0.0374
 1049loPI    C315763  13.153   7.411   4.742 -0.2755 -0.0881  0.2085
 1049loPI   PO415764  13.396   7.395   5.252  0.1007 -0.0302 -0.2421
 1049loPI   GL115765  13.093   7.691   5.531 -0.1565  0.0222 -0.4105
 1049loPI   GL215766  13.144   7.981   5.657  0.0703 -0.0840 -0.0044
 1049loPI   C1A15767  12.995   7.591   5.999 -0.1264 -0.0355  0.0142
 1049loPI   C2A15768  12.733   7.756   6.202 -0.1763 -0.1260 -0.0904
 1049loPI   C3A15769  12.807   7.715   6.639  0.0361  0.1452  0.1975
 1049loPI   C4A15770  13.015   7.826   6.961 -0.1747  0.0146  0.0833
 1049loPI   C5A15771  13.254   8.091   7.106  0.1778  0.1214  0.2370
 1049loPI   C6A15772  13.511   8.135   7.494  0.1355  0.0103 -0.3662
 1049loPI   C1B15773  12.991   8.279   5.988 -0.1357  0.1370  0.0757
 1049loPI   C2B15774  13.134   8.407   6.461  0.3037  0.3253  0.2328
 1049loPI   C3B15775  13.034   8.467   6.900 -0.2261 -0.0769 -0.0087
 1049loPI   C4B15776  12.836   8.390   7.195 -0.2241 -0.0300  0.2464
 1050loPI    C115777  14.811  17.318   5.201  0.0076 -0.0444 -0.1147
 1050loPI    C215778  14.969  17.027   4.976 -0.1460 -0.0131 -0.2649
 1050loPI    C315779  14.922  17.395   4.824 -0.2309  0.0135 -0.1753
 1050loPI   PO415780  14.841  17.317   5.386 -0.2036 -0.1808  0.1416
 1050loPI   GL115781  15.013  17.538   5.632  0.0909 -0.0182 -0.0667
 1050loPI   GL215782  15.105  17.832   5.545  0.1787 -0.0094 -0.0847
 1050loPI   C1A15783  15.202  17.511   5.977 -0.2258 -0.1341  0.1689
 1050loPI   C2A15784  15.118  17.357   6.412  0.1546 -0.1698  0.0325
 1050loPI   C3A15785  15.042  17.284   6.879  0.1906  0.2058 -0.0219
 1050loPI   C4A15786  14.753  17.291   7.238 -0.1666 -0.0141 -0.1992
 1050loPI   C5A15787  14.778  17.403   7.651  0.4526 -0.0946  0.2887
 1050loPI   C6A15788  14.428  17.379   8.014 -0.1320  0.2540 -0.0922
 1050loPI   C1B15789  14.841  17.988   5.921 -0.1414 -0.0964  0.0425
 1050loPI   C2B15790  14.875  17.886   6.397 -0.1714 -0.4922 -0.0269
 1050loPI   C3B15791  14.842  17.967   6.819 -0.1376  0.4581 -0.1710
 1050loPI   C4B15792  14.923  17.856   7.231 -0.0940  0.0853 -0.0671
 1051loPI    C115793  16.723  11.331   5.610  0.0181 -0.1268 -0.2706
 1051loPI    C215794  17.039  11.093   5.551  0.1583  0.0012 -0.0498
 1051loPI    C315795  16.876  11.289   5.243  0.1119 -0.2897 -0.2143
 1051loPI   PO415796  16.534  11.159   5.740  0.1219 -0.2703  0.0900
 1051loPI   GL115797  16.690  11.252   6.132  0.0823  0.1014 -0.1689
 1051loPI   GL215798  16.551  11.442   6.232  0.3037  0.2313 -0.0360
 1051loPI   C1A15799  16.717  11.312   6.658  0.0623 -0.2939  0.2531
 1051loPI   C2A15800  16.716  11.355   7.104  0.2014  0.0921  0.1527
 1051loPI   C3A15801  16.432  11.257   7.390 -0.1709  0.2077  0.1665
 1051loPI   C4A15802  16.299  11.430   7.736  0.0575  0.3083  0.0343
 1051loPI   C5A15803  16.146  11.586   8.105 -0.3027 -0.1020  0.1088
 1051loPI   C6A15804  16.024  11.538   8.515 -0.0470 -0.2636 -0.0663
 1051loPI   C1B15805  16.531  11.749   6.530 -0.3420 -0.1959  0.2136
 1051loPI   C2B15806  16.463  11.774   6.871  0.1224  0.0160 -0.0911
 1051loPI   C3B15807  16.330  11.777   7.274  0.1735 -0.3357  0.0938
 1051loPI   C4B15808  16.221  11.968   7.613  0.3863 -0.1032  0.0019
 1052loPI    C115809  16.932   2.880   4.921  0.0332 -0.0282 -0.0517
 1052loPI    C215810  16.566   2.980   4.792 -0.0180 -0.0715  0.0594
 1052loPI    C315811  16.829   2.815   4.540 -0.0706 -0.0280 -0.0240
 1052loPI   PO415812  16.993   3.145   5.088  0.2573 -0.0790 -0.3140
 1052loPI   GL115813  17.096   3.405   5.391 -0.4124 -0.0792  0.1968
 1052loPI   GL215814  17.307   3.670   5.477  0.2162 -0.2238 -0.2927
 1052loPI   C1A15815  17.067   3.114   5.753 -0.0789  0.0431 -0.0328
 1052loPI   C2A15816  16.941   3.095   6.109 -0.1235  0.1239 -0.2076
 1052loPI   C3A15817  16.979   3.316   6.477  0.2940  0.1516  0.2323
 1052loPI   C4A15818  16.819   3.302   6.999 -0.0270 -0.0483  0.1819
 1052loPI   C5A15819  16.543   2.969   6.981 -0.1299  0.2521  0.1716
 1052loPI   C6A15820  16.347   2.463   6.888  0.0961 -0.1549  0.0463
 1052loPI   C1B15821  17.462   3.614   5.848 -0.1172 -0.0421 -0.2397
 1052loPI   C2B15822  17.494   3.395   6.353 -0.4049 -0.2073 -0.1891
 1052loPI   C3B15823  17.350   3.457   6.810  0.2403  0.3831  0.0459
 1052loPI   C4B15824  17.242   3.613   7.139  0.3614 -0.1018 -0.1485
 1053loPI    C115825  11.083  14.705   5.275  0.0528 -0.1156  0.0809
 1053loPI    C215826  11.237  14.639   4.912 -0.0344  0.1418 -0.0052
 1053loPI    C315827  11.009  14.962   4.977 -0.0418  0.0831  0.2722
 1053loPI   PO415828  11.262  14.678   5.539  0.2151  0.0169 -0.3324
 1053loPI   GL115829  11.320  14.378   5.790 -0.2193 -0.1592  0.0189
 1053loPI   GL215830  11.005  14.513   5.939  0.0058  0.2068 -0.1260
 1053loPI   C1A15831  11.292  14.177   6.225 -0.3114  0.4874 -0.0813
 1053loPI   C2A15832  11.251  14.072   6.545  0.1359 -0.2581  0.2071
 1053loPI   C3A15833  11.182  13.767   6.837 -0.0293  0.0519  0.1875
 1053loPI   C4A15834  11.204  13.546   7.155  0.1587 -0.3793  0.0867
 1053loPI   C5A15835  11.071  13.211   7.416  0.0693 -0.0339  0.1645
 1053loPI   C6A15836  10.835  12.848   7.500  0.0907 -0.0850 -0.0217
 1053loPI   C1B15837  11.282  14.691   6.207  0.2663 -0.1854 -0.0854
 1053loPI   C2B15838  11.672  14.909   6.396  0.0940 -0.0843  0.0608
 1053loPI   C3B15839  11.812  15.120   6.611  0.0704  0.3593 -0.3802
 1053loPI   C4B15840  11.992  15.126   7.047  0.2419  0.0421  0.3032
 1054loPI    C115841  17.468  13.210   5.354  0.2733  0.2679  0.2037
 1054loPI    C215842  17.170  13.212   5.087  0.0546  0.1067  0.4412
 1054loPI    C315843  17.546  13.285   4.969 -0.0187 -0.0978  0.0673
 1054loPI   PO415844  17.252  13.118   5.632  0.0289  0.0847  0.3077
 1054loPI   GL115845  17.024  13.308   5.885  0.0651  0.0488  0.1193
 1054loPI   GL215846  16.678  13.298   5.992 -0.1582 -0.2019 -0.0939
 1054loPI   C1A15847  17.048  13.628   6.114  0.1378  0.0146 -0.0851
 1054loPI   C2A15848  16.869  13.857   6.516 -0.3301  0.1794  0.3228
 1054loPI   C3A15849  17.002  13.763   6.932  0.1041 -0.1624  0.3032
 1054loPI   C4A15850  16.942  13.736   7.337 -0.1776 -0.2611 -0.3804
 1054loPI   C5A15851  16.659  13.695   7.726  0.0578 -0.1842  0.0628
 1054loPI   C6A15852  16.413  13.907   8.035 -0.0175  0.0837  0.0457
 1054loPI   C1B15853  16.587  13.450   6.321 -0.2581 -0.0199  0.2940
 1054loPI   C2B15854  16.526  13.535   6.751  0.0999 -0.0977 -0.2032
 1054loPI   C3B15855  16.436  13.716   7.263  0.0640  0.0355  0.3363
 1054loPI   C4B15856  16.208  13.974   7.559  0.2995  0.0941 -0.1860
 1055loPI    C115857   4.495  11.237   4.881  0.0152  0.1262  0.1378
 1055loPI    C215858   4.353  11.179   4.511  0.1092  0.2584  0.0801
 1055loPI    C315859   4.746  11.154   4.581  0.0864  0.1774  0.1830
 1055loPI   PO415860   4.308  11.232   5.097  0.2472  0.2817 -0.3030
 1055loPI   GL115861   4.215  11.252   5.516  0.0390  0.1652 -0.0844
 1055loPI   GL215862   4.289  11.085   5.802 -0.0681  0.2042 -0.2044
 1055loPI   C1A15863   4.411  11.571   5.819  0.1948  0.2247 -0.0700
 1055loPI   C2A15864   4.738  11.492   6.197  0.0490  0.1146  0.0544
 1055loPI   C3A15865   4.860  11.582   6.640 -0.1941  0.0670 -0.1211
 1055loPI   C4A15866   4.757  11.703   7.049  0.1877 -0.0523  0.2932
 1055loPI   C5A15867   4.858  11.805   7.464 -0.1992  0.0055  0.0406
 1055loPI   C6A15868   4.697  11.938   7.859  0.0848 -0.0200  0.0487
 1055loPI   C1B15869   4.708  10.999   6.043  0.1495 -0.1251  0.2633
 1055loPI   C2B15870   4.827  10.901   6.475 -0.0353 -0.0824 -0.1205
 1055loPI   C3B15871   4.943  11.092   6.843  0.0829  0.0340 -0.0893
 1055loPI   C4B15872   5.050  11.352   7.249  0.5681  0.1570 -0.3537
 1056loPI    C115873  14.002   0.673   5.144 -0.2118 -0.0411  0.0061
 1056loPI    C215874  14.185   0.876   4.852 -0.0446 -0.1567  0.0287
 1056loPI    C315875  13.830   0.705   4.785 -0.1573  0.0880 -0.0090
 1056loPI   PO415876  14.147   0.716   5.318 -0.1482  0.0316  0.1795
 1056loPI   GL115877  14.305   0.737   5.627  0.2816 -0.1378  0.2998
 1056loPI   GL215878  14.421   0.559   5.744  0.2411  0.0322 -0.1980
 1056loPI   C1A15879  14.603   0.982   5.913  0.0490  0.1223 -0.2100
 1056loPI   C2A15880  14.722   1.153   6.162 -0.2408 -0.1740 -0.3542
 1056loPI   C3A15881  14.690   1.222   6.582 -0.3778 -0.0575  0.1417
 1056loPI   C4A15882  14.661   1.177   6.993  0.0992 -0.2727 -0.0979
 1056loPI   C5A15883  14.580   1.247   7.368  0.0211  0.0274  0.0617
 1056loPI   C6A15884  14.761   0.999   7.639  0.1837 -0.1345 -0.2683
 1056loPI   C1B15885  14.439   0.614   6.175 -0.0985 -0.0702  0.0803
 1056loPI   C2B15886  14.357   0.582   6.671 -0.1700 -0.0233 -0.0617
 1056loPI   C3B15887  14.279   0.871   7.094 -0.3160 -0.0586 -0.1891
 1056loPI   C4B15888  14.115   1.178   7.486 -0.0897  0.3704  0.0451
 1057loPI    C115889  10.949   2.828   5.326 -0.0515 -0.1124  0.0250
 1057loPI    C215890  11.032   3.170   5.136  0.0288 -0.1006  0.0809
 1057loPI    C315891  11.107   2.819   4.959  0.0762 -0.0896  0.0789
 1057loPI   PO415892  10.983   2.862   5.556  0.1813  0.0339 -0.2609
 1057loPI   GL115893  11.284   3.046   5.828 -0.2416 -0.1163 -0.1531
 1057loPI   GL215894  10.983   3.072   6.055  0.3605 -0.0868 -0.1400
 1057loPI   C1A15895  11.415   3.103   6.277  0.2861  0.1939  0.0941
 1057loPI   C2A15896  11.281   3.243   6.694  0.1363  0.0593 -0.1125
 1057loPI   C3A15897  11.439   3.223   7.194 -0.4792  0.1310  0.4033
 1057loPI   C4A15898  11.607   3.448   7.569  0.3597 -0.1877  0.1981
 1057loPI   C5A15899  11.511   3.774   7.898 -0.1271  0.1419  0.0563
 1057loPI   C6A15900  11.135   3.834   8.043  0.1799  0.0989  0.2891
 1057loPI   C1B15901  10.796   3.073   6.580  0.0340 -0.0445  0.3829
 1057loPI   C2B15902  10.621   2.896   6.918  0.2296 -0.1567  0.1121
 1057loPI   C3B15903  10.456   2.828   7.334 -0.1528  0.2753 -0.1042
 1057loPI   C4B15904  10.695   2.681   7.706 -0.3327 -0.1130  0.0895
 1058loPI    C115905  13.499   0.474   5.102 -0.1232  0.3575  0.2090
 1058loPI    C215906  13.101   0.448   5.072 -0.0801  0.0526 -0.1848
 1058loPI    C315907  13.307   0.666   4.808  0.0046  0.3545  0.1226
 1058loPI   PO415908  13.563   0.567   5.409  0.0689  0.0307  0.1626
 1058loPI   GL115909  13.394   0.576   5.766  0.1655 -0.1549 -0.0374
 1058loPI   GL215910  13.730   0.609   5.962 -0.3262 -0.0130 -0.1026
 1058loPI   C1A15911  13.258   0.620   6.190  0.0409  0.0167 -0.1682
 1058loPI   C2A15912  13.207   0.571   6.596 -0.1210  0.2478 -0.0019
 1058loPI   C3A15913  13.315   0.582   6.961 -0.1390 -0.0501 -0.0623
 1058loPI   C4A15914  13.465   0.581   7.443 -0.2099  0.0162  0.0925
 1058loPI   C5A15915  13.756   0.644   7.821 -0.0484 -0.3968  0.2334
 1058loPI   C6A15916  14.037   0.929   7.876  0.0310  0.2602  0.0604
 1058loPI   C1B15917  14.036   0.890   6.063  0.1605 -0.1408 -0.2235
 1058loPI   C2B15918  14.240   1.059   6.432  0.1830  0.2100  0.1465
 1058loPI   C3B15919  14.224   1.321   6.807 -0.2441  0.3029  0.2263
 1058loPI   C4B15920  14.076   1.578   7.061 -0.5000 -0.0058 -0.1988
 1059loPI    C115921  16.460   7.454   5.242 -0.0543 -0.0965 -0.0284
 1059loPI    C215922  16.213   7.558   4.945  0.1129 -0.0610 -0.1560
 1059loPI    C315923  16.403   7.207   4.933 -0.0160 -0.1369 -0.0031
 1059loPI   PO415924  16.399   7.624   5.385 -0.3808  0.3189  0.1831
 1059loPI   GL115925  16.312   7.425   5.785 -0.1605  0.0610  0.3563
 1059loPI   GL215926  15.939   7.329   5.755  0.1643 -0.3255 -0.1769
 1059loPI   C1A15927  16.256   7.423   6.236  0.1219 -0.0763  0.1469
 1059loPI   C2A15928  16.494   7.438   6.603 -0.0446 -0.0434  0.1786
 1059loPI   C3A15929  16.800   7.393   6.897  0.3372 -0.0168 -0.0552
 1059loPI   C4A15930  16.803   7.495   7.374 -0.0116  0.0991  0.2299
 1059loPI   C5A15931  16.453   7.255   7.589 -0.0449  0.0645  0.1506
 1059loPI   C6A15932  16.113   7.089   7.776  0.2972 -0.3020 -0.1419
 1059loPI   C1B15933  15.771   7.193   6.163  0.3263 -0.0848  0.2633
 1059loPI   C2B15934  15.530   7.035   6.571  0.0367 -0.1916 -0.1534
 1059loPI   C3B15935  15.750   7.165   7.070  0.1632 -0.2383  0.1387
 1059loPI   C4B15936  15.996   7.439   7.309 -0.0550  0.0781  0.3568
 1060loPI    C115937  11.112   9.352   5.053 -0.0399 -0.0516 -0.0460
 1060loPI    C215938  10.933   9.223   4.719 -0.1311 -0.1479  0.0396
 1060loPI    C315939  11.291   9.077   4.823 -0.0540 -0.0400 -0.0708
 1060loPI   PO415940  11.145   9.578   5.050 -0.0166 -0.1706  0.0361
 1060loPI   GL115941  11.320   9.605   5.402  0.2407 -0.1514 -0.1936
 1060loPI   GL215942  11.610   9.685   5.476 -0.0241  0.4485 -0.0327
 1060loPI   C1A15943  11.237   9.707   5.765  0.2728  0.0822 -0.1485
 1060loPI   C2A15944  11.156  10.145   6.003  0.1505 -0.2606  0.0672
 1060loPI   C3A15945  10.969  10.220   6.402 -0.2987 -0.1046 -0.4352
 1060loPI   C4A15946  10.962   9.939   6.774 -0.0716 -0.0663  0.2535
 1060loPI   C5A15947  10.659   9.585   6.720 -0.2819  0.2000 -0.0376
 1060loPI   C6A15948  10.520   9.316   6.961  0.1192 -0.1367  0.1356
 1060loPI   C1B15949  11.757   9.692   5.987 -0.1233  0.1724  0.2278
 1060loPI   C2B15950  11.686   9.402   6.353  0.1469  0.0382  0.0099
 1060loPI   C3B15951  11.736   9.178   6.706 -0.0684  0.2617 -0.0530
 1060loPI   C4B15952  11.961   8.930   7.015 -0.2914  0.0262  0.2889
 1061loPI    C115953   4.353   5.175   4.776  0.1017 -0.3199 -0.0381
 1061loPI    C215954   4.089   5.462   4.869  0.2481 -0.1880 -0.0259
 1061loPI    C315955   3.969   5.082   4.839  0.0006 -0.0920 -0.2969
 1061loPI   PO415956   4.531   5.262   5.075  0.0012  0.0298 -0.3232
 1061loPI   GL115957   4.957   5.179   5.403  0.1623 -0.1181 -0.0097
 1061loPI   GL215958   4.765   4.935   5.394  0.1877 -0.0883  0.0887
 1061loPI   C1A15959   4.875   5.112   5.904 -0.3335  0.2188 -0.0953
 1061loPI   C2A15960   5.036   5.142   6.285 -0.0545 -0.0282  0.3903
 1061loPI   C3A15961   5.073   5.193   6.663 -0.0044 -0.0421  0.1104
 1061loPI   C4A15962   4.823   5.231   6.939  0.3340  0.0121  0.0782
 1061loPI   C5A15963   4.438   4.887   7.029  0.2221  0.0574 -0.0977
 1061loPI   C6A15964   4.026   4.854   6.745 -0.0648  0.1438 -0.0625
 1061loPI   C1B15965   4.460   4.942   5.713  0.0581 -0.0779 -0.1415
 1061loPI   C2B15966   4.221   5.121   6.206  0.0804 -0.3221 -0.1399
 1061loPI   C3B15967   3.818   5.053   6.340  0.0846  0.1243  0.1783
 1061loPI   C4B15968   3.492   4.819   6.738  0.1025  0.1701 -0.0203
 1062loPI    C115969  15.029   0.417   4.979 -0.0637  0.0222  0.1467
 1062loPI    C215970  15.159   0.064   4.841  0.0266  0.2101 -0.2650
 1062loPI    C315971  14.778   0.174   4.783 -0.0696  0.0760  0.0872
 1062loPI   PO415972  15.145   0.423   5.237  0.1862  0.0906 -0.2163
 1062loPI   GL115973  15.209   0.411   5.649 -0.1768  0.0726 -0.1243
 1062loPI   GL215974  14.977   0.722   5.766 -0.1031  0.0333  0.0162
 1062loPI   C1A15975  15.232   0.269   6.034 -0.1316 -0.0068 -0.3887
 1062loPI   C2A15976  15.140   0.249   6.400 -0.0465  0.1172 -0.0641
 1062loPI   C3A15977  15.184   0.278   6.835  0.1281 -0.2585  0.1976
 1062loPI   C4A15978  15.169   0.321   7.255 -0.0175 -0.1757 -0.1815
 1062loPI   C5A15979  14.971   0.536   7.638  0.0983 -0.1264 -0.0857
 1062loPI   C6A15980  15.168   0.787   7.919 -0.0453  0.1905 -0.1015
 1062loPI   C1B15981  14.972   0.672   6.198 -0.0677  0.2142 -0.1393
 1062loPI   C2B15982  14.805   0.752   6.579  0.0817 -0.1524 -0.3528
 1062loPI   C3B15983  15.109   0.846   6.851 -0.0044 -0.0538 -0.2078
 1062loPI   C4B15984  15.048   1.045   7.250 -0.2940  0.0890 -0.3598
 1063loPI    C115985   2.633  11.195   5.339  0.1905  0.0332 -0.2105
 1063loPI    C215986   2.499  11.326   4.986  0.0034 -0.1327 -0.2024
 1063loPI    C315987   2.517  10.934   5.060  0.2225 -0.1042 -0.0962
 1063loPI   PO415988   2.813  11.419   5.395  0.0124  0.1332  0.2332
 1063loPI   GL115989   2.829  11.657   5.736 -0.1667  0.1832  0.1736
 1063loPI   GL215990   3.141  11.549   5.681  0.2016 -0.1782 -0.1653
 1063loPI   C1A15991   2.898  11.518   6.159  0.1006  0.0850 -0.0178
 1063loPI   C2A15992   2.987  11.446   6.548 -0.2032  0.0525  0.2126
 1063loPI   C3A15993   2.959  11.556   6.980  0.0629 -0.0259  0.4767
 1063loPI   C4A15994   2.807  11.745   7.347 -0.2089 -0.1602  0.2739
 1063loPI   C5A15995   2.980  12.046   7.665 -0.1402 -0.3285 -0.0363
 1063loPI   C6A15996   3.399  11.945   7.887 -0.0868  0.4195  0.1627
 1063loPI   C1B15997   3.391  11.660   6.069 -0.0364 -0.0729 -0.1556
 1063loPI   C2B15998   3.359  11.721   6.457 -0.0049  0.3844  0.2132
 1063loPI   C3B15999   3.515  11.518   6.768  0.0032  0.2323 -0.0970
 1063loPI   C4B16000   3.812  11.595   7.089 -0.0044 -0.2805 -0.0173
 1064loPI    C116001   3.639   1.741   5.048  0.0732 -0.0891 -0.1108
 1064loPI    C216002   3.850   1.433   4.904  0.0303 -0.0997 -0.1512
 1064loPI    C316003   3.458   1.394   4.970  0.0835 -0.1542  0.1459
 1064loPI   PO416004   3.731   1.764   5.440 -0.1055 -0.0374 -0.0293
 1064loPI   GL116005   3.815   2.060   5.756  0.2160  0.1137  0.1254
 1064loPI   GL216006   3.771   1.766   5.962 -0.2762 -0.2201 -0.0536
 1064loPI   C1A16007   3.718   2.229   6.167  0.1455 -0.0082  0.5210
 1064loPI   C2A16008   3.780   2.255   6.683  0.5137  0.1016  0.2218
 1064loPI   C3A16009   3.703   2.351   7.035  0.1950  0.2097 -0.0341
 1064loPI   C4A16010   3.576   2.466   7.567  0.1640 -0.3847  0.0029
 1064loPI   C5A16011   3.809   2.565   7.937  0.0381  0.3563  0.1286
 1064loPI   C6A16012   4.230   2.339   8.037  0.0611  0.1403  0.1376
 1064loPI   C1B16013   3.851   1.688   6.391  0.3926 -0.0179 -0.1142
 1064loPI   C2B16014   3.763   1.778   6.795 -0.0897 -0.0956  0.0235
 1064loPI   C3B16015   3.810   1.879   7.195  0.1052 -0.3906  0.1546
 1064loPI   C4B16016   3.998   2.128   7.514 -0.1039 -0.0379 -0.0003
 1065loPI    C116017   3.180   0.496   5.447  0.1695  0.0412 -0.0201
 1065loPI    C216018   3.130   0.138   5.275  0.1665  0.0613 -0.0612
 1065loPI    C316019   3.293   0.438   5.067 -0.1160  0.1722 -0.1280
 1065loPI   PO416020   3.050   0.428   5.692 -0.0522 -0.1110  0.2098
 1065loPI   GL116021   3.120   0.590   6.109 -0.1609 -0.0160 -0.2591
 1065loPI   GL216022   2.830   0.700   6.123 -0.3695 -0.1122  0.2437
 1065loPI   C1A16023   3.218   0.511   6.507 -0.1543  0.0672 -0.1675
 1065loPI   C2A16024   3.108   0.387   6.873  0.1698 -0.0153 -0.0963
 1065loPI   C3A16025   3.209   0.197   7.293  0.0341 -0.1379 -0.1241
 1065loPI   C4A16026   2.844   0.120   7.672 -0.1934 -0.3519 -0.0437
 1065loPI   C5A16027   2.890  -0.238   8.033  0.1725  0.0531  0.2470
 1065loPI   C6A16028   3.140  -0.620   7.819 -0.1365 -0.2267  0.1317
 1065loPI   C1B16029   2.782   0.646   6.578  0.3723 -0.1681  0.1615
 1065loPI   C2B16030   2.696   0.585   7.026 -0.2965 -0.0485 -0.1824
 1065loPI   C3B16031   2.617   0.480   7.472 -0.2155 -0.3734 -0.2706
 1065loPI   C4B16032   2.658   0.588   7.924  0.1597 -0.1293  0.2811
 1066loPI    C116033   1.228  15.825   5.429  0.0870  0.0325 -0.2410
 1066loPI    C216034   1.056  16.181   5.488 -0.0285 -0.0762  0.1013
 1066loPI    C316035   1.273  16.116   5.159 -0.0655  0.2860  0.0011
 1066loPI   PO416036   1.237  15.706   5.646  0.2503  0.0231  0.1979
 1066loPI   GL116037   1.085  15.601   6.044  0.0155  0.0045 -0.0236
 1066loPI   GL216038   1.218  15.874   6.211 -0.3702 -0.3442 -0.2329
 1066loPI   C1A16039   1.195  15.366   6.415 -0.0695 -0.0987  0.2445
 1066loPI   C2A16040   0.933  14.999   6.551 -0.0065  0.0688 -0.0367
 1066loPI   C3A16041   0.948  14.953   7.025  0.1333 -0.2247 -0.0796
 1066loPI   C4A16042   1.042  14.840   7.488  0.2046  0.0916 -0.3531
 1066loPI   C5A16043   1.109  14.876   7.886  0.1678  0.0594  0.0005
 1066loPI   C6A16044   1.261  14.930   8.246 -0.0388 -0.0717 -0.1905
 1066loPI   C1B16045   1.281  15.901   6.633  0.2568  0.2398  0.2445
 1066loPI   C2B16046   1.305  16.047   7.067  0.0871  0.0010 -0.0926
 1066loPI   C3B16047   1.255  16.271   7.464  0.0859  0.2650 -0.0732
 1066loPI   C4B16048   1.518  16.696   7.663  0.1284 -0.0658 -0.2867
 1067loPI    C116049   1.903   6.428   4.649 -0.0490  0.0181  0.0469
 1067loPI    C216050   2.276   6.371   4.516 -0.0196  0.0968  0.0951
 1067loPI    C316051   2.047   6.057   4.610 -0.0594  0.0372 -0.1906
 1067loPI   PO416052   1.912   6.555   4.965 -0.1749 -0.0503  0.0730
 1067loPI   GL116053   2.075   6.667   5.283  0.0598  0.3474  0.0256
 1067loPI   GL216054   2.200   6.932   5.170 -0.3045  0.1342 -0.3425
 1067loPI   C1A16055   2.090   6.716   5.739  0.1031  0.1473 -0.1260
 1067loPI   C2A16056   2.335   6.828   6.077 -0.1297 -0.1677  0.2182
 1067loPI   C3A16057   2.435   6.842   6.454  0.0137 -0.1289  0.0901
 1067loPI   C4A16058   2.536   6.795   6.912  0.1691  0.0516 -0.1551
 1067loPI   C5A16059   2.942   6.858   7.144  0.1463 -0.0737  0.0397
 1067loPI   C6A16060   3.391   6.858   7.255 -0.1304  0.1931  0.0818
 1067loPI   C1B16061   1.973   7.186   5.545  0.3654 -0.2541 -0.2920
 1067loPI   C2B16062   1.968   7.086   6.044  0.0694 -0.1033 -0.0824
 1067loPI   C3B16063   2.023   7.231   6.407  0.1613  0.1041 -0.2330
 1067loPI   C4B16064   2.086   7.163   6.801  0.1300 -0.0929 -0.0511
 1068loPI    C116065  11.189  17.922   5.004 -0.0875  0.0552  0.1339
 1068loPI    C216066  11.279  17.534   4.971 -0.0478  0.0809 -0.0715
 1068loPI    C316067  10.976  17.688   4.759 -0.2117  0.1148  0.1838
 1068loPI   PO416068  11.186  17.979   5.365  0.4069 -0.0768  0.0812
 1068loPI   GL116069  11.160  17.752   5.689  0.1886  0.0885  0.0203
 1068loPI   GL216070  11.232  18.023   5.948  0.1458  0.2670  0.0755
 1068loPI   C1A16071  11.099  17.618   6.150 -0.0017 -0.3363  0.0149
 1068loPI   C2A16072  10.919  17.252   6.273  0.1066 -0.0960 -0.0190
 1068loPI   C3A16073  10.710  17.021   6.697  0.1178  0.4272  0.3678
 1068loPI   C4A16074  10.361  16.907   6.924 -0.0703  0.1085 -0.2129
 1068loPI   C5A16075  10.384  17.333   7.317  0.2054  0.0504  0.0210
 1068loPI   C6A16076  10.331  17.556   7.760 -0.0906 -0.0904  0.0068
 1068loPI   C1B16077  10.996  18.128   6.341 -0.0556  0.1303 -0.0056
 1068loPI   C2B16078  10.705  18.296   6.614 -0.3061  0.3471 -0.2110
 1068loPI   C3B16079  10.665  18.358   7.054 -0.0127  0.0954 -0.1629
 1068loPI   C4B16080  10.641  18.264   7.457  0.2285  0.0628  0.0103
 1069loPI    C116081  11.915  16.607   5.307  0.0430 -0.0239 -0.4240
 1069loPI    C216082  11.568  16.541   5.119 -0.1332 -0.0656 -0.0927
 1069loPI    C316083  11.717  16.265   5.367 -0.0137  0.0771 -0.0039
 1069loPI   PO416084  11.890  16.859   5.421  0.2903 -0.0251  0.0353
 1069loPI   GL116085  11.784  16.989   5.851  0.0633  0.0164 -0.1097
 1069loPI   GL216086  11.527  16.926   6.095 -0.1850 -0.0470  0.1141
 1069loPI   C1A16087  12.108  17.119   6.014 -0.0287 -0.2585  0.0037
 1069loPI   C2A16088  12.331  16.984   6.451  0.0369 -0.0577 -0.1824
 1069loPI   C3A16089  12.491  16.892   6.840  0.2743 -0.1517  0.0900
 1069loPI   C4A16090  12.556  17.056   7.203 -0.1396  0.2168  0.0390
 1069loPI   C5A16091  12.437  16.940   7.578 -0.0233  0.1635  0.2823
 1069loPI   C6A16092  12.381  16.835   8.002  0.0031  0.1443 -0.1692
 1069loPI   C1B16093  11.846  16.803   6.426 -0.0028 -0.2634  0.0436
 1069loPI   C2B16094  11.989  16.681   6.804 -0.0949 -0.0993  0.0216
 1069loPI   C3B16095  11.978  16.739   7.177  0.0603  0.2406 -0.1040
 1069loPI   C4B16096  11.957  16.812   7.666  0.0046  0.1765 -0.0979
 1070loPI    C116097   6.703   9.087   5.114  0.1058  0.1824  0.0311
 1070loPI    C216098   6.897   8.786   4.935  0.0137  0.0715  0.1153
 1070loPI    C316099   6.985   9.165   4.842 -0.0829  0.0160 -0.2182
 1070loPI   PO416100   6.661   9.040   5.342 -0.1552  0.0433  0.2640
 1070loPI   GL116101   6.499   9.203   5.711  0.2293 -0.0473  0.4152
 1070loPI   GL216102   6.186   9.138   5.774  0.1001  0.1459  0.0004
 1070loPI   C1A16103   6.598   9.052   6.059  0.0939 -0.2721  0.3737
 1070loPI   C2A16104   6.476   8.906   6.434 -0.1139  0.1554  0.3399
 1070loPI   C3A16105   6.484   9.101   6.851  0.3290 -0.2024  0.2036
 1070loPI   C4A16106   6.181   8.937   7.156  0.3030 -0.0934  0.0234
 1070loPI   C5A16107   5.953   8.843   7.521 -0.2342  0.1407 -0.0666
 1070loPI   C6A16108   5.667   8.535   7.711  0.2165 -0.1802 -0.1278
 1070loPI   C1B16109   6.085   9.109   6.153  0.1200 -0.1774  0.0023
 1070loPI   C2B16110   5.941   8.881   6.633  0.1980 -0.0474  0.0307
 1070loPI   C3B16111   5.512   8.768   6.893  0.0466  0.1726 -0.1901
 1070loPI   C4B16112   5.457   8.871   7.400  0.0022 -0.1180 -0.2930
 1071loPI    C116113   3.510  17.319   5.303 -0.0902 -0.1716 -0.2326
 1071loPI    C216114   3.163  17.301   5.106 -0.0920 -0.1517 -0.2312
 1071loPI    C316115   3.479  17.479   4.938 -0.1203 -0.0494 -0.1767
 1071loPI   PO416116   3.495  17.404   5.525 -0.4005 -0.0099 -0.4947
 1071loPI   GL116117   3.254  17.390   5.941  0.0787  0.0448 -0.0933
 1071loPI   GL216118   3.363  17.716   5.970 -0.0783 -0.3257  0.1116
 1071loPI   C1A16119   3.522  17.402   6.362 -0.1351 -0.1351 -0.3267
 1071loPI   C2A16120   3.547  17.514   6.787 -0.2048  0.2836 -0.1750
 1071loPI   C3A16121   3.646  17.723   7.184  0.1749 -0.1354  0.1641
 1071loPI   C4A16122   3.657  17.932   7.572  0.0111 -0.0963 -0.1693
 1071loPI   C5A16123   3.640  18.129   7.960  0.0424 -0.0758 -0.1892
 1071loPI   C6A16124   3.777  18.377   8.187  0.1709  0.0656  0.2606
 1071loPI   C1B16125   3.685  17.865   6.251  0.1450  0.0502 -0.2164
 1071loPI   C2B16126   3.391  18.020   6.652 -0.1126 -0.0830 -0.3365
 1071loPI   C3B16127   3.327  18.127   7.078 -0.2283  0.0268  0.1855
 1071loPI   C4B16128   3.004  17.881   7.377  0.4277 -0.4382 -0.1249
 1072loPI    C116129  14.870   5.009   5.235 -0.0483  0.2231  0.1441
 1072loPI    C216130  15.006   5.161   5.579  0.1550  0.2066  0.0722
 1072loPI    C316131  15.192   5.247   5.235  0.0978  0.0297 -0.0043
 1072loPI   PO416132  14.830   4.705   5.291  0.0279 -0.3375 -0.0620
 1072loPI   GL116133  14.842   4.531   5.707 -0.2802 -0.0453  0.1097
 1072loPI   GL216134  14.888   4.851   5.972  0.0310  0.0652 -0.1612
 1072loPI   C1A16135  14.910   4.286   6.103  0.1174 -0.0307  0.3127
 1072loPI   C2A16136  14.973   4.315   6.555  0.0407 -0.0281 -0.1798
 1072loPI   C3A16137  14.918   4.175   6.869 -0.2395  0.1153 -0.0282
 1072loPI   C4A16138  15.159   4.081   7.228 -0.2534 -0.1027 -0.0124
 1072loPI   C5A16139  15.549   4.113   7.486  0.0237  0.1098 -0.2238
 1072loPI   C6A16140  15.868   4.078   7.837 -0.1838  0.1573 -0.4153
 1072loPI   C1B16141  14.968   5.072   6.442 -0.0441  0.1156  0.2402
 1072loPI   C2B16142  14.971   5.362   6.829 -0.0460  0.1511 -0.0445
 1072loPI   C3B16143  15.187   5.612   7.163  0.1309  0.1084 -0.0192
 1072loPI   C4B16144  15.270   5.582   7.565 -0.1468  0.0433 -0.0464
 1073loPI    C116145   4.914   2.832   5.116 -0.2770  0.0925 -0.0426
 1073loPI    C216146   4.960   2.823   4.719 -0.1590  0.1204 -0.0300
 1073loPI    C316147   5.250   2.683   4.957 -0.3416 -0.1463  0.0406
 1073loPI   PO416148   4.889   3.119   5.126  0.1820  0.2983 -0.3375
 1073loPI   GL116149   4.748   3.453   5.443 -0.0192 -0.1038 -0.0948
 1073loPI   GL216150   5.110   3.394   5.625 -0.3119  0.1757 -0.2370
 1073loPI   C1A16151   4.664   3.356   5.847  0.0908  0.0706 -0.1399
 1073loPI   C2A16152   4.728   3.286   6.274  0.0445 -0.2254  0.0682
 1073loPI   C3A16153   4.878   3.480   6.689 -0.1882  0.2421 -0.0773
 1073loPI   C4A16154   5.250   3.418   6.911  0.1466 -0.3470  0.1140
 1073loPI   C5A16155   5.528   3.342   7.244  0.0343 -0.2427 -0.1160
 1073loPI   C6A16156   5.515   3.579   7.671  0.4318 -0.0441 -0.1619
 1073loPI   C1B16157   5.144   3.527   6.030  0.0836  0.0357  0.0324
 1073loPI   C2B16158   5.194   3.285   6.414  0.0081  0.0891 -0.1258
 1073loPI   C3B16159   5.237   2.949   6.810 -0.1101  0.0613 -0.0714
 1073loPI   C4B16160   5.100   2.635   7.131  0.0544 -0.0841 -0.1490
 1074loPI    C116161   3.429  13.747   5.238  0.0228 -0.1444 -0.0611
 1074loPI    C216162   3.549  14.102   5.375 -0.1180 -0.1107 -0.0229
 1074loPI    C316163   3.203  14.071   5.177 -0.0542 -0.2084 -0.1204
 1074loPI   PO416164   3.545  13.592   5.436 -0.1267 -0.0913 -0.0315
 1074loPI   GL116165   3.284  13.489   5.849 -0.1023 -0.0925 -0.3480
 1074loPI   GL216166   3.307  13.309   5.759 -0.3473  0.2534  0.1682
 1074loPI   C1A16167   3.436  13.553   6.215  0.1676 -0.0600 -0.3277
 1074loPI   C2A16168   3.511  13.801   6.635 -0.0715 -0.1600  0.1327
 1074loPI   C3A16169   3.544  13.809   7.110 -0.0491 -0.1090 -0.0017
 1074loPI   C4A16170   3.480  13.967   7.613  0.1552  0.1470 -0.0098
 1074loPI   C5A16171   3.625  14.236   7.859  0.0625  0.1635 -0.1068
 1074loPI   C6A16172   3.621  14.611   7.816 -0.2106  0.0286  0.2756
 1074loPI   C1B16173   3.201  13.078   6.145 -0.0512 -0.0956 -0.0346
 1074loPI   C2B16174   3.170  13.363   6.558 -0.3529 -0.0439 -0.2757
 1074loPI   C3B16175   3.123  13.561   6.961  0.1324  0.4097 -0.2226
 1074loPI   C4B16176   3.100  13.963   7.241  0.1386 -0.0876  0.2061
 1075loPI    C116177  17.266   2.170   4.785  0.1617  0.0998 -0.0118
 1075loPI    C216178  17.252   2.567   4.737  0.0669  0.0965 -0.0121
 1075loPI    C316179  16.974   2.335   4.567  0.0236  0.0441  0.1297
 1075loPI   PO416180  17.291   2.090   4.919 -0.1650  0.0415 -0.0733
 1075loPI   GL116181  17.307   2.040   5.325  0.1689  0.1538 -0.0272
 1075loPI   GL216182  17.633   2.006   5.363  0.0212  0.0396 -0.0260
 1075loPI   C1A16183  17.021   2.185   5.698 -0.1598  0.0157 -0.0989
 1075loPI   C2A16184  16.775   2.198   6.014  0.0402  0.1351  0.3023
 1075loPI   C3A16185  16.762   2.205   6.539 -0.2544  0.2198  0.1921
 1075loPI   C4A16186  16.899   2.397   6.893  0.0430  0.0584  0.3678
 1075loPI   C5A16187  17.144   2.614   7.320 -0.1567  0.0512  0.0084
 1075loPI   C6A16188  17.661   2.638   7.508 -0.1632  0.1408  0.2495
 1075loPI   C1B16189  17.660   2.109   5.740 -0.4404 -0.1454 -0.1043
 1075loPI   C2B16190  17.928   2.063   6.122  0.0761 -0.1104  0.0381
 1075loPI   C3B16191  18.210   1.799   6.459  0.0708 -0.2735 -0.2353
 1075loPI   C4B16192  18.116   1.802   6.841  0.0824 -0.1616  0.1731
 1076loPI    C116193  10.561   2.864   5.041 -0.0015  0.0721  0.0601
 1076loPI    C216194  10.309   2.756   4.749  0.1093 -0.0805  0.0197
 1076loPI    C316195  10.597   3.024   4.676  0.1376 -0.1194 -0.0120
 1076loPI   PO416196  10.500   2.940   5.254 -0.0921  0.0431  0.1579
 1076loPI   GL116197  10.558   2.960   5.757  0.0322 -0.0887  0.2483
 1076loPI   GL216198  10.604   2.678   5.830 -0.1191 -0.0295 -0.3357
 1076loPI   C1A16199  10.552   3.348   5.895  0.2227 -0.1180 -0.0504
 1076loPI   C2A16200  10.492   3.442   6.377 -0.1541 -0.0983 -0.1086
 1076loPI   C3A16201  10.500   3.416   6.824  0.0280 -0.4072  0.4098
 1076loPI   C4A16202  10.480   3.351   7.198 -0.0027 -0.2563 -0.2373
 1076loPI   C5A16203  10.548   3.201   7.617  0.0782  0.0261  0.1096
 1076loPI   C6A16204  10.547   3.140   8.034  0.1226  0.2679 -0.2879
 1076loPI   C1B16205  10.670   2.686   6.270 -0.2018  0.0383 -0.0421
 1076loPI   C2B16206  10.367   2.559   6.539  0.0937 -0.1946 -0.1703
 1076loPI   C3B16207  10.365   2.395   6.934  0.0036 -0.2237  0.0151
 1076loPI   C4B16208  10.434   2.067   7.185  0.2526  0.0562  0.3584
 1077loPI    C116209   0.344   3.949   4.909 -0.0863 -0.0100  0.0161
 1077loPI    C216210  -0.029   3.879   4.782 -0.1312  0.0770  0.0985
 1077loPI    C316211   0.159   4.215   4.674 -0.0545  0.0062  0.0094
 1077loPI   PO416212   0.345   3.884   5.125 -0.0046  0.3693 -0.1513
 1077loPI   GL116213   0.128   3.928   5.472 -0.0330  0.2138  0.1187
 1077loPI   GL216214  -0.122   3.785   5.637 -0.0449 -0.0330  0.2953
 1077loPI   C1A16215   0.362   3.964   5.901 -0.2269  0.1056 -0.2576
 1077loPI   C2A16216   0.276   3.987   6.304 -0.1928 -0.0547  0.1830
 1077loPI   C3A16217   0.145   4.095   6.756 -0.2011  0.1552  0.1152
 1077loPI   C4A16218  -0.002   4.188   7.148  0.1930  0.0560 -0.1978
 1077loPI   C5A16219  -0.304   4.145   7.446  0.2102 -0.4609 -0.1112
 1077loPI   C6A16220  -0.657   3.827   7.574 -0.1054 -0.2213 -0.1507
 1077loPI   C1B16221  -0.193   3.727   5.960  0.1091  0.2583  0.0731
 1077loPI   C2B16222  -0.114   3.596   6.443 -0.1145  0.2852  0.1125
 1077loPI   C3B16223  -0.163   3.726   6.843  0.0304 -0.0153 -0.0886
 1077loPI   C4B16224  -0.338   3.587   7.238 -0.1388 -0.1176  0.0642
 1078loPI    C116225   2.667   2.619   5.131 -0.1261  0.0119 -0.1922
 1078loPI    C216226   3.026   2.709   4.980 -0.0826  0.1730  0.0032
 1078loPI    C316227   2.830   2.386   4.850  0.1212  0.0979 -0.1227
 1078loPI   PO416228   2.705   2.652   5.393 -0.1009 -0.0083  0.1343
 1078loPI   GL116229   2.440   2.589   5.810  0.0685 -0.3109  0.4982
 1078loPI   GL216230   2.688   2.402   5.869  0.0218  0.1055  0.0858
 1078loPI   C1A16231   2.261   2.737   6.235 -0.2968 -0.2779 -0.2090
 1078loPI   C2A16232   2.256   2.931   6.646 -0.1005  0.0514  0.0281
 1078loPI   C3A16233   2.343   2.831   7.043 -0.0251 -0.1491  0.0002
 1078loPI   C4A16234   2.354   2.889   7.357  0.4008 -0.0902 -0.0171
 1078loPI   C5A16235   2.492   3.075   7.748 -0.2522 -0.0093  0.0911
 1078loPI   C6A16236   2.447   3.045   8.268  0.1817 -0.1129 -0.2322
 1078loPI   C1B16237   2.789   2.189   6.198  0.0821 -0.3872  0.0576
 1078loPI   C2B16238   2.776   2.151   6.651 -0.0090  0.1528  0.3154
 1078loPI   C3B16239   2.449   2.005   6.933 -0.2106  0.1808 -0.0039
 1078loPI   C4B16240   2.340   1.873   7.346 -0.2045  0.3422  0.4634
 1079loPI    C116241  16.718  12.342   5.613  0.1211 -0.0006 -0.0538
 1079loPI    C216242  16.358  12.170   5.584  0.1335 -0.0320 -0.0205
 1079loPI    C316243  16.576  12.234   5.255 -0.0092  0.2173 -0.0690
 1079loPI   PO416244  16.755  12.263   5.871  0.0602 -0.3767  0.3152
 1079loPI   GL116245  16.942  12.358   6.167 -0.4007 -0.3169  0.1410
 1079loPI   GL216246  16.857  12.069   6.316  0.0564  0.0287 -0.2290
 1079loPI   C1A16247  16.797  12.669   6.490 -0.1303  0.0342  0.3116
 1079loPI   C2A16248  16.863  12.746   6.983  0.1481 -0.1211 -0.1188
 1079loPI   C3A16249  16.734  12.713   7.406 -0.2964 -0.1075  0.3000
 1079loPI   C4A16250  16.542  12.451   7.651 -0.2107  0.1920 -0.0570
 1079loPI   C5A16251  16.653  12.207   7.908 -0.2214  0.0396 -0.1292
 1079loPI   C6A16252  16.579  11.846   8.122 -0.2019 -0.0095  0.1170
 1079loPI   C1B16253  16.960  12.238   6.768 -0.0724  0.2137 -0.0561
 1079loPI   C2B16254  16.758  12.210   7.117 -0.3981 -0.0352 -0.2119
 1079loPI   C3B16255  16.741  11.996   7.444 -0.1725 -0.1596 -0.1109
 1079loPI   C4B16256  16.904  11.550   7.591  0.1013  0.0943  0.1728
 1080loPI    C116257  15.701   5.684   5.480  0.1081 -0.2140  0.1439
 1080loPI    C216258  15.500   6.009   5.600  0.1531 -0.2213  0.2398
 1080loPI    C316259  15.301   5.687   5.471  0.1106 -0.1168  0.0393
 1080loPI   PO416260  15.908   5.682   5.630 -0.0265  0.1894 -0.1706
 1080loPI   GL116261  15.963   5.862   5.984 -0.3207 -0.2754  0.0394
 1080loPI   GL216262  16.194   5.919   5.989 -0.1312 -0.0757  0.2782
 1080loPI   C1A16263  16.122   5.600   6.422  0.4910 -0.1551  0.3043
 1080loPI   C2A16264  16.162   5.488   6.899 -0.1561  0.2626  0.2132
 1080loPI   C3A16265  16.268   5.391   7.391  0.0382  0.1091  0.0751
 1080loPI   C4A16266  16.520   5.071   7.642  0.1674  0.2260  0.2112
 1080loPI   C5A16267  16.346   4.652   7.763  0.0448 -0.2072 -0.0900
 1080loPI   C6A16268  16.165   4.326   8.182 -0.0858 -0.1797 -0.0380
 1080loPI   C1B16269  16.457   5.938   6.294 -0.0749 -0.0429 -0.1724
 1080loPI   C2B16270  16.616   5.904   6.664 -0.1063 -0.2853 -0.1672
 1080loPI   C3B16271  16.584   5.708   7.122  0.0279 -0.1174  0.4225
 1080loPI   C4B16272  16.607   5.770   7.592  0.0914 -0.1134 -0.1277
 1081loPI    C116273  17.261   0.451   5.040  0.0638 -0.3384 -0.2485
 1081loPI    C216274  17.240   0.654   4.696 -0.0359  0.0563 -0.0154
 1081loPI    C316275  16.933   0.426   4.813 -0.0654  0.0464 -0.1110
 1081loPI   PO416276  17.394   0.623   5.178  0.0069 -0.1668  0.0744
 1081loPI   GL116277  17.462   0.801   5.506  0.4881 -0.0229 -0.0168
 1081loPI   GL216278  17.754   0.941   5.504  0.2090  0.2009  0.2797
 1081loPI   C1A16279  17.209   1.187   5.633 -0.4299  0.0720  0.0621
 1081loPI   C2A16280  17.209   1.319   6.027  0.0442 -0.1610  0.0802
 1081loPI   C3A16281  17.278   1.416   6.390  0.0669 -0.1471 -0.5104
 1081loPI   C4A16282  17.275   1.280   6.836  0.1830  0.0568  0.1120
 1081loPI   C5A16283  17.167   1.474   7.252 -0.0018 -0.3889 -0.0405
 1081loPI   C6A16284  16.862   1.769   7.430  0.1206 -0.0055 -0.3252
 1081loPI   C1B16285  17.767   1.229   5.864  0.2600 -0.1296  0.0070
 1081loPI   C2B16286  17.737   1.564   6.160 -0.0345  0.2857 -0.3309
 1081loPI   C3B16287  17.655   1.829   6.530 -0.0378 -0.1340  0.0463
 1081loPI   C4B16288  17.802   2.122   6.630  0.1205 -0.1801  0.1013
 1082loPI    C116289  11.879   3.298   4.731 -0.2006 -0.0212  0.2620
 1082loPI    C216290  11.490   3.253   4.812 -0.2031 -0.2146  0.1473
 1082loPI    C316291  11.612   3.295   4.433 -0.1011 -0.2789  0.1726
 1082loPI   PO416292  11.984   3.413   4.917 -0.0254 -0.0073 -0.2818
 1082loPI   GL116293  11.959   3.275   5.381 -0.4452 -0.2557  0.3575
 1082loPI   GL216294  11.733   3.320   5.631 -0.1641  0.0885  0.0365
 1082loPI   C1A16295  12.300   3.104   5.657 -0.0841  0.0166 -0.0668
 1082loPI   C2A16296  12.544   3.302   5.935  0.1451 -0.2008 -0.1326
 1082loPI   C3A16297  12.494   3.342   6.353  0.2273  0.0978  0.0240
 1082loPI   C4A16298  12.404   3.378   6.709 -0.1311 -0.1217 -0.2306
 1082loPI   C5A16299  12.422   3.457   7.188  0.0595  0.2406 -0.1653
 1082loPI   C6A16300  12.360   3.673   7.580 -0.0505 -0.0393 -0.0912
 1082loPI   C1B16301  11.811   2.968   5.910 -0.0347 -0.0152 -0.0488
 1082loPI   C2B16302  11.748   2.762   6.252 -0.0957  0.0081  0.0878
 1082loPI   C3B16303  11.830   2.679   6.617  0.3642  0.0976  0.0746
 1082loPI   C4B16304  11.673   2.805   6.998  0.1139  0.1208 -0.0098
 1083loPI    C116305   1.637   9.612   5.335 -0.0549 -0.0243  0.0891
 1083loPI    C216306   1.523   9.236   5.261  0.1733 -0.0787  0.0085
 1083loPI    C316307   1.784   9.418   5.018  0.1663  0.0854  0.1224
 1083loPI   PO416308   1.597   9.580   5.614 -0.0570 -0.2645 -0.1993
 1083loPI   GL116309   1.766   9.557   5.911  0.0441 -0.4042 -0.0243
 1083loPI   GL216310   2.123   9.618   5.941  0.0337 -0.3243 -0.0826
 1083loPI   C1A16311   1.875   9.556   6.375  0.1724  0.0829  0.2329
 1083loPI   C2A16312   1.896   9.422   6.897  0.0207 -0.1576  0.1149
 1083loPI   C3A16313   2.240   9.200   7.094  0.1562  0.1270  0.0719
 1083loPI   C4A16314   2.544   9.166   7.424 -0.0176  0.2252  0.6033
 1083loPI   C5A16315   2.678   8.765   7.624  0.0378  0.0184  0.0100
 1083loPI   C6A16316   3.008   8.303   7.741  0.3056 -0.0616  0.0939
 1083loPI   C1B16317   2.464   9.805   6.187  0.0887 -0.0983  0.0811
 1083loPI   C2B16318   2.671   9.926   6.502 -0.0502  0.0635  0.1897
 1083loPI   C3B16319   2.867  10.052   6.844 -0.1929 -0.0295 -0.0821
 1083loPI   C4B16320   3.232  10.178   7.052  0.0286 -0.1753 -0.2134
 1084loPI    C116321   0.564  16.256   5.235 -0.2373 -0.0619 -0.0305
 1084loPI    C216322   0.700  15.881   5.258  0.1349  0.0783  0.1322
 1084loPI    C316323   0.810  16.115   4.953  0.1131  0.1373  0.1695
 1084loPI   PO416324   0.460  16.335   5.504 -0.0347  0.1748  0.1188
 1084loPI   GL116325   0.604  16.364   5.807  0.1541  0.3169 -0.3794
 1084loPI   GL216326   0.836  16.350   6.005 -0.0736 -0.0324 -0.0576
 1084loPI   C1A16327   0.287  16.461   6.124  0.2464  0.5312 -0.2218
 1084loPI   C2A16328   0.212  16.745   6.396  0.0868 -0.0774  0.4847
 1084loPI   C3A16329   0.221  16.948   6.838  0.2092 -0.1687 -0.2047
 1084loPI   C4A16330   0.071  17.060   7.144 -0.1580  0.0221 -0.0565
 1084loPI   C5A16331  -0.052  17.291   7.422 -0.0328 -0.0389  0.0778
 1084loPI   C6A16332  -0.370  17.573   7.357  0.2096  0.0673 -0.0078
 1084loPI   C1B16333   0.740  16.083   6.313 -0.0915 -0.0073  0.2766
 1084loPI   C2B16334   0.747  15.964   6.700  0.0688 -0.1160  0.2897
 1084loPI   C3B16335   0.773  15.916   7.111 -0.1482  0.0265  0.3905
 1084loPI   C4B16336   1.199  15.747   7.427 -0.0098 -0.2598 -0.0299
 1085loPI    C116337   5.313  14.810   5.408 -0.1998 -0.1023  0.1498
 1085loPI    C216338   5.119  15.036   5.141 -0.0422 -0.0417  0.0849
 1085loPI    C316339   5.085  14.637   5.128 -0.0595 -0.0376 -0.0068
 1085loPI   PO416340   5.589  14.944   5.424 -0.1010  0.0793  0.3218
 1085loPI   GL116341   5.595  15.026   5.831  0.1836 -0.0970 -0.2282
 1085loPI   GL216342   5.303  14.875   5.909 -0.1032  0.2078  0.1032
 1085loPI   C1A16343   5.505  15.086   6.310 -0.1300 -0.1471 -0.1545
 1085loPI   C2A16344   5.195  14.918   6.683  0.0586 -0.3413  0.0100
 1085loPI   C3A16345   4.871  14.928   6.973  0.0974  0.2922  0.0448
 1085loPI   C4A16346   4.509  14.951   7.222  0.2643 -0.1037  0.1676
 1085loPI   C5A16347   4.096  14.876   7.590  0.0636 -0.1401 -0.0494
 1085loPI   C6A16348   3.989  14.925   8.003 -0.1740  0.0395  0.2731
 1085loPI   C1B16349   5.209  14.483   6.197  0.1204 -0.1361  0.0668
 1085loPI   C2B16350   5.223  14.416   6.644 -0.0142  0.0176  0.0474
 1085loPI   C3B16351   5.322  14.668   7.054 -0.1645 -0.1943 -0.2344
 1085loPI   C4B16352   5.550  14.876   7.441  0.3331  0.2467 -0.0454
 1086loPI    C116353   2.683  17.472   5.042 -0.1561 -0.0762 -0.0279
 1086loPI    C216354   2.554  17.613   4.691 -0.0022 -0.0694 -0.0823
 1086loPI    C316355   2.802  17.299   4.702  0.1366  0.0417  0.0113
 1086loPI   PO416356   2.722  17.691   5.227  0.1739  0.1556 -0.1759
 1086loPI   GL116357   2.548  17.767   5.652 -0.0195 -0.1550 -0.0087
 1086loPI   GL216358   2.493  17.990   5.878  0.0300 -0.2705 -0.1514
 1086loPI   C1A16359   2.851  17.654   5.971 -0.2310 -0.0344  0.1126
 1086loPI   C2A16360   3.021  17.611   6.425 -0.1804  0.0317 -0.1235
 1086loPI   C3A16361   3.108  17.652   6.907  0.0235  0.0079 -0.0760
 1086loPI   C4A16362   2.861  17.269   7.180 -0.3818 -0.1567 -0.1752
 1086loPI   C5A16363   2.684  17.284   7.529 -0.0568  0.0951  0.0941
 1086loPI   C6A16364   2.554  17.713   7.640 -0.0483 -0.0606 -0.1416
 1086loPI   C1B16365   2.476  17.805   6.298 -0.0282 -0.1528 -0.1794
 1086loPI   C2B16366   2.555  17.619   6.733  0.3223 -0.0275 -0.0513
 1086loPI   C3B16367   2.452  17.566   7.187 -0.4503 -0.2068  0.1207
 1086loPI   C4B16368   2.203  17.354   7.507  0.2010  0.0787 -0.1920
 1087loPI    C116369  12.306  10.642   4.799  0.1695 -0.0341  0.1825
 1087loPI    C216370  11.930  10.758   4.871  0.2350  0.2113  0.1401
 1087loPI    C316371  12.010  10.519   4.560  0.0864 -0.0261  0.2808
 1087loPI   PO416372  12.379  10.657   5.020  0.1731  0.3459  0.3036
 1087loPI   GL116373  12.429  10.681   5.454  0.3018  0.2080 -0.0849
 1087loPI   GL216374  12.569  10.370   5.381  0.0952 -0.0400  0.0543
 1087loPI   C1A16375  12.538  10.530   5.926  0.0250  0.1802 -0.1975
 1087loPI   C2A16376  12.523  10.467   6.444  0.0026 -0.0655  0.3699
 1087loPI   C3A16377  12.229  10.666   6.651  0.2133  0.0234 -0.0841
 1087loPI   C4A16378  11.985  10.799   7.001  0.2407 -0.1259  0.2284
 1087loPI   C5A16379  11.894  10.740   7.376  0.2400  0.1068  0.0822
 1087loPI   C6A16380  11.556  10.666   7.582  0.0181 -0.0661  0.0314
 1087loPI   C1B16381  12.504  10.045   5.716  0.0614  0.1206  0.0892
 1087loPI   C2B16382  12.613   9.932   6.139 -0.0350  0.2185  0.3333
 1087loPI   C3B16383  12.515  10.037   6.624 -0.3245 -0.0898 -0.2103
 1087loPI   C4B16384  12.375  10.241   6.962  0.1719 -0.2030 -0.0812
 1088loPI    C116385   1.481  10.584   5.337 -0.1780  0.1140  0.2455
 1088loPI    C216386   1.124  10.417   5.405 -0.1193 -0.1130  0.0142
 1088loPI    C316387   1.235  10.506   5.031  0.1387 -0.2115  0.0657
 1088loPI   PO416388   1.675  10.570   5.569  0.2423  0.3693 -0.1067
 1088loPI   GL116389   2.026  10.605   5.772  0.0020  0.1061  0.0937
 1088loPI   GL216390   1.999  11.010   5.862  0.1421  0.3241  0.2169
 1088loPI   C1A16391   2.358  10.726   6.129  0.2027 -0.3167  0.1660
 1088loPI   C2A16392   2.138  10.916   6.396  0.2858  0.1155 -0.0404
 1088loPI   C3A16393   2.140  11.037   6.814  0.2362  0.1065 -0.0635
 1088loPI   C4A16394   2.136  10.658   7.155  0.0768  0.1231  0.1948
 1088loPI   C5A16395   2.291  10.301   7.454 -0.3062 -0.1522  0.3894
 1088loPI   C6A16396   2.351  10.098   7.914  0.1062  0.0015  0.5008
 1088loPI   C1B16397   1.902  11.322   6.210  0.2733  0.1761 -0.0715
 1088loPI   C2B16398   1.837  11.477   6.586  0.0584 -0.1750 -0.0766
 1088loPI   C3B16399   1.973  11.442   7.026  0.2657  0.1561 -0.3391
 1088loPI   C4B16400   2.116  11.105   7.359 -0.1333 -0.3459  0.0533
 1089loPI    C116401   2.179   7.872   5.177  0.0099 -0.0618 -0.0247
 1089loPI    C216402   1.983   7.828   5.522 -0.1288  0.2038 -0.0663
 1089loPI    C316403   1.941   7.556   5.232 -0.0551  0.0084  0.1036
 1089loPI   PO416404   2.460   7.902   5.277 -0.1374 -0.0039 -0.1426
 1089loPI   GL116405   2.577   7.682   5.632 -0.1254  0.0894 -0.0801
 1089loPI   GL216406   2.389   7.430   5.512 -0.1715 -0.3145 -0.2669
 1089loPI   C1A16407   2.467   7.845   6.040  0.3606 -0.0253  0.3750
 1089loPI   C2A16408   2.578   7.771   6.461  0.0506  0.0297  0.0629
 1089loPI   C3A16409   2.283   7.616   6.655 -0.0514 -0.0320  0.2187
 1089loPI   C4A16410   2.163   7.807   7.156  0.0223 -0.2662  0.0858
 1089loPI   C5A16411   2.051   7.880   7.520  0.0902  0.4076 -0.0065
 1089loPI   C6A16412   1.962   8.250   7.633 -0.3242  0.1535  0.1542
 1089loPI   C1B16413   2.439   7.050   5.588  0.1418 -0.0277 -0.0409
 1089loPI   C2B16414   2.660   6.687   5.627  0.0691 -0.0971 -0.1209
 1089loPI   C3B16415   2.751   6.544   6.002 -0.1044 -0.1107  0.4462
 1089loPI   C4B16416   2.766   6.511   6.503 -0.0671 -0.1808 -0.0202
 1090loPI    C116417   7.857   0.488   5.336 -0.0342 -0.2266 -0.1863
 1090loPI    C216418   7.752   0.158   5.537 -0.1617 -0.0942 -0.0320
 1090loPI    C316419   7.579   0.242   5.186 -0.2030 -0.1380 -0.0222
 1090loPI   PO416420   7.865   0.686   5.536 -0.1472  0.1112 -0.3543
 1090loPI   GL116421   7.674   0.601   5.918  0.0474  0.3408  0.0589
 1090loPI   GL216422   7.616   0.891   5.959 -0.1485 -0.4554  0.2860
 1090loPI   C1A16423   7.795   0.542   6.358  0.0012 -0.3964  0.2153
 1090loPI   C2A16424   7.741   0.726   6.748 -0.1837 -0.3453 -0.0678
 1090loPI   C3A16425   7.697   0.841   7.185  0.0489  0.2306  0.0369
 1090loPI   C4A16426   7.641   0.834   7.692  0.3339  0.2824  0.0550
 1090loPI   C5A16427   7.570   0.672   8.067 -0.0279  0.1675  0.1305
 1090loPI   C6A16428   7.263   0.443   8.269 -0.1052 -0.0133  0.2528
 1090loPI   C1B16429   7.778   1.059   6.289 -0.5167  0.2147  0.0922
 1090loPI   C2B16430   7.867   1.185   6.774 -0.2874 -0.3083 -0.1895
 1090loPI   C3B16431   8.138   1.019   7.065 -0.1173  0.0713 -0.2381
 1090loPI   C4B16432   8.102   0.919   7.586  0.0539 -0.2783  0.1616
 1091loPI    C116433   5.563   7.629   4.724 -0.0513 -0.0308  0.0867
 1091loPI    C216434   5.892   7.853   4.686 -0.2384  0.2777  0.2454
 1091loPI    C316435   5.539   8.027   4.757 -0.4156 -0.0592  0.2096
 1091loPI   PO416436   5.613   7.498   4.941  0.0974 -0.0904  0.2414
 1091loPI   GL116437   5.840   7.575   5.315  0.0459  0.2204 -0.1478
 1091loPI   GL216438   6.039   7.749   5.337 -0.1629 -0.1319  0.0199
 1091loPI   C1A16439   5.564   7.672   5.661  0.2484  0.0485  0.1783
 1091loPI   C2A16440   5.398   7.588   6.048 -0.0257  0.0890  0.0728
 1091loPI   C3A16441   4.973   7.468   6.246  0.1990  0.0436 -0.0010
 1091loPI   C4A16442   4.857   7.517   6.643  0.2313  0.0581  0.3476
 1091loPI   C5A16443   4.756   7.485   7.128 -0.2112 -0.1988 -0.1085
 1091loPI   C6A16444   4.501   7.847   7.442  0.2570 -0.1106  0.1437
 1091loPI   C1B16445   6.009   7.692   5.836  0.2603 -0.2227 -0.2455
 1091loPI   C2B16446   5.955   7.584   6.219 -0.0907  0.2718 -0.1937
 1091loPI   C3B16447   6.009   7.472   6.556  0.0230  0.1320  0.0265
 1091loPI   C4B16448   6.006   7.411   6.877 -0.1597 -0.1117 -0.1579
 1092loPI    C116449   0.780   9.954   5.405 -0.0604  0.1461  0.0414
 1092loPI    C216450   1.119   9.976   5.194 -0.0926 -0.1363 -0.0441
 1092loPI    C316451   0.788  10.158   5.062 -0.0064  0.0376 -0.0224
 1092loPI   PO416452   0.861   9.994   5.646  0.0228 -0.1027 -0.0585
 1092loPI   GL116453   0.890   9.702   5.923 -0.0547  0.0783  0.0288
 1092loPI   GL216454   1.221   9.627   6.015  0.4036 -0.0773 -0.1472
 1092loPI   C1A16455   0.769   9.672   6.414  0.3204 -0.0739 -0.1604
 1092loPI   C2A16456   0.916   9.585   6.800  0.2231 -0.3694 -0.1005
 1092loPI   C3A16457   0.935   9.678   7.207  0.3611 -0.2237 -0.1077
 1092loPI   C4A16458   1.034   9.453   7.564  0.0619 -0.0681  0.0638
 1092loPI   C5A16459   0.873   9.030   7.638 -0.0834  0.2083  0.0870
 1092loPI   C6A16460   1.096   8.721   7.904  0.0308  0.2787  0.0538
 1092loPI   C1B16461   1.279   9.647   6.452  0.2441  0.0299 -0.2493
 1092loPI   C2B16462   1.280   9.918   6.864 -0.3757  0.1088 -0.0824
 1092loPI   C3B16463   1.270  10.123   7.157 -0.3757  0.0532  0.0509
 1092loPI   C4B16464   0.873  10.172   7.366 -0.0985  0.2940 -0.1348
 1093loPI    C116465  15.165  15.998   5.273  0.2380  0.0619 -0.2451
 1093loPI    C216466  15.060  15.616   5.325  0.1125  0.1249 -0.0218
 1093loPI    C316467  14.860  15.844   5.064  0.0710  0.0867 -0.0238
 1093loPI   PO416468  15.303  16.038   5.511  0.3608 -0.0429 -0.2228
 1093loPI   GL116469  15.265  16.065   6.009 -0.1331 -0.0822  0.0968
 1093loPI   GL216470  14.882  16.099   6.178  0.0343 -0.2794  0.0397
 1093loPI   C1A16471  15.265  16.224   6.420  0.0094  0.0022  0.0783
 1093loPI   C2A16472  15.523  16.188   6.755 -0.1083  0.1624 -0.3226
 1093loPI   C3A16473  15.467  16.200   7.048  0.2789 -0.1593  0.1117
 1093loPI   C4A16474  15.547  16.148   7.499 -0.0942  0.1843 -0.1324
 1093loPI   C5A16475  15.744  16.113   7.894  0.1757  0.0349 -0.3664
 1093loPI   C6A16476  15.704  16.316   8.331 -0.1654 -0.3734  0.0406
 1093loPI   C1B16477  14.787  16.347   6.539 -0.0130  0.1750 -0.0714
 1093loPI   C2B16478  15.017  16.484   6.900  0.0436 -0.0552  0.1815
 1093loPI   C3B16479  15.136  16.802   7.233  0.1774  0.0657 -0.1446
 1093loPI   C4B16480  15.356  16.991   7.612  0.0817  0.0839  0.2028
 1094loPI    C116481   7.881  17.850   5.545  0.1293  0.0150 -0.0626
 1094loPI    C216482   7.683  17.510   5.612 -0.2758  0.2305 -0.1357
 1094loPI    C316483   7.727  17.645   5.239  0.0369  0.1724 -0.1225
 1094loPI   PO416484   7.761  17.980   5.788 -0.0705  0.0416 -0.0017
 1094loPI   GL116485   7.939  18.058   6.154  0.1836 -0.0238 -0.3344
 1094loPI   GL216486   8.287  18.045   5.855 -0.0698  0.0823  0.1950
 1094loPI   C1A16487   7.969  18.144   6.525  0.1807  0.1599 -0.3303
 1094loPI   C2A16488   7.964  18.009   6.873  0.0457  0.1542 -0.3946
 1094loPI   C3A16489   8.003  18.147   7.316  0.0386 -0.1496 -0.0597
 1094loPI   C4A16490   7.916  17.971   7.701  0.3078  0.2874 -0.1187
 1094loPI   C5A16491   7.660  17.812   8.054  0.0184 -0.2847  0.2276
 1094loPI   C6A16492   7.157  17.814   8.165 -0.0851 -0.0799  0.1355
 1094loPI   C1B16493   8.392  17.916   6.236 -0.3171  0.0624 -0.3196
 1094loPI   C2B16494   8.408  17.845   6.639  0.1607 -0.2225  0.0172
 1094loPI   C3B16495   8.369  17.774   7.109  0.0493 -0.0415 -0.1107
 1094loPI   C4B16496   8.533  17.737   7.449 -0.0434  0.2847  0.0676
 1095loPI    C116497   2.735   8.597   5.160  0.0628 -0.1739 -0.1581
 1095loPI    C216498   2.383   8.772   5.089  0.2575  0.2985 -0.0063
 1095loPI    C316499   2.632   8.695   4.786  0.1231  0.1743 -0.0871
 1095loPI   PO416500   2.681   8.401   5.341  0.0150 -0.1462  0.1724
 1095loPI   GL116501   2.653   8.321   5.689 -0.0749  0.0272 -0.1467
 1095loPI   GL216502   2.575   8.574   5.931 -0.1572 -0.0876  0.2190
 1095loPI   C1A16503   2.888   8.116   5.952  0.0205 -0.4445 -0.2665
 1095loPI   C2A16504   2.976   8.055   6.468  0.5673 -0.1966  0.0352
 1095loPI   C3A16505   2.975   7.859   6.915 -0.0736  0.1276 -0.0154
 1095loPI   C4A16506   2.657   7.727   7.267  0.1809 -0.0917 -0.0647
 1095loPI   C5A16507   2.401   7.464   7.575  0.0742 -0.1337  0.2051
 1095loPI   C6A16508   2.444   7.246   7.938  0.0380  0.0218  0.1406
 1095loPI   C1B16509   2.690   8.440   6.341  0.1452  0.3783 -0.0792
 1095loPI   C2B16510   2.767   8.621   6.730  0.3505 -0.3146  0.0066
 1095loPI   C3B16511   2.637   9.040   6.804 -0.2592 -0.1674  0.2325
 1095loPI   C4B16512   2.360   9.307   6.619 -0.4330  0.0649  0.2941
 1096loPI    C116513   0.744  13.951   5.308  0.2093  0.2446  0.0542
 1096loPI    C216514   0.855  13.593   5.448 -0.1498  0.0079 -0.2428
 1096loPI    C316515   1.105  13.805   5.218  0.1665  0.0762  0.1511
 1096loPI   PO416516   0.611  14.029   5.536  0.2725 -0.0614 -0.0928
 1096loPI   GL116517   0.704  13.894   5.847  0.1691  0.0108 -0.0969
 1096loPI   GL216518   0.785  14.240   5.936 -0.0658  0.1079 -0.2120
 1096loPI   C1A16519   0.888  13.841   6.267 -0.1539 -0.2495 -0.1091
 1096loPI   C2A16520   0.973  13.990   6.588  0.0736  0.2610  0.1242
 1096loPI   C3A16521   1.199  14.136   6.895  0.1195  0.1070 -0.1232
 1096loPI   C4A16522   1.287  14.463   7.176 -0.0710  0.2559 -0.1243
 1096loPI   C5A16523   1.451  14.643   7.569 -0.1276 -0.1272  0.1472
 1096loPI   C6A16524   1.668  14.535   7.875 -0.0292 -0.1873  0.2003
 1096loPI   C1B16525   1.170  14.256   6.068  0.2060 -0.3837  0.1108
 1096loPI   C2B16526   1.405  14.402   6.367 -0.0764  0.0275  0.1463
 1096loPI   C3B16527   1.654  14.187   6.634  0.4715  0.0641  0.0375
 1096loPI   C4B16528   1.751  14.211   7.090 -0.1889 -0.4963 -0.1819
 1097loPI    C116529  13.986   4.091   5.174 -0.1439  0.2269 -0.0842
 1097loPI    C216530  14.324   4.113   4.961 -0.0266  0.0602  0.0818
 1097loPI    C316531  13.997   4.307   4.838  0.1228  0.2049 -0.0917
 1097loPI   PO416532  14.045   4.088   5.365 -0.1313 -0.1803  0.3526
 1097loPI   GL116533  13.965   3.890   5.763  0.1853  0.2693 -0.1480
 1097loPI   GL216534  13.700   3.981   5.780  0.1789  0.2713  0.3608
 1097loPI   C1A16535  13.682   3.527   5.955 -0.0819  0.0890  0.5100
 1097loPI   C2A16536  13.626   3.374   6.381 -0.1050  0.0214  0.0439
 1097loPI   C3A16537  13.680   3.374   6.885 -0.2075  0.3837 -0.0885
 1097loPI   C4A16538  13.725   3.087   7.219 -0.3238 -0.0690  0.1215
 1097loPI   C5A16539  13.651   3.008   7.699 -0.2925 -0.2876  0.0735
 1097loPI   C6A16540  13.953   2.829   8.099  0.0848 -0.0855 -0.4151
 1097loPI   C1B16541  13.592   3.901   6.215 -0.1653  0.0279 -0.0159
 1097loPI   C2B16542  13.379   3.739   6.692 -0.2243  0.0802 -0.0468
 1097loPI   C3B16543  13.278   3.680   7.125 -0.2127 -0.1892 -0.0296
 1097loPI   C4B16544  13.248   3.911   7.531  0.0778 -0.3013  0.1356
 1098loPI    C116545  15.860   8.267   5.500 -0.2474 -0.5459  0.1087
 1098loPI    C216546  15.501   8.443   5.493  0.0687  0.1276  0.0324
 1098loPI    C316547  15.722   8.426   5.160  0.2715  0.0721  0.1679
 1098loPI   PO416548  15.990   8.384   5.647 -0.3397  0.0077 -0.1789
 1098loPI   GL116549  16.185   8.571   6.013 -0.0085 -0.0411  0.1598
 1098loPI   GL216550  16.465   8.323   6.099 -0.0531  0.0303 -0.2136
 1098loPI   C1A16551  15.974   8.383   6.381  0.0806  0.1610 -0.0793
 1098loPI   C2A16552  16.101   8.253   6.791  0.1973  0.1514  0.0750
 1098loPI   C3A16553  16.176   8.091   7.224  0.0285  0.0901  0.0264
 1098loPI   C4A16554  16.278   7.792   7.525 -0.2438 -0.2308 -0.1513
 1098loPI   C5A16555  15.928   7.616   7.754 -0.2301  0.0944  0.0927
 1098loPI   C6A16556  15.674   7.412   8.003  0.1487  0.1668  0.3950
 1098loPI   C1B16557  16.499   8.369   6.541  0.0004 -0.0656 -0.2584
 1098loPI   C2B16558  16.731   8.387   6.900 -0.1972  0.3722 -0.1694
 1098loPI   C3B16559  16.926   8.746   7.118  0.1000  0.2307  0.4665
 1098loPI   C4B16560  16.617   8.936   7.399 -0.3873 -0.1773  0.3045
 1099loPI    C116561  15.978   4.019   5.347 -0.0364 -0.1835  0.0172
 1099loPI    C216562  15.779   3.866   5.659 -0.1822 -0.1377 -0.0525
 1099loPI    C316563  15.618   3.853   5.293 -0.0507 -0.1112 -0.1120
 1099loPI   PO416564  16.073   4.270   5.545  0.3058 -0.0226 -0.2061
 1099loPI   GL116565  16.177   4.455   5.875 -0.1170  0.0682 -0.1634
 1099loPI   GL216566  16.439   4.504   5.922  0.1194 -0.2838  0.2411
 1099loPI   C1A16567  15.997   4.678   6.125 -0.0909  0.3291 -0.0614
 1099loPI   C2A16568  15.900   4.532   6.584 -0.0158 -0.0194 -0.0642
 1099loPI   C3A16569  15.854   4.382   7.009 -0.0306 -0.1537 -0.1046
 1099loPI   C4A16570  15.874   4.504   7.502 -0.1872 -0.1159 -0.0991
 1099loPI   C5A16571  15.824   4.627   7.912  0.0133 -0.2931  0.2516
 1099loPI   C6A16572  16.130   4.831   8.221 -0.0346  0.0316  0.0068
 1099loPI   C1B16573  16.448   4.756   6.415 -0.0732 -0.2732 -0.0198
 1099loPI   C2B16574  16.330   4.659   6.880 -0.3044  0.2605 -0.0953
 1099loPI   C3B16575  16.262   4.911   7.238 -0.0763 -0.1946  0.4999
 1099loPI   C4B16576  16.051   5.027   7.654 -0.1351 -0.1409  0.2599
 1100loPI    C116577   1.307  18.073   5.273 -0.0378  0.1923  0.0866
 1100loPI    C216578   1.286  18.200   4.894 -0.1910 -0.0437  0.0141
 1100loPI    C316579   1.103  18.405   5.184 -0.1201  0.1069 -0.0465
 1100loPI   PO416580   1.214  17.846   5.359 -0.0242  0.0193  0.1422
 1100loPI   GL116581   1.297  17.618   5.729 -0.0966 -0.4495 -0.2085
 1100loPI   GL216582   1.508  17.833   5.819  0.1777 -0.2902  0.3693
 1100loPI   C1A16583   1.135  17.365   6.038  0.2611  0.0521  0.0676
 1100loPI   C2A16584   1.204  17.113   6.258  0.0108  0.0415  0.0048
 1100loPI   C3A16585   1.155  16.941   6.605  0.4660  0.0357  0.1741
 1100loPI   C4A16586   1.290  16.903   7.047  0.0180  0.1394 -0.2595
 1100loPI   C5A16587   1.229  17.131   7.426  0.1153 -0.0404  0.0475
 1100loPI   C6A16588   0.998  17.429   7.696 -0.0214 -0.1317 -0.1160
 1100loPI   C1B16589   1.141  17.848   6.106 -0.0439  0.4011 -0.2253
 1100loPI   C2B16590   1.021  17.725   6.471 -0.1818 -0.0295  0.0010
 1100loPI   C3B16591   0.949  17.403   6.577 -0.2234  0.0146  0.0593
 1100loPI   C4B16592   1.127  17.315   6.904 -0.0420 -0.1531  0.0391
 1101loPI    C116593   1.371  17.102   4.857 -0.1125 -0.1599  0.0446
 1101loPI    C216594   1.223  17.358   5.127  0.1697  0.1234 -0.0626
 1101loPI    C316595   1.101  17.374   4.746 -0.0017 -0.0744 -0.0180
 1101loPI   PO416596   1.648  17.184   4.951 -0.3583  0.0339 -0.1495
 1101loPI   GL116597   1.923  17.063   5.352 -0.1855 -0.0422  0.0452
 1101loPI   GL216598   1.767  16.825   5.475 -0.2188 -0.2684  0.2426
 1101loPI   C1A16599   1.849  17.296   5.781  0.2378 -0.1287  0.1609
 1101loPI   C2A16600   1.601  17.480   6.212 -0.0054  0.3885  0.3348
 1101loPI   C3A16601   1.529  17.331   6.620  0.4778 -0.0455  0.1316
 1101loPI   C4A16602   1.630  17.322   7.034 -0.1092  0.1862  0.1473
 1101loPI   C5A16603   1.813  17.039   7.409  0.1627 -0.2422  0.0057
 1101loPI   C6A16604   1.928  16.939   7.866  0.0013  0.1856  0.1525
 1101loPI   C1B16605   2.099  16.879   5.784  0.0879 -0.0718  0.1982
 1101loPI   C2B16606   2.143  16.966   6.205 -0.0880 -0.0526  0.0273
 1101loPI   C3B16607   2.079  17.209   6.512  0.1938 -0.0917 -0.3804
 1101loPI   C4B16608   2.098  17.390   6.868 -0.1567 -0.3240 -0.2194
 1102loPI    C116609  14.433   0.304   5.101  0.1816  0.1225 -0.2314
 1102loPI    C216610  14.351   0.004   4.849  0.0453 -0.0795  0.0484
 1102loPI    C316611  14.224   0.375   4.767  0.1065 -0.1196 -0.2373
 1102loPI   PO416612  14.371   0.276   5.314  0.1249  0.0229  0.1558
 1102loPI   GL116613  14.479   0.073   5.622 -0.0271 -0.0497 -0.0508
 1102loPI   GL216614  14.761   0.256   5.729 -0.0557  0.1948 -0.2773
 1102loPI   C1A16615  14.545  -0.206   6.108  0.1710 -0.0052 -0.1582
 1102loPI   C2A16616  14.587  -0.216   6.466 -0.2618 -0.2044 -0.0142
 1102loPI   C3A16617  14.619  -0.145   6.882 -0.0739  0.1091  0.1012
 1102loPI   C4A16618  14.516   0.055   7.383  0.1944  0.3545  0.0107
 1102loPI   C5A16619  14.748   0.121   7.696  0.1862 -0.0672 -0.0141
 1102loPI   C6A16620  14.875   0.322   8.132  0.2337  0.0242  0.0286
 1102loPI   C1B16621  14.714   0.245   6.203  0.1210 -0.1492  0.1638
 1102loPI   C2B16622  14.705   0.256   6.586 -0.0437  0.0299 -0.1226
 1102loPI   C3B16623  14.674   0.300   7.004  0.0061 -0.1495 -0.3259
 1102loPI   C4B16624  14.734   0.629   7.213  0.0891  0.0160 -0.3398
 1103loPI    C116625   2.847   6.208   5.016  0.0389 -0.0635  0.0049
 1103loPI    C216626   2.842   6.295   4.626 -0.1095  0.3312  0.0908
 1103loPI    C316627   2.578   6.036   4.775 -0.1008  0.2359 -0.0573
 1103loPI   PO416628   2.946   6.444   5.128  0.3275  0.2322  0.4815
 1103loPI   GL116629   3.161   6.582   5.378 -0.2366  0.4016  0.1106
 1103loPI   GL216630   3.349   6.872   5.410 -0.1156  0.1922 -0.1117
 1103loPI   C1A16631   3.266   6.441   5.733 -0.0787  0.1649 -0.3771
 1103loPI   C2A16632   3.309   6.269   6.215 -0.0132  0.1675 -0.1559
 1103loPI   C3A16633   3.186   6.203   6.666  0.1195 -0.2937  0.1692
 1103loPI   C4A16634   3.318   6.342   7.160  0.1024 -0.2282 -0.2019
 1103loPI   C5A16635   3.665   6.483   7.450  0.0549  0.1518 -0.0254
 1103loPI   C6A16636   3.869   6.889   7.290  0.1524 -0.3775 -0.2272
 1103loPI   C1B16637   2.992   6.989   5.705  0.0782  0.1794 -0.0966
 1103loPI   C2B16638   2.742   7.092   6.052  0.2615 -0.0836  0.2287
 1103loPI   C3B16639   2.395   7.339   6.095 -0.1721 -0.1409 -0.3094
 1103loPI   C4B16640   2.073   7.527   5.924 -0.0658 -0.1691 -0.2144
 1104loPI    C116641   2.087  12.646   5.123  0.0791 -0.2375  0.0386
 1104loPI    C216642   2.092  12.863   4.786  0.1029 -0.0615  0.1507
 1104loPI    C316643   2.080  12.463   4.767 -0.0122 -0.0496 -0.0577
 1104loPI   PO416644   1.865  12.759   5.323 -0.0843  0.2383  0.0709
 1104loPI   GL116645   1.970  12.754   5.678  0.0510  0.1410 -0.2012
 1104loPI   GL216646   2.164  13.025   5.746 -0.2647 -0.0492 -0.1428
 1104loPI   C1A16647   1.855  12.739   6.018 -0.0068  0.0693  0.0897
 1104loPI   C2A16648   1.752  12.910   6.449 -0.1039  0.2161 -0.2179
 1104loPI   C3A16649   1.525  12.804   6.829 -0.0633  0.1863 -0.2386
 1104loPI   C4A16650   1.383  12.875   7.252  0.2194  0.1542 -0.5370
 1104loPI   C5A16651   1.658  12.958   7.639 -0.0041  0.0946 -0.5301
 1104loPI   C6A16652   2.075  12.730   7.679 -0.0841 -0.0310 -0.2327
 1104loPI   C1B16653   2.292  12.911   6.143  0.3783 -0.2991 -0.0947
 1104loPI   C2B16654   2.244  12.737   6.422 -0.1264  0.1020  0.0313
 1104loPI   C3B16655   2.118  12.874   6.783 -0.1552 -0.0263  0.1028
 1104loPI   C4B16656   1.906  12.806   7.210 -0.1639  0.3986  0.1036
 1105loPI    C116657   0.480   1.744   5.131  0.2952  0.0041  0.1516
 1105loPI    C216658   0.397   1.509   4.818 -0.1218  0.1547  0.1430
 1105loPI    C316659   0.676   1.795   4.786 -0.0004  0.0206 -0.0165
 1105loPI   PO416660   0.483   1.545   5.309  0.0701  0.0631 -0.0885
 1105loPI   GL116661   0.472   1.320   5.700 -0.3230 -0.2362  0.1052
 1105loPI   GL216662   0.505   0.939   5.739  0.1395 -0.3212 -0.0950
 1105loPI   C1A16663   0.545   1.537   6.100  0.2196 -0.1669  0.1081
 1105loPI   C2A16664   0.512   1.599   6.578  0.1084  0.3418 -0.0259
 1105loPI   C3A16665   0.579   1.313   6.979  0.0842 -0.1148  0.0289
 1105loPI   C4A16666   0.514   1.315   7.419 -0.2593  0.0377 -0.1641
 1105loPI   C5A16667   0.539   1.064   7.792  0.2197 -0.2628  0.0524
 1105loPI   C6A16668   0.420   0.633   7.928  0.0319  0.2189 -0.2570
 1105loPI   C1B16669   0.430   1.057   6.100 -0.1210 -0.0176 -0.3584
 1105loPI   C2B16670   0.266   1.227   6.410  0.1913  0.1180  0.1784
 1105loPI   C3B16671   0.190   1.050   6.757  0.1568 -0.1237 -0.1682
 1105loPI   C4B16672  -0.021   0.977   7.133 -0.2414  0.3695  0.0343
 1106loPI    C116673   6.507   4.545   4.757  0.1437  0.1903 -0.3185
 1106loPI    C216674   6.626   4.921   4.689  0.1803  0.2274 -0.0599
 1106loPI    C316675   6.355   4.750   4.448  0.1156  0.4408 -0.1410
 1106loPI   PO416676   6.541   4.564   5.089  0.0636 -0.2190  0.2419
 1106loPI   GL116677   6.447   4.888   5.241  0.1893 -0.5810  0.1936
 1106loPI   GL216678   6.579   4.939   5.592  0.1436 -0.1086 -0.2131
 1106loPI   C1A16679   6.106   4.989   5.563 -0.4616  0.0652 -0.0329
 1106loPI   C2A16680   5.915   5.110   5.954 -0.0937  0.0068  0.0141
 1106loPI   C3A16681   6.100   5.218   6.259  0.0131 -0.2998 -0.1331
 1106loPI   C4A16682   6.460   5.093   6.386  0.0692  0.2994 -0.2103
 1106loPI   C5A16683   6.593   4.945   6.794  0.4607  0.1066 -0.0650
 1106loPI   C6A16684   6.842   4.906   7.154 -0.1984  0.2776 -0.2344
 1106loPI   C1B16685   6.787   4.859   5.970  0.0811 -0.1616 -0.0653
 1106loPI   C2B16686   6.846   4.667   6.500  0.0892  0.0107  0.1245
 1106loPI   C3B16687   6.709   4.398   6.880 -0.1322 -0.1907 -0.0811
 1106loPI   C4B16688   6.655   4.433   7.202 -0.1265  0.1458 -0.3845
 1107loPI    C116689   6.550   2.311   5.169  0.4690  0.0825  0.0296
 1107loPI    C216690   6.718   2.086   4.884  0.0506 -0.1558 -0.0374
 1107loPI    C316691   6.428   2.345   4.790  0.2802  0.1555  0.0954
 1107loPI   PO416692   6.563   2.221   5.406 -0.1653 -0.2326 -0.1296
 1107loPI   GL116693   6.624   2.418   5.791 -0.0763  0.0998  0.1402
 1107loPI   GL216694   6.851   2.116   5.794  0.3296  0.2206  0.0981
 1107loPI   C1A16695   6.415   2.579   6.218 -0.0015 -0.2192  0.0635
 1107loPI   C2A16696   6.504   2.593   6.672  0.3788 -0.0578  0.0683
 1107loPI   C3A16697   6.455   2.777   7.167 -0.1874 -0.0478 -0.1506
 1107loPI   C4A16698   6.128   2.847   7.423  0.1242 -0.0417 -0.0282
 1107loPI   C5A16699   5.859   3.055   7.639  0.2987  0.3247 -0.2709
 1107loPI   C6A16700   5.653   3.005   8.051 -0.1645  0.0008 -0.0624
 1107loPI   C1B16701   6.834   2.312   6.281  0.2496  0.1660  0.1071
 1107loPI   C2B16702   6.875   2.342   6.795  0.2871  0.2530  0.0708
 1107loPI   C3B16703   6.887   2.452   7.214 -0.2063 -0.0594 -0.0297
 1107loPI   C4B16704   6.964   2.434   7.619 -0.2823 -0.2421 -0.1729
 1108loPI    C116705   0.735   0.208   4.934  0.2411  0.0563  0.1147
 1108loPI    C216706   0.830  -0.131   4.744 -0.0620  0.0687 -0.0656
 1108loPI    C316707   1.107   0.153   4.797  0.0821 -0.0251 -0.2990
 1108loPI   PO416708   0.687   0.105   5.203 -0.0448  0.1224  0.0464
 1108loPI   GL116709   0.733   0.065   5.538  0.0516 -0.4521 -0.1552
 1108loPI   GL216710   0.512   0.305   5.633  0.0768  0.0012  0.0915
 1108loPI   C1A16711   0.647  -0.052   5.991 -0.1020  0.3617  0.2000
 1108loPI   C2A16712   0.582   0.157   6.332 -0.2810 -0.1624 -0.4803
 1108loPI   C3A16713   0.601   0.325   6.693 -0.0434  0.2114  0.0514
 1108loPI   C4A16714   0.458   0.607   6.942 -0.2584  0.1125 -0.0870
 1108loPI   C5A16715   0.390   0.788   7.356 -0.3485 -0.1341 -0.1564
 1108loPI   C6A16716   0.045   0.840   7.677  0.1501 -0.0478 -0.1490
 1108loPI   C1B16717   0.295   0.384   5.966 -0.1925  0.1693 -0.1572
 1108loPI   C2B16718   0.090   0.265   6.342 -0.0298  0.1057  0.0962
 1108loPI   C3B16719   0.157   0.145   6.853 -0.3634  0.1181 -0.1138
 1108loPI   C4B16720   0.171   0.271   7.269 -0.1406 -0.0496 -0.2667
 1109loPI    C116721   8.607   9.857   5.214 -0.0024 -0.0518 -0.0194
 1109loPI    C216722   8.894   9.798   4.942  0.0378  0.1141 -0.0143
 1109loPI    C316723   8.545   9.959   4.832 -0.0284 -0.0230 -0.0074
 1109loPI   PO416724   8.715  10.048   5.434 -0.2454  0.0442  0.2147
 1109loPI   GL116725   8.871   9.971   5.755 -0.1805 -0.0047 -0.1451
 1109loPI   GL216726   8.776  10.324   5.895 -0.1518  0.0976 -0.2076
 1109loPI   C1A16727   8.780   9.929   6.176  0.2174  0.3080 -0.3745
 1109loPI   C2A16728   8.970   9.856   6.551 -0.1312 -0.0943  0.0718
 1109loPI   C3A16729   9.167  10.054   6.826  0.0666  0.0704 -0.0905
 1109loPI   C4A16730   9.417  10.047   7.274  0.0430  0.3524 -0.0867
 1109loPI   C5A16731   9.699  10.149   7.518 -0.0655 -0.0973  0.0916
 1109loPI   C6A16732   9.676  10.238   7.999 -0.0658  0.3019  0.0316
 1109loPI   C1B16733   8.964  10.410   6.297  0.0115  0.2594  0.1040
 1109loPI   C2B16734   8.827  10.462   6.626 -0.1205  0.0053 -0.2458
 1109loPI   C3B16735   8.907  10.474   6.989 -0.0428 -0.1357  0.0130
 1109loPI   C4B16736   9.055  10.371   7.267 -0.0268 -0.1098  0.0618
 1110loPI    C116737  14.961  15.075   5.513 -0.1740  0.1729 -0.1323
 1110loPI    C216738  14.756  15.372   5.686 -0.2699 -0.0748  0.1885
 1110loPI    C316739  14.592  15.009   5.653 -0.1476 -0.1004 -0.1873
 1110loPI   PO416740  15.130  14.997   5.608 -0.3222  0.0157 -0.0682
 1110loPI   GL116741  14.919  14.759   6.015  0.3285  0.3826  0.0682
 1110loPI   GL216742  14.621  14.870   6.115 -0.1371  0.1369  0.3910
 1110loPI   C1A16743  14.877  14.647   6.470 -0.0525 -0.0891  0.1884
 1110loPI   C2A16744  14.689  14.571   6.805  0.0287 -0.0761 -0.1300
 1110loPI   C3A16745  14.603  14.610   7.263  0.0625  0.3351  0.4188
 1110loPI   C4A16746  15.022  14.522   7.332 -0.1212 -0.1471  0.0554
 1110loPI   C5A16747  15.306  14.667   7.499 -0.3180 -0.1632 -0.0060
 1110loPI   C6A16748  15.495  14.594   7.923 -0.1770 -0.0348  0.1191
 1110loPI   C1B16749  14.262  15.060   6.297 -0.5364 -0.3113  0.0325
 1110loPI   C2B16750  14.214  15.070   6.715 -0.3376 -0.2576  0.0743
 1110loPI   C3B16751  14.233  15.369   7.093 -0.0324 -0.4158  0.3528
 1110loPI   C4B16752  14.107  15.592   7.416 -0.1053 -0.1152  0.2077
 1111loPI    C116753  17.258  16.565   5.308  0.2186 -0.0093  0.0115
 1111loPI    C216754  17.314  16.550   4.912 -0.0213  0.0306 -0.0250
 1111loPI    C316755  16.944  16.583   5.062  0.0548 -0.1413  0.2074
 1111loPI   PO416756  17.292  16.794   5.414  0.3015  0.1015  0.2383
 1111loPI   GL116757  17.275  17.006   5.797  0.4434  0.0830  0.2549
 1111loPI   GL216758  17.151  16.691   5.906 -0.3302 -0.1686 -0.0096
 1111loPI   C1A16759  17.580  16.922   6.160 -0.2927  0.0674  0.0396
 1111loPI   C2A16760  17.868  16.749   6.451 -0.0350 -0.1441  0.1061
 1111loPI   C3A16761  17.834  16.772   6.913  0.2497  0.1216  0.4404
 1111loPI   C4A16762  17.666  16.761   7.348 -0.0631  0.1554  0.1122
 1111loPI   C5A16763  17.517  17.021   7.803  0.2969 -0.0676  0.0513
 1111loPI   C6A16764  17.257  16.778   8.124  0.2221  0.1729  0.0357
 1111loPI   C1B16765  17.084  16.693   6.319  0.1702  0.5020  0.0350
 1111loPI   C2B16766  17.213  16.732   6.722  0.0954 -0.0900 -0.1050
 1111loPI   C3B16767  17.243  16.930   7.129  0.2235  0.2332  0.1792
 1111loPI   C4B16768  17.267  17.227   7.392 -0.2989  0.0685 -0.0516
 1112loPI    C116769   1.370  14.417   5.083 -0.0072  0.0753  0.4796
 1112loPI    C216770   1.706  14.376   4.871 -0.1612 -0.2079  0.2841
 1112loPI    C316771   1.582  14.740   4.981  0.1217 -0.0890  0.2182
 1112loPI   PO416772   1.475  14.167   5.276 -0.2076  0.0845 -0.0096
 1112loPI   GL116773   1.565  14.157   5.705  0.0983  0.0817 -0.3112
 1112loPI   GL216774   1.905  14.046   5.598  0.0689 -0.1082 -0.0064
 1112loPI   C1A16775   1.751  14.178   6.066  0.0137 -0.0313 -0.0847
 1112loPI   C2A16776   2.035  13.882   6.401 -0.1249 -0.2463  0.0685
 1112loPI   C3A16777   2.092  13.941   6.845 -0.0298 -0.1246  0.1304
 1112loPI   C4A16778   1.985  13.704   7.292  0.3950 -0.3823  0.1231
 1112loPI   C5A16779   2.100  13.419   7.667  0.0168 -0.1494  0.0340
 1112loPI   C6A16780   1.973  13.223   7.923  0.0171 -0.2825 -0.1680
 1112loPI   C1B16781   1.914  13.763   5.939 -0.2731  0.1410  0.0667
 1112loPI   C2B16782   2.258  13.484   5.977  0.0265 -0.1678  0.1856
 1112loPI   C3B16783   2.284  13.379   6.440 -0.1434  0.2104  0.0171
 1112loPI   C4B16784   2.144  13.366   6.767  0.0300  0.1155  0.2854
 1113loPI    C116785   5.137   9.920   5.042 -0.1533 -0.1900  0.0281
 1113loPI    C216786   5.492   9.763   4.949  0.0434  0.2517  0.0043
 1113loPI    C316787   5.251   9.896   4.660 -0.0592  0.1295  0.0327
 1113loPI   PO416788   5.206  10.081   5.217  0.1025  0.1057 -0.1532
 1113loPI   GL116789   5.001  10.232   5.481 -0.1271 -0.1673 -0.1939
 1113loPI   GL216790   5.328  10.349   5.654  0.1287 -0.0818  0.0454
 1113loPI   C1A16791   4.874  10.196   5.927  0.0360  0.1571 -0.1167
 1113loPI   C2A16792   5.175  10.098   6.265 -0.3171  0.0447 -0.0280
 1113loPI   C3A16793   5.055  10.163   6.644  0.0544 -0.1165 -0.0419
 1113loPI   C4A16794   4.766  10.245   6.975 -0.2289  0.0098  0.3914
 1113loPI   C5A16795   4.771  10.240   7.382 -0.1749  0.1297  0.1281
 1113loPI   C6A16796   4.510  10.345   7.723  0.2706  0.2591 -0.0533
 1113loPI   C1B16797   5.545  10.517   5.993 -0.0840  0.2765  0.1673
 1113loPI   C2B16798   5.613  10.557   6.468 -0.0986 -0.2774 -0.1579
 1113loPI   C3B16799   5.673  10.578   6.915 -0.0480 -0.1825 -0.1017
 1113loPI   C4B16800   5.598  11.099   7.003  0.2422 -0.2501 -0.0434
 1114loPI    C116801   6.938  11.473   5.400  0.0684  0.0909 -0.1831
 1114loPI    C216802   6.687  11.532   5.095 -0.2777 -0.2552  0.0257
 1114loPI    C316803   6.545  11.415   5.450  0.1554 -0.1909  0.2254
 1114loPI   PO416804   7.158  11.705   5.456  0.1127  0.2911  0.0248
 1114loPI   GL116805   7.442  11.776   5.783 -0.0464  0.3198  0.0773
 1114loPI   GL216806   7.702  12.014   5.841  0.1338  0.1686 -0.1059
 1114loPI   C1A16807   7.231  11.560   6.218 -0.0119 -0.1128  0.0209
 1114loPI   C2A16808   7.280  11.831   6.545  0.1955 -0.0079 -0.1442
 1114loPI   C3A16809   7.530  11.878   6.856  0.0898  0.0214  0.0234
 1114loPI   C4A16810   7.870  11.740   7.117 -0.2842 -0.1140  0.2189
 1114loPI   C5A16811   8.181  11.747   7.447 -0.2699 -0.2851  0.3776
 1114loPI   C6A16812   8.612  11.945   7.595  0.0494 -0.0875  0.0951
 1114loPI   C1B16813   7.715  11.993   6.281 -0.0312  0.0291 -0.2330
 1114loPI   C2B16814   8.047  12.061   6.651  0.1302 -0.1636 -0.2953
 1114loPI   C3B16815   8.552  12.108   6.511  0.1278 -0.3419  0.1588
 1114loPI   C4B16816   8.778  11.787   6.702 -0.0489  0.0902 -0.0363
 1115loPI    C116817  18.517  15.268   5.607  0.0960  0.2635 -0.1745
 1115loPI    C216818  18.464  14.874   5.569  0.2735  0.2402 -0.1870
 1115loPI    C316819  18.254  15.126   5.340  0.1240  0.1553 -0.1451
 1115loPI   PO416820  18.687  15.249   5.847  0.0199 -0.0180 -0.0875
 1115loPI   GL116821  19.019  15.267   6.152  0.1206 -0.0259 -0.0734
 1115loPI   GL216822  19.305  15.353   5.971 -0.1556  0.3535  0.0481
 1115loPI   C1A16823  19.029  14.987   6.489  0.0954 -0.0226  0.2517
 1115loPI   C2A16824  19.046  15.053   6.949 -0.0003 -0.0166 -0.1601
 1115loPI   C3A16825  19.252  15.306   7.205  0.0465  0.0017 -0.0748
 1115loPI   C4A16826  19.328  15.606   7.569  0.1243  0.2003  0.2403
 1115loPI   C5A16827  19.483  16.063   7.614  0.3280  0.1455  0.1387
 1115loPI   C6A16828  19.345  16.258   7.455  0.0292  0.0695 -0.0345
 1115loPI   C1B16829  19.342  15.544   6.392  0.2259  0.1950 -0.1837
 1115loPI   C2B16830  19.467  15.462   6.762  0.0776 -0.1189  0.0958
 1115loPI   C3B16831  19.759  15.541   7.011  0.0814 -0.0790 -0.0573
 1115loPI   C4B16832  20.112  15.409   6.894 -0.3176  0.1798  0.2564
 1116loPI    C116833   9.741   8.715   5.214  0.1331 -0.1046 -0.1089
 1116loPI    C216834   9.607   8.773   4.841 -0.0790  0.0888 -0.0049
 1116loPI    C316835   9.616   8.403   4.995 -0.1720  0.0317 -0.1341
 1116loPI   PO416836   9.696   8.915   5.435 -0.1320 -0.0168 -0.1455
 1116loPI   GL116837   9.858   9.066   5.894 -0.0299 -0.0904  0.0592
 1116loPI   GL216838   9.704   8.741   5.953 -0.0378  0.2576  0.0037
 1116loPI   C1A16839  10.258   9.025   6.118  0.2267  0.1524  0.2591
 1116loPI   C2A16840  10.646   9.108   6.244 -0.2026 -0.1865 -0.1113
 1116loPI   C3A16841  10.872   8.950   6.721 -0.3500 -0.1136 -0.1125
 1116loPI   C4A16842  10.700   8.662   6.961 -0.2296  0.1301  0.2584
 1116loPI   C5A16843  10.524   8.396   7.195 -0.0761 -0.3143  0.0189
 1116loPI   C6A16844  10.419   8.298   7.617  0.1502  0.0727 -0.2966
 1116loPI   C1B16845   9.292   8.529   6.176 -0.2354  0.1168 -0.1639
 1116loPI   C2B16846   9.196   8.504   6.586  0.4057 -0.0603  0.0626
 1116loPI   C3B16847   9.223   8.415   7.022 -0.4470  0.0128 -0.1730
 1116loPI   C4B16848   9.450   8.145   7.423 -0.0692 -0.1591 -0.2107
 1117loPI    C116849  15.079  13.842   5.109  0.2499 -0.0302 -0.0738
 1117loPI    C216850  14.765  13.595   5.092  0.0288  0.2401  0.0095
 1117loPI    C316851  14.984  13.663   4.765  0.1135 -0.0902 -0.0056
 1117loPI   PO416852  15.133  13.791   5.322  0.1040  0.1482  0.2212
 1117loPI   GL116853  15.115  14.034   5.649 -0.2059 -0.1060  0.0860
 1117loPI   GL216854  14.918  14.141   5.805 -0.0913 -0.3798 -0.1524
 1117loPI   C1A16855  15.267  13.905   6.015 -0.2171  0.2047 -0.1445
 1117loPI   C2A16856  15.318  13.959   6.404 -0.1552 -0.0452 -0.1010
 1117loPI   C3A16857  15.323  13.883   6.955  0.1229 -0.1153 -0.0123
 1117loPI   C4A16858  15.170  13.999   7.399  0.0856  0.0381 -0.0473
 1117loPI   C5A16859  15.023  14.114   7.827  0.0772  0.1729  0.0780
 1117loPI   C6A16860  14.556  14.215   7.978  0.0055  0.1363 -0.2047
 1117loPI   C1B16861  14.936  14.211   6.287  0.0808 -0.0639 -0.0255
 1117loPI   C2B16862  14.995  14.223   6.721 -0.1400 -0.0832 -0.3704
 1117loPI   C3B16863  14.783  14.166   7.101 -0.2561 -0.1845  0.1813
 1117loPI   C4B16864  14.669  14.166   7.460 -0.3767  0.2123 -0.0274
 1118loPI    C116865  16.309  11.661   5.628 -0.0091  0.1787  0.0225
 1118loPI    C216866  16.274  11.840   5.272  0.0985  0.1828  0.0136
 1118loPI    C316867  16.636  11.761   5.421  0.0531  0.1288  0.0963
 1118loPI   PO416868  16.159  11.756   5.812 -0.0986  0.0338 -0.1853
 1118loPI   GL116869  16.264  11.987   6.179 -0.4265  0.1287 -0.0115
 1118loPI   GL216870  16.076  12.222   5.998  0.2841  0.0651 -0.0127
 1118loPI   C1A16871  16.030  11.974   6.590  0.1215 -0.1705  0.0465
 1118loPI   C2A16872  15.947  11.920   7.006 -0.1216 -0.2165 -0.0332
 1118loPI   C3A16873  15.787  12.058   7.353 -0.1134 -0.1209  0.0366
 1118loPI   C4A16874  15.738  11.987   7.749  0.1866 -0.2383 -0.2412
 1118loPI   C5A16875  15.430  11.683   7.946  0.2975 -0.0474  0.2495
 1118loPI   C6A16876  15.127  11.325   7.869  0.0870  0.2027 -0.1238
 1118loPI   C1B16877  15.887  12.557   6.320 -0.0609  0.0798 -0.1899
 1118loPI   C2B16878  16.040  12.790   6.655  0.0481 -0.0866  0.0600
 1118loPI   C3B16879  15.972  12.840   7.127  0.1217 -0.3369  0.0077
 1118loPI   C4B16880  15.792  12.914   7.509  0.1535  0.0619  0.0715
 1119loPI    C116881  13.254   0.909   5.228  0.0910  0.0584 -0.0084
 1119loPI    C216882  13.322   1.184   4.945  0.0519 -0.0343 -0.1085
 1119loPI    C316883  13.628   0.984   5.107  0.0757  0.0306 -0.0734
 1119loPI   PO416884  13.114   1.006   5.382  0.2280 -0.0560 -0.1171
 1119loPI   GL116885  13.140   1.047   5.773 -0.3275  0.0934 -0.0587
 1119loPI   GL216886  13.311   1.247   5.847 -0.2797  0.1261 -0.0311
 1119loPI   C1A16887  12.882   1.074   6.206 -0.0026 -0.1521 -0.0848
 1119loPI   C2A16888  12.851   0.871   6.638  0.0535 -0.4080  0.3136
 1119loPI   C3A16889  12.900   0.837   6.929 -0.0639 -0.0174  0.0566
 1119loPI   C4A16890  12.722   0.862   7.313 -0.3773  0.0540 -0.0034
 1119loPI   C5A16891  12.307   0.960   7.569  0.1055 -0.0218 -0.2101
 1119loPI   C6A16892  11.939   1.277   7.657  0.0981 -0.0140  0.2297
 1119loPI   C1B16893  13.527   1.090   6.097  0.1925 -0.1044 -0.5009
 1119loPI   C2B16894  13.719   0.952   6.433 -0.0618  0.1590  0.0686
 1119loPI   C3B16895  13.810   1.060   6.830  0.2007 -0.0749  0.2034
 1119loPI   C4B16896  13.684   0.999   7.228  0.0001  0.0376  0.3421
 1120loPI    C116897  10.153   5.214   5.113 -0.0366 -0.1046  0.0529
 1120loPI    C216898  10.524   5.131   4.987 -0.0446  0.1101 -0.1186
 1120loPI    C316899  10.208   5.010   4.773 -0.0763 -0.0992  0.0433
 1120loPI   PO416900  10.161   5.234   5.410 -0.1593 -0.0234 -0.0288
 1120loPI   GL116901  10.155   5.028   5.759 -0.2706  0.0400  0.1111
 1120loPI   GL216902  10.042   5.175   5.966 -0.2411 -0.3301  0.2134
 1120loPI   C1A16903  10.362   4.718   5.962  0.2536  0.2125  0.2853
 1120loPI   C2A16904  10.178   4.496   6.222 -0.0696  0.1493 -0.1410
 1120loPI   C3A16905   9.930   4.433   6.660  0.1213 -0.2003  0.0586
 1120loPI   C4A16906   9.580   4.479   7.046 -0.0517  0.1594  0.1661
 1120loPI   C5A16907   9.468   4.780   7.232 -0.1885 -0.1372  0.2285
 1120loPI   C6A16908   9.203   5.165   7.436 -0.1078  0.1518 -0.1814
 1120loPI   C1B16909  10.100   5.084   6.297  0.0605 -0.1562  0.0246
 1120loPI   C2B16910  10.247   4.883   6.641 -0.1750 -0.1478 -0.1030
 1120loPI   C3B16911  10.492   4.947   7.003 -0.1724  0.0747  0.2125
 1120loPI   C4B16912  10.387   5.185   7.335 -0.1459  0.0333 -0.3967
 1121loPI    C116913   2.215   3.209   4.888 -0.0256 -0.1346  0.0658
 1121loPI    C216914   1.881   3.089   4.704 -0.0804 -0.1765  0.1923
 1121loPI    C316915   2.212   3.157   4.491 -0.0982 -0.3800  0.0971
 1121loPI   PO416916   2.299   3.116   5.062  0.0474 -0.1094  0.2087
 1121loPI   GL116917   2.259   3.303   5.512  0.1758  0.1873 -0.0022
 1121loPI   GL216918   2.512   3.179   5.517 -0.2902  0.2232  0.1683
 1121loPI   C1A16919   2.229   3.188   5.951  0.1112  0.2176 -0.0263
 1121loPI   C2A16920   2.429   3.441   6.300  0.0246 -0.0724  0.1108
 1121loPI   C3A16921   2.339   3.481   6.769  0.1688  0.0119  0.0845
 1121loPI   C4A16922   2.051   3.658   6.910 -0.2284  0.2345 -0.1412
 1121loPI   C5A16923   2.124   3.860   7.262  0.2630  0.2345 -0.1378
 1121loPI   C6A16924   2.437   3.990   7.654  0.4072  0.0406 -0.0890
 1121loPI   C1B16925   2.687   3.008   5.962 -0.2111  0.5075  0.0648
 1121loPI   C2B16926   2.744   2.783   6.306 -0.1202  0.1078  0.0827
 1121loPI   C3B16927   2.652   2.608   6.676 -0.1695 -0.3443  0.1667
 1121loPI   C4B16928   2.740   2.564   7.162  0.1095 -0.0837  0.0688
 1122loPI    C116929  13.368  14.874   5.396  0.1113  0.1368  0.3563
 1122loPI    C216930  13.651  14.757   5.138 -0.0145 -0.0598  0.3053
 1122loPI    C316931  13.305  14.906   5.003 -0.0558 -0.1042  0.3613
 1122loPI   PO416932  13.314  14.669   5.577 -0.2315 -0.1751 -0.2486
 1122loPI   GL116933  13.360  14.756   5.899  0.2249  0.0850  0.0733
 1122loPI   GL216934  13.533  14.463   5.982  0.2345 -0.2308  0.0027
 1122loPI   C1A16935  13.169  14.859   6.304 -0.0985 -0.0601 -0.0970
 1122loPI   C2A16936  13.203  14.717   6.682  0.1086 -0.0515 -0.3170
 1122loPI   C3A16937  13.064  14.786   7.061  0.3026  0.1450  0.3719
 1122loPI   C4A16938  12.706  14.477   7.208 -0.0182  0.1053  0.1423
 1122loPI   C5A16939  12.511  14.372   7.538 -0.2409 -0.2534 -0.1425
 1122loPI   C6A16940  12.361  14.495   7.976 -0.2731 -0.1590 -0.1552
 1122loPI   C1B16941  13.536  14.522   6.392  0.1330 -0.2526 -0.0190
 1122loPI   C2B16942  13.595  14.481   6.849  0.1309 -0.0854  0.0327
 1122loPI   C3B16943  13.758  14.367   7.306  0.2566 -0.0133 -0.1529
 1122loPI   C4B16944  13.650  14.308   7.735 -0.4137 -0.1862  0.2220
 1123loPI    C116945   2.268   0.312   5.326  0.3575 -0.2562  0.1120
 1123loPI    C216946   2.640   0.438   5.400  0.2597  0.0337  0.1237
 1123loPI    C316947   2.398   0.656   5.169  0.0974 -0.1558  0.1126
 1123loPI   PO416948   2.160   0.341   5.536 -0.0845 -0.2043  0.1925
 1123loPI   GL116949   2.222   0.298   5.938 -0.2346 -0.0060 -0.0654
 1123loPI   GL216950   2.517   0.452   5.869  0.1823 -0.1962  0.1366
 1123loPI   C1A16951   2.142   0.259   6.348  0.1216 -0.1649  0.1226
 1123loPI   C2A16952   2.042   0.154   6.775 -0.0353  0.0711 -0.5283
 1123loPI   C3A16953   2.103  -0.207   7.073  0.2542  0.5473 -0.0931
 1123loPI   C4A16954   1.972  -0.454   7.459  0.0875  0.1029  0.0466
 1123loPI   C5A16955   1.843  -0.368   7.906  0.0369 -0.1266  0.1898
 1123loPI   C6A16956   1.805  -0.063   8.135  0.2488  0.0328  0.0844
 1123loPI   C1B16957   2.323   0.703   6.294 -0.0110  0.0468 -0.0268
 1123loPI   C2B16958   2.236   0.664   6.790  0.2688 -0.0376 -0.3322
 1123loPI   C3B16959   2.223   0.445   7.171  0.3354 -0.2923  0.0171
 1123loPI   C4B16960   2.010   0.537   7.600 -0.1914 -0.1453 -0.0412
 1124loPI    C116961   7.609   6.958   4.837  0.1051 -0.1284  0.1086
 1124loPI    C216962   7.652   7.274   4.595  0.0467 -0.1870  0.0211
 1124loPI    C316963   7.756   6.910   4.468  0.1482 -0.1984  0.1347
 1124loPI   PO416964   7.709   7.001   5.039  0.0677 -0.1789 -0.0804
 1124loPI   GL116965   7.590   6.913   5.410 -0.1381  0.1551 -0.0018
 1124loPI   GL216966   7.543   7.187   5.518 -0.0380  0.0176  0.1402
 1124loPI   C1A16967   7.584   6.860   5.900  0.0204  0.2852  0.0292
 1124loPI   C2A16968   7.638   6.780   6.265  0.0838  0.2421  0.0406
 1124loPI   C3A16969   7.631   6.854   6.640  0.3007  0.1591 -0.0652
 1124loPI   C4A16970   7.715   6.791   7.043  0.3842 -0.0495 -0.1513
 1124loPI   C5A16971   7.533   6.674   7.420 -0.0032  0.0414  0.0920
 1124loPI   C6A16972   7.468   6.250   7.592  0.1585 -0.4131 -0.0098
 1124loPI   C1B16973   7.423   7.275   5.995 -0.0573 -0.2733 -0.1931
 1124loPI   C2B16974   7.378   7.262   6.487  0.2215  0.0036  0.2385
 1124loPI   C3B16975   7.535   7.266   7.000 -0.1056  0.4056 -0.1545
 1124loPI   C4B16976   7.737   7.148   7.385 -0.1058 -0.1731 -0.3941
 1125loPI    C116977  15.792   0.895   5.106  0.0221 -0.1768 -0.0092
 1125loPI    C216978  15.610   0.605   5.313  0.0014 -0.0544  0.1452
 1125loPI    C316979  15.414   0.794   5.020  0.0013 -0.1679  0.0715
 1125loPI   PO416980  15.914   1.005   5.293 -0.0187  0.1511 -0.0679
 1125loPI   GL116981  16.018   1.005   5.619 -0.3841  0.1489 -0.0408
 1125loPI   GL216982  15.914   0.762   5.760  0.0457 -0.0035  0.2472
 1125loPI   C1A16983  15.740   1.206   5.942  0.0894  0.0073 -0.1606
 1125loPI   C2A16984  15.691   1.176   6.350  0.1230  0.2938  0.0410
 1125loPI   C3A16985  15.601   1.253   6.795 -0.2062  0.2675  0.1687
 1125loPI   C4A16986  15.493   1.188   7.167 -0.3545  0.1348 -0.1520
 1125loPI   C5A16987  15.418   0.760   7.448  0.1755  0.0779  0.1064
 1125loPI   C6A16988  15.586   0.336   7.599 -0.1455  0.2402  0.0911
 1125loPI   C1B16989  16.030   0.808   6.185 -0.1532  0.2492  0.0918
 1125loPI   C2B16990  16.030   0.815   6.611  0.2435  0.0140  0.0469
 1125loPI   C3B16991  15.977   0.997   6.964  0.0910 -0.3016 -0.0165
 1125loPI   C4B16992  16.012   1.197   7.410 -0.2545  0.2265 -0.1524
 1126loPI    C116993  13.095   6.673   5.076  0.1214 -0.0191  0.1102
 1126loPI    C216994  12.930   7.030   4.999 -0.0674 -0.1013  0.1276
 1126loPI    C316995  12.794   6.703   4.814 -0.1213 -0.2136  0.3618
 1126loPI   PO416996  13.046   6.653   5.336  0.1430 -0.3752  0.2289
 1126loPI   GL116997  13.182   6.693   5.714  0.0272 -0.2440 -0.0258
 1126loPI   GL216998  12.748   6.849   5.789 -0.1140  0.1640  0.0546
 1126loPI   C1A16999  13.012   6.490   6.077  0.0082  0.1062  0.2255
 1126loPI   C2A17000  12.949   6.176   6.279  0.0554  0.0187 -0.1409
 1126loPI   C3A17001  12.881   6.104   6.784 -0.1490  0.0024 -0.1866
 1126loPI   C4A17002  12.894   6.121   7.158  0.0046 -0.0827  0.1259
 1126loPI   C5A17003  13.059   5.747   7.472 -0.0767  0.0412  0.0855
 1126loPI   C6A17004  13.252   5.403   7.543 -0.3727 -0.3603 -0.1845
 1126loPI   C1B17005  12.985   6.977   6.156  0.2484 -0.1694 -0.1007
 1126loPI   C2B17006  13.308   6.683   6.367 -0.0838  0.0461  0.2278
 1126loPI   C3B17007  13.309   6.328   6.560 -0.1935 -0.0633  0.1712
 1126loPI   C4B17008  13.385   6.050   6.922  0.1940  0.2158  0.0840
 1127loPI    C117009   1.798   4.699   5.115  0.0832  0.1109  0.0800
 1127loPI    C217010   1.511   4.685   5.394  0.0169  0.0985  0.0116
 1127loPI    C317011   1.489   4.448   5.073  0.1070  0.0934  0.0090
 1127loPI   PO417012   1.982   4.749   5.230 -0.0929 -0.0858  0.2337
 1127loPI   GL117013   1.956   4.805   5.735  0.1527  0.1488  0.0128
 1127loPI   GL217014   1.700   4.964   5.806 -0.1118  0.1387  0.0103
 1127loPI   C1A17015   2.002   4.639   6.124  0.0581 -0.0746  0.1074
 1127loPI   C2A17016   1.804   4.589   6.569  0.1363  0.1856  0.0015
 1127loPI   C3A17017   1.858   4.592   7.040  0.2322 -0.0547 -0.1436
 1127loPI   C4A17018   1.767   4.401   7.439 -0.2265 -0.0185 -0.0847
 1127loPI   C5A17019   1.383   4.195   7.740 -0.1669 -0.0566  0.2660
 1127loPI   C6A17020   0.945   4.121   7.837  0.0723  0.1201 -0.1496
 1127loPI   C1B17021   1.905   5.089   6.245 -0.2669  0.0817  0.0401
 1127loPI   C2B17022   1.958   5.049   6.673  0.1221 -0.0283 -0.1535
 1127loPI   C3B17023   2.092   5.154   7.121 -0.1356  0.0100  0.0242
 1127loPI   C4B17024   1.926   5.590   7.317 -0.0641  0.0252  0.1445
 1128loPI    C117025   6.305  17.638   5.430  0.0588  0.1378 -0.1291
 1128loPI    C217026   6.338  17.900   5.131  0.0018  0.0504 -0.2124
 1128loPI    C317027   6.193  17.534   5.061 -0.2615  0.1169 -0.0295
 1128loPI   PO417028   6.144  17.719   5.727  0.0228  0.0495  0.2550
 1128loPI   GL117029   6.234  17.812   6.088 -0.2576 -0.2224  0.3692
 1128loPI   GL217030   6.573  17.698   6.164 -0.0024  0.0047  0.0165
 1128loPI   C1A17031   6.416  18.093   6.445 -0.0346 -0.0194 -0.0843
 1128loPI   C2A17032   6.543  18.200   6.876 -0.0760  0.3871  0.2597
 1128loPI   C3A17033   6.423  17.942   7.300  0.0528 -0.3179  0.0269
 1128loPI   C4A17034   6.547  18.115   7.684 -0.1701 -0.0491  0.1595
 1128loPI   C5A17035   6.471  18.419   7.914  0.2364 -0.0997  0.0384
 1128loPI   C6A17036   6.519  18.800   7.763  0.1156 -0.2988 -0.1470
 1128loPI   C1B17037   6.560  17.636   6.588  0.1870  0.0951 -0.1410
 1128loPI   C2B17038   6.507  17.577   7.016  0.1204  0.2672 -0.0339
 1128loPI   C3B17039   6.439  17.414   7.457  0.0266  0.1468  0.2624
 1128loPI   C4B17040   6.262  17.375   7.858  0.1106 -0.1821 -0.1770
 1129loPI    C117041   5.130  16.803   5.408  0.0847 -0.0631 -0.1165
 1129loPI    C217042   4.865  17.051   5.576 -0.1150 -0.3620  0.0185
 1129loPI    C317043   4.744  16.779   5.308  0.1083 -0.2893 -0.1595
 1129loPI   PO417044   5.261  16.587   5.636 -0.2728  0.1936 -0.3202
 1129loPI   GL117045   5.236  16.399   5.900  0.1239 -0.1667 -0.2377
 1129loPI   GL217046   5.459  16.498   6.173  0.0973 -0.1297  0.3299
 1129loPI   C1A17047   5.162  16.243   6.443  0.4500 -0.0335  0.2384
 1129loPI   C2A17048   5.230  16.066   6.831  0.1185  0.6127 -0.0726
 1129loPI   C3A17049   5.201  16.203   7.242 -0.2698  0.2135 -0.1103
 1129loPI   C4A17050   5.184  16.355   7.645  0.1356 -0.0949  0.3112
 1129loPI   C5A17051   5.109  16.693   7.871 -0.2056 -0.2816  0.3256
 1129loPI   C6A17052   5.175  16.914   8.269  0.0993  0.0892 -0.2966
 1129loPI   C1B17053   5.540  16.461   6.610  0.1353  0.2635  0.0635
 1129loPI   C2B17054   5.478  16.596   7.072  0.3446 -0.2297  0.0751
 1129loPI   C3B17055   5.531  16.734   7.448  0.0076 -0.1569 -0.1468
 1129loPI   C4B17056   5.621  16.647   7.893 -0.4543 -0.0073 -0.1995
 1130loPI    C117057   6.393  13.603   5.358  0.1246  0.1266  0.1032
 1130loPI    C217058   6.227  13.959   5.432  0.0369  0.0801  0.1311
 1130loPI    C317059   6.110  13.746   5.114 -0.0080  0.0157  0.1904
 1130loPI   PO417060   6.487  13.582   5.606  0.3277 -0.0226 -0.0566
 1130loPI   GL117061   6.395  13.539   5.944 -0.1655  0.0788 -0.2206
 1130loPI   GL217062   6.815  13.438   6.131 -0.0747  0.0769  0.1366
 1130loPI   C1A17063   6.391  13.235   6.317 -0.1417  0.0718 -0.1674
 1130loPI   C2A17064   6.310  13.071   6.722 -0.1285 -0.1244  0.1007
 1130loPI   C3A17065   6.325  12.910   7.140  0.3965 -0.1028  0.0835
 1130loPI   C4A17066   6.431  13.262   7.351 -0.1332 -0.5170  0.0119
 1130loPI   C5A17067   6.800  13.309   7.687 -0.0430 -0.3234 -0.0625
 1130loPI   C6A17068   7.216  13.357   7.781 -0.0443 -0.1521  0.0328
 1130loPI   C1B17069   7.062  13.356   6.524  0.1697 -0.0723  0.0064
 1130loPI   C2B17070   7.196  13.440   6.865 -0.1882 -0.1604 -0.0013
 1130loPI   C3B17071   7.238  13.735   7.058  0.3100 -0.1878  0.2968
 1130loPI   C4B17072   7.387  13.801   7.457  0.1266 -0.0472 -0.2671
 1131loPI    C117073  18.528  16.939   5.452 -0.0877  0.1808 -0.1431
 1131loPI    C217074  18.211  16.933   5.695  0.1505  0.1714  0.1726
 1131loPI    C317075  18.248  16.655   5.410  0.0626 -0.0552  0.3787
 1131loPI   PO417076  18.549  17.196   5.436 -0.2649  0.1182 -0.3140
 1131loPI   GL117077  18.281  17.505   5.589  0.1887  0.0789  0.1012
 1131loPI   GL217078  18.346  17.491   5.924  0.2537  0.1641 -0.0997
 1131loPI   C1A17079  18.066  17.813   5.759  0.0656 -0.0479 -0.2339
 1131loPI   C2A17080  17.835  18.066   5.951 -0.1575  0.1115  0.1339
 1131loPI   C3A17081  17.917  18.094   6.340 -0.0152  0.0791 -0.0502
 1131loPI   C4A17082  17.978  18.200   6.751  0.3179  0.0201 -0.2218
 1131loPI   C5A17083  17.851  18.268   7.160  0.0703 -0.2154  0.1426
 1131loPI   C6A17084  17.848  18.519   7.538  0.1085  0.0653  0.0057
 1131loPI   C1B17085  18.173  17.623   6.304  0.2560 -0.3086  0.0032
 1131loPI   C2B17086  18.225  17.761   6.688 -0.0998  0.1514 -0.0508
 1131loPI   C3B17087  18.355  17.976   6.985 -0.0560  0.0943  0.0273
 1131loPI   C4B17088  18.674  18.365   7.053 -0.0778  0.1350  0.1923
 1132loPI    C117089  16.186  17.480   5.419 -0.0094  0.0228  0.2443
 1132loPI    C217090  16.206  17.582   5.033  0.1333  0.2520  0.3104
 1132loPI    C317091  16.518  17.405   5.209  0.0617  0.1312  0.3167
 1132loPI   PO417092  15.931  17.353   5.443  0.3284  0.2834  0.1818
 1132loPI   GL117093  15.578  17.336   5.702  0.2206  0.0944  0.2763
 1132loPI   GL217094  15.554  17.629   5.668  0.0017 -0.0579 -0.0230
 1132loPI   C1A17095  15.628  17.381   6.195  0.2037  0.1911 -0.0946
 1132loPI   C2A17096  15.610  17.317   6.663 -0.0477 -0.2140  0.3027
 1132loPI   C3A17097  15.452  17.256   7.051  0.2970 -0.0690 -0.1370
 1132loPI   C4A17098  15.271  17.465   7.417  0.0426  0.0364 -0.0930
 1132loPI   C5A17099  15.573  17.785   7.671 -0.0985  0.0926  0.0152
 1132loPI   C6A17100  16.041  17.882   7.555  0.4169 -0.0981 -0.2127
 1132loPI   C1B17101  15.806  17.768   5.951  0.0427  0.0857 -0.0841
 1132loPI   C2B17102  15.898  18.071   6.321  0.0950  0.0524  0.0522
 1132loPI   C3B17103  16.278  18.134   6.600 -0.1039  0.2587 -0.0288
 1132loPI   C4B17104  16.202  18.008   7.082  0.4897  0.3715 -0.1435
 1133loPI    C117105   7.705  13.684   5.586 -0.0735 -0.0152  0.0098
 1133loPI    C217106   7.483  13.942   5.795 -0.1093 -0.0814  0.0541
 1133loPI    C317107   7.643  14.053   5.446 -0.3654 -0.0913 -0.0685
 1133loPI   PO417108   7.932  13.519   5.812 -0.0718 -0.2704  0.0751
 1133loPI   GL117109   8.130  13.233   6.074  0.1589 -0.0822 -0.0770
 1133loPI   GL217110   7.982  12.953   6.054 -0.0495  0.0583  0.3297
 1133loPI   C1A17111   8.336  13.203   6.494 -0.0700 -0.0147  0.3727
 1133loPI   C2A17112   8.214  13.154   6.792 -0.1424 -0.1087 -0.1606
 1133loPI   C3A17113   8.162  13.123   7.123 -0.1508 -0.0199  0.0047
 1133loPI   C4A17114   8.074  12.941   7.491  0.0406  0.0316  0.0569
 1133loPI   C5A17115   8.211  12.718   7.766 -0.3215 -0.0447  0.0001
 1133loPI   C6A17116   8.264  12.273   7.891 -0.0173 -0.0710 -0.2913
 1133loPI   C1B17117   7.912  12.909   6.464 -0.1439 -0.1656 -0.1193
 1133loPI   C2B17118   7.831  12.818   6.770  0.1330  0.0560  0.1089
 1133loPI   C3B17119   7.711  12.798   7.211  0.0778 -0.0469  0.0766
 1133loPI   C4B17120   7.599  12.984   7.692  0.2494  0.0301 -0.1091
 1134loPI    C117121   9.167  10.883   5.276 -0.0405  0.0940 -0.2565
 1134loPI    C217122   9.514  11.015   5.126  0.1750 -0.2162 -0.0433
 1134loPI    C317123   9.369  10.660   5.012  0.0175 -0.1676  0.0038
 1134loPI   PO417124   9.193  10.936   5.485 -0.1021 -0.2138 -0.2885
 1134loPI   GL117125   9.646  11.225   5.692  0.1098  0.0581 -0.0015
 1134loPI   GL217126   9.812  11.275   5.390  0.1115  0.0930  0.0434
 1134loPI   C1A17127   9.519  11.015   6.051  0.0588  0.0503 -0.2201
 1134loPI   C2A17128   9.460  11.097   6.618 -0.1111  0.1548 -0.1424
 1134loPI   C3A17129   9.373  10.980   7.001  0.0637 -0.0830 -0.3100
 1134loPI   C4A17130   9.588  11.044   7.378  0.0754  0.1004  0.2404
 1134loPI   C5A17131   9.488  11.453   7.546  0.1983 -0.3292  0.1893
 1134loPI   C6A17132   9.128  11.730   7.617 -0.2077  0.0766  0.0436
 1134loPI   C1B17133  10.042  10.950   5.558  0.1838  0.2016  0.4235
 1134loPI   C2B17134   9.974  10.795   6.030 -0.0407 -0.1543 -0.1002
 1134loPI   C3B17135   9.907  10.811   6.495  0.0316 -0.0879  0.0896
 1134loPI   C4B17136   9.902  10.927   6.911 -0.1419 -0.1479 -0.1862
 1135loPI    C117137  17.521  10.633   5.137  0.2436  0.0825 -0.1439
 1135loPI    C217138  17.736  10.893   4.923  0.1104  0.2143 -0.1191
 1135loPI    C317139  17.474  10.653   4.741  0.2175  0.1124 -0.1394
 1135loPI   PO417140  17.473  10.749   5.388 -0.0814  0.0850 -0.0537
 1135loPI   GL117141  17.394  10.611   5.846 -0.0364 -0.3044  0.2090
 1135loPI   GL217142  17.607  10.631   6.056  0.1370 -0.1105 -0.2380
 1135loPI   C1A17143  17.096  10.575   6.121 -0.2193  0.0159 -0.0313
 1135loPI   C2A17144  17.225  10.549   6.549  0.4752  0.1452  0.0681
 1135loPI   C3A17145  17.277  10.697   6.988  0.0281  0.0547 -0.0538
 1135loPI   C4A17146  17.452  10.807   7.383 -0.2522  0.1801  0.1475
 1135loPI   C5A17147  17.396  10.678   7.787 -0.1056  0.0900  0.1764
 1135loPI   C6A17148  17.178  10.613   8.073  0.1878 -0.1530 -0.0383
 1135loPI   C1B17149  17.590  10.849   6.502 -0.0839  0.2461  0.0167
 1135loPI   C2B17150  17.643  11.019   6.923 -0.1029 -0.0412 -0.2108
 1135loPI   C3B17151  17.811  11.175   7.332 -0.0692 -0.0231  0.3086
 1135loPI   C4B17152  17.689  11.151   7.700  0.0756  0.1914 -0.1077
 1136loPI    C117153  15.368  15.079   5.119  0.0953 -0.0102 -0.1421
 1136loPI    C217154  15.060  15.269   4.948  0.0440  0.0093 -0.0291
 1136loPI    C317155  15.390  15.191   4.735  0.1450  0.4011 -0.0246
 1136loPI   PO417156  15.444  15.286   5.370 -0.0396 -0.1095  0.0720
 1136loPI   GL117157  15.445  15.283   5.885  0.1220 -0.0684 -0.2998
 1136loPI   GL217158  15.238  15.562   5.831  0.1259  0.0991  0.3754
 1136loPI   C1A17159  15.129  15.254   6.203  0.1184  0.0724  0.0751
 1136loPI   C2A17160  14.733  15.180   6.491 -0.1157  0.4328 -0.1403
 1136loPI   C3A17161  14.588  15.525   6.813 -0.2324 -0.1663  0.0699
 1136loPI   C4A17162  14.352  15.867   7.095  0.3771  0.1296  0.1344
 1136loPI   C5A17163  14.572  16.018   7.538  0.0678  0.1486 -0.0652
 1136loPI   C6A17164  14.679  16.063   8.063  0.0146  0.3456  0.1413
 1136loPI   C1B17165  15.394  15.656   6.287 -0.0533  0.2403  0.0937
 1136loPI   C2B17166  15.496  15.711   6.722  0.3277 -0.1290  0.4119
 1136loPI   C3B17167  15.527  15.675   7.125 -0.0238  0.5259  0.1747
 1136loPI   C4B17168  15.594  15.536   7.513  0.2043  0.1153  0.2829
 1137loPI    C117169   1.171  12.176   5.025  0.3193  0.1563  0.1067
 1137loPI    C217170   0.987  12.445   4.794  0.0212 -0.2826 -0.1831
 1137loPI    C317171   1.365  12.340   4.716  0.1556  0.0767 -0.0396
 1137loPI   PO417172   1.058  12.230   5.248 -0.1107  0.1204  0.1561
 1137loPI   GL117173   1.193  12.183   5.654 -0.1117 -0.1906 -0.1246
 1137loPI   GL217174   1.455  12.347   5.602  0.1619 -0.1206 -0.2213
 1137loPI   C1A17175   1.128  11.796   5.961 -0.1005 -0.4632 -0.0357
 1137loPI   C2A17176   1.193  12.019   6.427 -0.1995  0.0391 -0.0492
 1137loPI   C3A17177   1.348  12.088   6.879 -0.2140  0.1454 -0.2166
 1137loPI   C4A17178   1.455  12.106   7.280 -0.2007 -0.1057 -0.0421
 1137loPI   C5A17179   1.674  12.430   7.522 -0.0420 -0.1504 -0.0398
 1137loPI   C6A17180   1.647  12.548   8.008 -0.0935  0.1104 -0.3181
 1137loPI   C1B17181   1.474  12.282   6.085  0.4279  0.1518  0.0962
 1137loPI   C2B17182   1.535  12.444   6.419  0.1516  0.1129  0.1681
 1137loPI   C3B17183   1.813  12.418   6.846 -0.2857  0.0942 -0.5546
 1137loPI   C4B17184   2.127  12.264   7.300 -0.1335 -0.1014 -0.2463
 1138loPI    C117185   1.601  16.508   5.124 -0.3005 -0.2608  0.0326
 1138loPI    C217186   1.729  16.184   4.926 -0.2779 -0.3089  0.1258
 1138loPI    C317187   1.469  16.434   4.753  0.1686 -0.0441 -0.1860
 1138loPI   PO417188   1.504  16.391   5.470  0.3536 -0.0377 -0.2448
 1138loPI   GL117189   1.514  16.497   5.835  0.1515  0.1864 -0.1257
 1138loPI   GL217190   1.482  16.112   5.864  0.0375  0.0057  0.0859
 1138loPI   C1A17191   1.251  16.607   6.112 -0.2079 -0.2158  0.0508
 1138loPI   C2A17192   1.073  16.455   6.548  0.4936 -0.1964 -0.0335
 1138loPI   C3A17193   0.888  16.442   7.041 -0.1606  0.0100  0.0350
 1138loPI   C4A17194   0.952  16.699   7.377  0.1599 -0.3551 -0.1106
 1138loPI   C5A17195   0.842  16.986   7.696  0.0597  0.0823  0.0184
 1138loPI   C6A17196   0.686  17.172   8.075 -0.2418  0.2462  0.3823
 1138loPI   C1B17197   1.621  16.162   6.239 -0.0259  0.0271  0.1901
 1138loPI   C2B17198   1.670  16.259   6.645  0.0900 -0.1630 -0.0186
 1138loPI   C3B17199   1.789  16.439   7.078  0.1401  0.1199 -0.1673
 1138loPI   C4B17200   1.994  16.613   7.370  0.3233  0.2940 -0.0019
 1139loPI    C117201  17.541   6.531   5.082  0.0913  0.2449  0.1493
 1139loPI    C217202  17.224   6.770   5.131 -0.1876 -0.0882  0.0115
 1139loPI    C317203  17.396   6.737   4.772  0.0586  0.1539  0.1038
 1139loPI   PO417204  17.761   6.600   5.261 -0.1537  0.1391  0.2116
 1139loPI   GL117205  17.861   6.820   5.660  0.0841  0.0713 -0.2556
 1139loPI   GL217206  17.542   6.807   5.655  0.1464 -0.3096  0.1336
 1139loPI   C1A17207  18.134   6.879   6.007  0.3167 -0.0265 -0.0444
 1139loPI   C2A17208  18.345   6.846   6.218 -0.0520 -0.1705  0.0612
 1139loPI   C3A17209  18.341   6.881   6.642 -0.0588  0.1508  0.0972
 1139loPI   C4A17210  18.487   7.000   7.063 -0.2915  0.3111  0.1190
 1139loPI   C5A17211  18.288   6.858   7.479 -0.2380  0.2437 -0.0194
 1139loPI   C6A17212  18.071   6.495   7.615 -0.1165  0.0653  0.2391
 1139loPI   C1B17213  17.520   6.609   6.014  0.3910 -0.1363 -0.0700
 1139loPI   C2B17214  17.848   6.591   6.306 -0.0504 -0.0102  0.3125
 1139loPI   C3B17215  17.932   6.586   6.711 -0.2624  0.1201 -0.0915
 1139loPI   C4B17216  18.165   6.599   7.080  0.4295 -0.0838  0.0718
 1140loPI    C117217   1.644   1.617   5.007 -0.0141 -0.3264 -0.0014
 1140loPI    C217218   1.294   1.734   4.851  0.0169 -0.0551  0.1270
 1140loPI    C317219   1.350   1.351   4.952 -0.1637 -0.1434 -0.0989
 1140loPI   PO417220   1.687   1.719   5.281  0.1341  0.1326  0.0840
 1140loPI   GL117221   1.430   1.850   5.681  0.3921 -0.1184  0.0340
 1140loPI   GL217222   1.725   1.671   5.756 -0.0017  0.2014 -0.0541
 1140loPI   C1A17223   1.118   1.923   6.035  0.2792  0.0072 -0.0160
 1140loPI   C2A17224   0.896   1.987   6.344 -0.1259 -0.1206  0.1365
 1140loPI   C3A17225   0.830   1.969   6.899  0.0981  0.3352  0.2702
 1140loPI   C4A17226   0.588   1.780   7.179  0.1741 -0.2158  0.3865
 1140loPI   C5A17227   0.354   1.772   7.587 -0.1021  0.0651  0.1216
 1140loPI   C6A17228   0.211   1.900   8.005  0.1010  0.0000  0.1651
 1140loPI   C1B17229   1.638   1.507   6.137 -0.1278  0.0549 -0.4379
 1140loPI   C2B17230   1.500   1.501   6.533  0.2373 -0.0410  0.2134
 1140loPI   C3B17231   1.601   1.511   6.933 -0.0092 -0.1369 -0.1078
 1140loPI   C4B17232   1.531   1.700   7.329  0.1444  0.0583 -0.1577
 1141loPI    C117233   4.072  18.199   5.505  0.1083  0.2023 -0.1157
 1141loPI    C217234   4.240  17.895   5.307 -0.2635 -0.1000  0.0201
 1141loPI    C317235   4.111  18.217   5.107  0.0227 -0.0805 -0.1388
 1141loPI   PO417236   4.163  18.149   5.743  0.2966  0.0797  0.0045
 1141loPI   GL117237   3.805  18.295   6.035 -0.1484 -0.0588 -0.0017
 1141loPI   GL217238   4.202  18.527   6.126  0.0262 -0.0323 -0.1540
 1141loPI   C1A17239   3.870  18.343   6.430  0.1838  0.3557  0.0488
 1141loPI   C2A17240   3.848  18.064   6.867 -0.0400  0.0792  0.0231
 1141loPI   C3A17241   4.045  18.191   7.264 -0.0632 -0.0160 -0.2007
 1141loPI   C4A17242   4.045  18.215   7.660  0.0873 -0.0205 -0.0563
 1141loPI   C5A17243   4.301  18.364   7.829 -0.0139  0.3332  0.1200
 1141loPI   C6A17244   4.806  18.287   7.848  0.1581 -0.0614 -0.1096
 1141loPI   C1B17245   4.335  18.441   6.493 -0.2653  0.0492  0.0604
 1141loPI   C2B17246   4.193  18.483   6.854 -0.2146 -0.0424 -0.0864
 1141loPI   C3B17247   4.140  18.695   7.283  0.1048  0.0765  0.2180
 1141loPI   C4B17248   3.980  18.718   7.696 -0.2201 -0.2166 -0.1188
 1142loPI    C117249   1.092   8.971   5.266 -0.1336  0.0724 -0.0479
 1142loPI    C217250   0.837   9.100   4.987  0.0664  0.1934 -0.1766
 1142loPI    C317251   1.227   9.065   4.902  0.1265  0.2139  0.0817
 1142loPI   PO417252   1.034   9.045   5.483 -0.2885 -0.0557 -0.4289
 1142loPI   GL117253   1.299   9.193   5.751 -0.0281  0.1433  0.0425
 1142loPI   GL217254   1.515   9.151   5.950 -0.1420  0.2511  0.1229
 1142loPI   C1A17255   0.955   9.248   6.163  0.0565 -0.4351 -0.2086
 1142loPI   C2A17256   0.972   9.139   6.616 -0.2351  0.1689 -0.5164
 1142loPI   C3A17257   0.999   9.138   7.109 -0.0702  0.0907 -0.2259
 1142loPI   C4A17258   1.357   8.993   7.480 -0.2552 -0.0358 -0.3199
 1142loPI   C5A17259   1.436   9.100   7.867  0.3163  0.0437  0.2981
 1142loPI   C6A17260   1.492   8.962   8.265  0.0807  0.4057 -0.1504
 1142loPI   C1B17261   1.478   9.255   6.289 -0.3470 -0.0045  0.2377
 1142loPI   C2B17262   1.447   9.270   6.683  0.1444 -0.3188  0.0294
 1142loPI   C3B17263   1.390   9.487   7.121 -0.1854 -0.0111  0.2745
 1142loPI   C4B17264   1.474   9.569   7.643 -0.0609  0.2867  0.0169
 1143loPI    C117265  15.180   7.630   5.492 -0.0575 -0.1830 -0.2505
 1143loPI    C217266  15.535   7.565   5.664 -0.0646  0.0915 -0.1267
 1143loPI    C317267  15.402   7.317   5.379  0.2411  0.0070 -0.1997
 1143loPI   PO417268  15.098   7.882   5.407 -0.1785  0.3036  0.1327
 1143loPI   GL117269  14.768   8.183   5.444  0.2531 -0.0101  0.3792
 1143loPI   GL217270  15.031   8.312   5.660 -0.0880  0.1223  0.2923
 1143loPI   C1A17271  14.562   8.124   5.880 -0.1860 -0.4272  0.1378
 1143loPI   C2A17272  14.576   7.843   6.148  0.1977 -0.0312 -0.0684
 1143loPI   C3A17273  14.580   7.572   6.551  0.2604  0.0459  0.1462
 1143loPI   C4A17274  14.450   7.460   6.929 -0.0584 -0.2139 -0.0757
 1143loPI   C5A17275  14.383   7.319   7.392  0.0651 -0.2671  0.0446
 1143loPI   C6A17276  14.521   7.211   7.704  0.0590  0.1197 -0.1439
 1143loPI   C1B17277  15.085   8.105   6.064  0.0881 -0.2288 -0.3087
 1143loPI   C2B17278  15.002   7.879   6.429  0.0163  0.0528  0.0196
 1143loPI   C3B17279  15.289   7.836   6.770 -0.4845  0.0467 -0.0542
 1143loPI   C4B17280  15.656   7.811   7.047  0.4126 -0.2358  0.2176
 1144loPI    C117281   8.098  17.242   5.266 -0.1397 -0.1677  0.0979
 1144loPI    C217282   7.731  17.140   5.142 -0.1252 -0.0304 -0.0620
 1144loPI    C317283   7.962  17.372   4.913  0.0106 -0.0041  0.0994
 1144loPI   PO417284   8.067  17.231   5.562 -0.1190  0.0859  0.1207
 1144loPI   GL117285   8.039  17.049   5.961 -0.1920  0.2220  0.0203
 1144loPI   GL217286   7.951  16.692   5.988 -0.0025  0.0404 -0.2225
 1144loPI   C1A17287   7.754  16.912   6.383  0.1012  0.1071  0.1095
 1144loPI   C2A17288   7.567  16.904   6.745 -0.1646 -0.1383 -0.0435
 1144loPI   C3A17289   7.527  16.733   7.142  0.1964 -0.0464 -0.1803
 1144loPI   C4A17290   7.409  16.746   7.508  0.0010  0.1489  0.0802
 1144loPI   C5A17291   7.480  16.921   7.940 -0.0529 -0.0959  0.2136
 1144loPI   C6A17292   7.369  17.370   8.048  0.0142 -0.0254  0.2254
 1144loPI   C1B17293   7.588  16.530   6.105  0.0361 -0.0287 -0.2305
 1144loPI   C2B17294   7.443  16.387   6.522 -0.0595  0.3314 -0.0812
 1144loPI   C3B17295   7.508  16.231   6.888  0.0389 -0.0463 -0.2334
 1144loPI   C4B17296   7.478  16.270   7.269  0.4344  0.2381  0.0459
 1145loPI    C117297  13.587  11.373   5.127 -0.0075 -0.0456 -0.0805
 1145loPI    C217298  13.527  11.241   4.754 -0.0197 -0.3440  0.0245
 1145loPI    C317299  13.893  11.229   4.914 -0.0348 -0.3204  0.0613
 1145loPI   PO417300  13.401  11.568   5.158  0.1933  0.1830 -0.0462
 1145loPI   GL117301  13.319  11.648   5.548 -0.0526 -0.1972  0.1473
 1145loPI   GL217302  13.526  11.955   5.522  0.0424  0.1230  0.0646
 1145loPI   C1A17303  13.206  11.682   5.995  0.3659  0.2744 -0.1945
 1145loPI   C2A17304  13.201  11.685   6.498 -0.2129 -0.1010 -0.1318
 1145loPI   C3A17305  13.203  11.614   6.976  0.1414  0.2277  0.1671
 1145loPI   C4A17306  13.292  11.396   7.407  0.3267  0.0684 -0.2326
 1145loPI   C5A17307  13.261  11.085   7.806  0.0593 -0.3401 -0.2933
 1145loPI   C6A17308  12.945  11.044   8.176  0.2867 -0.0704 -0.0865
 1145loPI   C1B17309  13.676  11.913   5.884  0.1315 -0.0377  0.0228
 1145loPI   C2B17310  13.601  11.931   6.330 -0.1897  0.2507 -0.0522
 1145loPI   C3B17311  13.549  11.955   6.808  0.1377  0.2586 -0.0831
 1145loPI   C4B17312  13.562  11.953   7.270 -0.2498 -0.0240 -0.1273
 1146loPI    C117313  11.423   5.931   5.128 -0.1691  0.0526  0.0374
 1146loPI    C217314  11.347   5.598   4.921 -0.0154  0.0020  0.0613
 1146loPI    C317315  11.630   5.851   4.796 -0.0943  0.0966  0.0731
 1146loPI   PO417316  11.462   5.902   5.341  0.1023 -0.2553  0.1701
 1146loPI   GL117317  11.666   5.939   5.718 -0.0002  0.1083  0.0516
 1146loPI   GL217318  11.402   5.680   5.737 -0.0328  0.0580  0.1901
 1146loPI   C1A17319  11.828   5.672   5.987  0.0283 -0.1546  0.0129
 1146loPI   C2A17320  11.720   5.564   6.424  0.0093  0.0736  0.0057
 1146loPI   C3A17321  11.694   5.334   6.828  0.0651 -0.1083 -0.3981
 1146loPI   C4A17322  11.646   5.209   7.215 -0.1977 -0.1878 -0.1386
 1146loPI   C5A17323  11.291   5.147   7.387 -0.1851  0.0525  0.0128
 1146loPI   C6A17324  10.893   4.880   7.378 -0.3055 -0.0606  0.1211
 1146loPI   C1B17325  11.373   5.857   6.146  0.3182 -0.0960  0.4187
 1146loPI   C2B17326  11.394   5.931   6.471 -0.4083 -0.0351  0.0960
 1146loPI   C3B17327  11.572   5.835   6.847 -0.0255 -0.4759  0.2669
 1146loPI   C4B17328  11.511   6.129   7.271  0.3238 -0.0834 -0.1541
 1147loPI    C117329   0.470  17.974   5.143  0.1984  0.1437 -0.0286
 1147loPI    C217330   0.335  18.318   4.989 -0.1619  0.0792  0.1321
 1147loPI    C317331   0.369  17.994   4.757 -0.0893  0.1491  0.0447
 1147loPI   PO417332   0.681  18.065   5.290  0.0589  0.1303 -0.0741
 1147loPI   GL117333   0.750  18.228   5.585 -0.1400 -0.2381  0.1895
 1147loPI   GL217334   0.997  18.261   5.752  0.1667 -0.1246  0.0573
 1147loPI   C1A17335   0.523  18.085   5.942 -0.0068  0.1366 -0.0206
 1147loPI   C2A17336   0.584  17.832   6.331 -0.4237 -0.2268 -0.0057
 1147loPI   C3A17337   0.582  17.724   6.704 -0.2077 -0.1382  0.2683
 1147loPI   C4A17338   0.652  17.556   6.962 -0.1114  0.2577  0.0315
 1147loPI   C5A17339   0.658  17.246   7.321 -0.1250  0.2978  0.2551
 1147loPI   C6A17340   0.376  16.994   7.615 -0.3755  0.0116 -0.2530
 1147loPI   C1B17341   0.928  18.235   6.147  0.0220  0.2744  0.2542
 1147loPI   C2B17342   0.758  18.200   6.582 -0.0103 -0.0171 -0.1910
 1147loPI   C3B17343   0.524  18.407   6.816 -0.1282 -0.1866  0.0264
 1147loPI   C4B17344   0.517  18.530   7.203 -0.1453  0.0161  0.0859
 1148POPI    C117345  11.624  13.713   4.912 -0.0216  0.0389 -0.1691
 1148POPI    C217346  11.602  13.449   4.613 -0.0455  0.1295 -0.2481
 1148POPI    C317347  11.635  13.839   4.532 -0.0695  0.1559 -0.1322
 1148POPI   PO417348  11.472  13.730   5.090 -0.1208  0.1712 -0.0428
 1148POPI   GL117349  11.512  13.785   5.559 -0.0077 -0.0442  0.0655
 1148POPI   GL217350  11.564  13.478   5.595  0.0456 -0.2404 -0.1710
 1148POPI   C1A17351  11.628  13.976   5.931 -0.0195 -0.0885  0.2467
 1148POPI   D2A17352  11.610  13.826   6.375 -0.1541 -0.2360  0.2743
 1148POPI   C3A17353  11.856  14.072   6.793  0.0180  0.1551  0.2280
 1148POPI   C4A17354  11.922  14.213   7.164 -0.2666 -0.1977 -0.1305
 1148POPI   C1B17355  11.695  13.430   6.041  0.1504  0.1469  0.0178
 1148POPI   C2B17356  11.798  13.367   6.498 -0.0352  0.0072  0.0706
 1148POPI   C3B17357  11.822  13.513   6.908 -0.0130 -0.3279  0.1507
 1148POPI   C4B17358  11.651  13.718   7.197  0.2231 -0.3143  0.3238
 1149POPI    C117359   8.038   9.243   4.996 -0.0784  0.1741 -0.2246
 1149POPI    C217360   8.404   9.404   5.011 -0.0738  0.1465 -0.0083
 1149POPI    C317361   8.297   9.179   4.698  0.1297  0.0707 -0.0248
 1149POPI   PO417362   7.919   9.073   5.295 -0.2133  0.1114 -0.2904
 1149POPI   GL117363   8.038   9.140   5.765 -0.0346  0.0073  0.0237
 1149POPI   GL217364   7.922   8.876   5.938 -0.0478 -0.0567 -0.2028
 1149POPI   C1A17365   8.404   9.198   6.018 -0.0117  0.2182 -0.1669
 1149POPI   D2A17366   8.461   9.092   6.389 -0.0911  0.0896 -0.2752
 1149POPI   C3A17367   8.699   9.258   6.785 -0.0226 -0.1319 -0.0004
 1149POPI   C4A17368   8.603   9.560   7.044 -0.1563  0.1231 -0.1922
 1149POPI   C1B17369   7.959   9.101   6.328 -0.0313 -0.0286  0.2601
 1149POPI   C2B17370   7.597   9.093   6.561  0.0678  0.2529 -0.4230
 1149POPI   C3B17371   7.516   9.124   6.999  0.0393 -0.1706  0.0771
 1149POPI   C4B17372   7.424   9.171   7.337  0.1102  0.0751 -0.2812
 1150POPI    C117373   4.870  14.155   5.071  0.0962  0.1158  0.0578
 1150POPI    C217374   4.706  14.381   4.784 -0.1019 -0.3174 -0.1791
 1150POPI    C317375   5.093  14.283   4.764  0.0282  0.1333  0.0153
 1150POPI   PO417376   4.742  14.287   5.288 -0.0755  0.2245 -0.3748
 1150POPI   GL117377   4.755  14.266   5.773  0.1575 -0.1238 -0.0646
 1150POPI   GL217378   4.830  14.014   5.954  0.0810  0.0565  0.3375
 1150POPI   C1A17379   4.711  14.648   6.061  0.0928 -0.0707  0.3895
 1150POPI   D2A17380   4.765  14.837   6.495  0.1204  0.0604  0.0618
 1150POPI   C3A17381   4.402  14.802   6.748 -0.1738  0.1380  0.0247
 1150POPI   C4A17382   4.059  14.659   6.994 -0.0514 -0.0081  0.1785
 1150POPI   C1B17383   4.741  14.267   6.409 -0.4136  0.0870 -0.0633
 1150POPI   C2B17384   4.746  14.447   6.829  0.0593  0.1990 -0.0949
 1150POPI   C3B17385   4.805  14.512   7.305 -0.0314  0.0770  0.0962
 1150POPI   C4B17386   4.545  14.673   7.611  0.2679 -0.1060  0.1866
 1151POPI    C117387  17.744  10.241   5.487 -0.1205  0.0824 -0.1011
 1151POPI    C217388  17.477   9.955   5.409  0.0199 -0.1039  0.0896
 1151POPI    C317389  17.621  10.180   5.111 -0.2477 -0.0898 -0.0325
 1151POPI   PO417390  17.759  10.255   5.771 -0.1031  0.2209 -0.0336
 1151POPI   GL117391  17.900  10.165   6.207 -0.0730  0.1529 -0.1341
 1151POPI   GL217392  18.053   9.827   6.312  0.2890 -0.2265  0.1531
 1151POPI   C1A17393  17.784  10.422   6.624 -0.0025 -0.3967  0.1016
 1151POPI   D2A17394  17.695  10.461   7.129 -0.0324  0.1357  0.1411
 1151POPI   C3A17395  17.633  10.245   7.575  0.0631 -0.0618  0.2262
 1151POPI   C4A17396  17.350  10.031   7.765 -0.0294 -0.0242 -0.4146
 1151POPI   C1B17397  17.981   9.903   6.774 -0.1218 -0.3780 -0.0792
 1151POPI   C2B17398  17.747   9.921   7.211 -0.1661  0.3653  0.0683
 1151POPI   C3B17399  17.639   9.678   7.572  0.2779 -0.3998 -0.2247
 1151POPI   C4B17400  17.842   9.522   7.955  0.0200 -0.0100  0.2438
 1152POPI    C117401   9.855  13.315   4.711 -0.2338  0.0039 -0.1286
 1152POPI    C217402   9.901  13.709   4.761 -0.0823 -0.0296  0.0052
 1152POPI    C317403  10.215  13.483   4.659 -0.1573 -0.1234 -0.0192
 1152POPI   PO417404   9.707  13.165   4.954  0.2200  0.1418 -0.1416
 1152POPI   GL117405   9.449  13.104   5.381 -0.0425  0.1656 -0.1598
 1152POPI   GL217406   9.102  12.995   5.490 -0.2865  0.0273 -0.2261
 1152POPI   C1A17407   9.752  13.336   5.550 -0.1913  0.0236  0.1695
 1152POPI   D2A17408  10.089  13.570   5.772 -0.3801  0.0482 -0.2581
 1152POPI   C3A17409   9.938  13.561   6.226  0.0292 -0.0758 -0.0043
 1152POPI   C4A17410  10.195  13.435   6.558  0.3688  0.0039  0.2157
 1152POPI   C1B17411   9.084  12.759   5.860  0.0259  0.2704 -0.2154
 1152POPI   C2B17412   8.845  12.480   6.081 -0.0463  0.1473 -0.0743
 1152POPI   C3B17413   8.982  12.373   6.483 -0.1152  0.0712 -0.0715
 1152POPI   C4B17414   8.793  12.400   6.965  0.0905  0.0109 -0.0374
 1153POPI    C117415  15.439  16.924   5.488 -0.1665 -0.2112 -0.1248
 1153POPI    C217416  15.547  16.566   5.345  0.1565 -0.1496 -0.0431
 1153POPI    C317417  15.761  16.892   5.252  0.0157 -0.0167  0.0914
 1153POPI   PO417418  15.171  16.943   5.436 -0.0550  0.1101  0.0112
 1153POPI   GL117419  14.957  17.068   5.832 -0.1804 -0.1331 -0.1493
 1153POPI   GL217420  14.674  17.223   5.825 -0.3344 -0.2391  0.0325
 1153POPI   C1A17421  15.344  16.998   6.090  0.0268  0.0627 -0.5012
 1153POPI   D2A17422  15.807  16.922   6.209 -0.2887 -0.3420 -0.0221
 1153POPI   C3A17423  15.890  16.912   6.653  0.2605  0.2580  0.1891
 1153POPI   C4A17424  15.932  16.929   7.097 -0.0845  0.1297 -0.0763
 1153POPI   C1B17425  14.730  17.506   6.148  0.4911 -0.1408 -0.0360
 1153POPI   C2B17426  14.662  17.466   6.596 -0.0893  0.0035 -0.0347
 1153POPI   C3B17427  14.481  17.570   6.977  0.1079  0.2607 -0.0745
 1153POPI   C4B17428  14.460  17.679   7.395  0.3872  0.3114  0.0272
 1154POPI    C117429  11.608   0.460   5.238 -0.3070 -0.0442  0.1404
 1154POPI    C217430  11.513   0.510   4.853 -0.0777 -0.0838  0.0774
 1154POPI    C317431  11.608   0.146   4.989  0.2160 -0.0082  0.0828
 1154POPI   PO417432  11.410   0.573   5.431 -0.1220 -0.1385  0.2940
 1154POPI   GL117433  11.515   0.807   5.696  0.1161  0.3202  0.0117
 1154POPI   GL217434  11.735   0.589   5.867 -0.0664  0.0011 -0.2566
 1154POPI   C1A17435  11.287   0.889   6.057  0.0208 -0.1369  0.0573
 1154POPI   D2A17436  11.128   1.241   6.312 -0.1788  0.0135  0.1403
 1154POPI   C3A17437  11.204   1.211   6.780  0.0701  0.5195  0.2387
 1154POPI   C4A17438  11.127   1.378   7.078  0.2662  0.2819 -0.0723
 1154POPI   C1B17439  11.651   0.304   6.251 -0.1008 -0.1169  0.1416
 1154POPI   C2B17440  11.609   0.244   6.671  0.0687  0.2190 -0.0593
 1154POPI   C3B17441  11.610  -0.129   7.022  0.1751  0.0158 -0.0316
 1154POPI   C4B17442  11.530  -0.598   7.020  0.1819  0.2572 -0.0952
 1155POPI    C117443  16.626  10.209   5.495  0.0498  0.2253 -0.1048
 1155POPI    C217444  16.504  10.001   5.176  0.2021 -0.0453  0.0093
 1155POPI    C317445  16.862   9.926   5.338  0.1019  0.0491  0.2797
 1155POPI   PO417446  16.501  10.337   5.596  0.0866 -0.1431  0.2022
 1155POPI   GL117447  16.332  10.548   5.937  0.1904  0.0968  0.4523
 1155POPI   GL217448  16.581  10.730   6.004  0.1186 -0.2042  0.0116
 1155POPI   C1A17449  16.311  10.489   6.398  0.3732 -0.2926 -0.0128
 1155POPI   D2A17450  16.321  10.289   6.859  0.4108 -0.0053  0.0249
 1155POPI   C3A17451  16.300  10.514   7.223 -0.2854 -0.1559 -0.0416
 1155POPI   C4A17452  16.476  10.796   7.455 -0.1525  0.0799  0.1091
 1155POPI   C1B17453  16.748  10.812   6.338 -0.0172  0.3054 -0.0915
 1155POPI   C2B17454  16.707  10.670   6.727  0.1420 -0.0313 -0.2572
 1155POPI   C3B17455  16.793  10.767   7.093  0.0496  0.0226  0.0481
 1155POPI   C4B17456  16.963  10.976   7.363 -0.0899  0.2767 -0.1829
 1156POPI    C117457  10.290   8.907   5.097  0.1121  0.1211 -0.0463
 1156POPI    C217458  10.130   8.683   4.807  0.0536  0.1333 -0.0235
 1156POPI    C317459  10.252   9.056   4.728  0.2526  0.0557 -0.0877
 1156POPI   PO417460  10.197   8.936   5.318 -0.2372  0.0567  0.2100
 1156POPI   GL117461  10.273   8.705   5.631 -0.2406 -0.2450 -0.1338
 1156POPI   GL217462  10.180   8.555   5.873  0.2084  0.1366 -0.2662
 1156POPI   C1A17463  10.652   8.592   5.908  0.0238  0.1181 -0.1606
 1156POPI   D2A17464  10.885   8.303   6.285 -0.2015  0.0473 -0.0898
 1156POPI   C3A17465  10.824   8.223   6.721 -0.1185 -0.0133  0.0590
 1156POPI   C4A17466  11.020   8.218   7.089  0.2544  0.2999  0.0829
 1156POPI   C1B17467  10.050   8.590   6.274  0.1234  0.1843  0.1914
 1156POPI   C2B17468   9.786   8.631   6.553  0.1601  0.1392 -0.1182
 1156POPI   C3B17469   9.613   8.741   6.994 -0.3694  0.0946  0.1699
 1156POPI   C4B17470   9.416   9.067   7.195 -0.0590  0.0522  0.2956
 1157POPI    C117471   4.099   9.190   5.184  0.1370  0.1556 -0.1107
 1157POPI    C217472   4.017   8.873   4.954 -0.1363  0.0403  0.1389
 1157POPI    C317473   4.397   8.975   5.025 -0.0454 -0.2255  0.0485
 1157POPI   PO417474   3.976   9.089   5.402  0.0003  0.1433 -0.1224
 1157POPI   GL117475   4.172   9.099   5.778 -0.1172 -0.3311 -0.1983
 1157POPI   GL217476   4.191   9.320   6.065 -0.3400  0.0680 -0.0952
 1157POPI   C1A17477   4.172   8.679   6.047 -0.1088  0.0720 -0.0745
 1157POPI   D2A17478   4.367   8.501   6.436 -0.3143  0.0781  0.1073
 1157POPI   C3A17479   4.751   8.314   6.422  0.1365  0.2316  0.0334
 1157POPI   C4A17480   5.076   7.989   6.307 -0.0426  0.1337  0.0501
 1157POPI   C1B17481   4.246   9.325   6.517  0.5430 -0.0172 -0.1119
 1157POPI   C2B17482   4.369   9.280   6.880  0.1538 -0.2981 -0.2806
 1157POPI   C3B17483   4.350   9.368   7.304 -0.1041  0.5186  0.1572
 1157POPI   C4B17484   4.123   9.109   7.587 -0.3023  0.2693 -0.1286
 1158POPI    C117485   4.016   6.341   4.770 -0.0787 -0.2320 -0.0183
 1158POPI    C217486   4.281   6.612   4.643 -0.2088 -0.0415  0.1123
 1158POPI    C317487   4.392   6.231   4.690  0.0691  0.0549  0.2589
 1158POPI   PO417488   3.936   6.424   5.003 -0.1006 -0.0875 -0.1750
 1158POPI   GL117489   3.946   6.451   5.410  0.2938  0.1365  0.0053
 1158POPI   GL217490   3.750   6.666   5.626 -0.1192 -0.1267 -0.2652
 1158POPI   C1A17491   4.246   6.372   5.733 -0.0292 -0.0451  0.4576
 1158POPI   D2A17492   4.184   6.222   6.094  0.0655  0.0148  0.0397
 1158POPI   C3A17493   3.937   6.324   6.388  0.4397 -0.3106 -0.0707
 1158POPI   C4A17494   3.632   6.614   6.466  0.0738 -0.0633  0.2651
 1158POPI   C1B17495   3.728   6.363   5.902  0.0098  0.1055 -0.0360
 1158POPI   C2B17496   3.699   5.964   6.172  0.1331 -0.2581 -0.2087
 1158POPI   C3B17497   3.625   5.845   6.555 -0.0890 -0.0616 -0.0116
 1158POPI   C4B17498   3.776   5.775   7.017  0.0196  0.1091 -0.4081
 1159POPI    C117499   1.553   5.047   4.608 -0.0580  0.0326  0.0441
 1159POPI    C217500   1.929   4.914   4.631  0.0424  0.2519 -0.2506
 1159POPI    C317501   1.626   4.654   4.606  0.1777  0.0752 -0.0916
 1159POPI   PO417502   1.549   5.184   4.787 -0.0625  0.1184  0.0652
 1159POPI   GL117503   1.537   5.434   5.155  0.1127  0.0150  0.2116
 1159POPI   GL217504   1.582   5.183   5.317 -0.1070 -0.1686 -0.0404
 1159POPI   C1A17505   1.358   5.737   5.528 -0.1765 -0.1918  0.3611
 1159POPI   D2A17506   1.281   5.747   5.921 -0.1200 -0.1244 -0.0175
 1159POPI   C3A17507   1.360   5.810   6.266  0.1174 -0.1456  0.1774
 1159POPI   C4A17508   1.242   5.936   6.663  0.0942  0.1357  0.1073
 1159POPI   C1B17509   1.701   5.431   5.667 -0.2062  0.3979 -0.0972
 1159POPI   C2B17510   1.750   5.532   5.995  0.3048 -0.2476  0.2397
 1159POPI   C3B17511   1.762   5.534   6.429  0.2106 -0.1424 -0.1779
 1159POPI   C4B17512   1.734   5.516   6.825 -0.2314  0.0513  0.1647
 1160POPI    C117513  14.455   5.749   5.214 -0.1045 -0.0693  0.0718
 1160POPI    C217514  14.484   5.352   5.253  0.3032 -0.0952 -0.3894
 1160POPI    C317515  14.812   5.571   5.189  0.0676  0.3064 -0.2630
 1160POPI   PO417516  14.165   5.744   5.374  0.1874 -0.0118  0.3006
 1160POPI   GL117517  14.055   5.839   5.798  0.1375 -0.0062 -0.3617
 1160POPI   GL217518  13.764   5.723   5.862 -0.0490 -0.0628 -0.1163
 1160POPI   C1A17519  14.191   5.733   6.226 -0.1912 -0.0826  0.0169
 1160POPI   D2A17520  14.542   5.510   6.433 -0.0893  0.2565  0.1881
 1160POPI   C3A17521  14.491   5.085   6.660 -0.3011 -0.4187  0.0653
 1160POPI   C4A17522  14.634   4.938   7.044 -0.0001 -0.0227 -0.1450
 1160POPI   C1B17523  13.344   5.768   6.104 -0.3562 -0.0520  0.3332
 1160POPI   C2B17524  13.152   5.699   6.469 -0.3009 -0.0349 -0.0790
 1160POPI   C3B17525  13.087   5.611   6.958 -0.0778  0.0370  0.1340
 1160POPI   C4B17526  12.878   5.393   7.190 -0.0423  0.0793 -0.0342
 1161POPI    C117527  11.525   3.530   5.219  0.0073 -0.1894  0.0227
 1161POPI    C217528  11.746   3.847   5.321 -0.1440 -0.0934  0.0564
 1161POPI    C317529  11.597   3.818   4.951 -0.4409  0.0614  0.1609
 1161POPI   PO417530  11.256   3.448   5.442 -0.1989  0.0520  0.0801
 1161POPI   GL117531  11.196   3.501   5.844 -0.1922  0.1524 -0.0458
 1161POPI   GL217532  11.537   3.472   6.053 -0.1543  0.0266 -0.0028
 1161POPI   C1A17533  10.971   3.544   6.191 -0.2187 -0.1051  0.1884
 1161POPI   D2A17534  10.904   3.637   6.546 -0.1419  0.0518 -0.0827
 1161POPI   C3A17535  10.961   3.514   7.046 -0.1135 -0.0661 -0.0256
 1161POPI   C4A17536  11.082   3.478   7.488 -0.1490  0.1682  0.0603
 1161POPI   C1B17537  11.651   3.619   6.516  0.0002 -0.0602 -0.0618
 1161POPI   C2B17538  11.490   3.656   6.956  0.0808 -0.0284 -0.0324
 1161POPI   C3B17539  11.387   3.877   7.386  0.2331 -0.1092 -0.0910
 1161POPI   C4B17540  11.466   4.228   7.641  0.0324  0.2115  0.0121
 1162POPI    C117541  15.102  12.618   5.395 -0.2543  0.0404  0.1644
 1162POPI    C217542  15.416  12.379   5.460 -0.0332  0.2572 -0.0839
 1162POPI    C317543  15.198  12.336   5.128 -0.1045  0.2813 -0.0404
 1162POPI   PO417544  15.218  12.870   5.583 -0.0633 -0.1389 -0.2746
 1162POPI   GL117545  15.071  13.127   5.952  0.0186  0.0160 -0.0760
 1162POPI   GL217546  15.196  13.488   5.749 -0.3836  0.1874 -0.0109
 1162POPI   C1A17547  15.041  12.822   6.266 -0.1156 -0.2376  0.2379
 1162POPI   D2A17548  14.919  12.747   6.659 -0.0925  0.1631 -0.0766
 1162POPI   C3A17549  15.169  12.569   6.983  0.4601  0.0896  0.1431
 1162POPI   C4A17550  15.113  12.502   7.385 -0.2680  0.2201 -0.1222
 1162POPI   C1B17551  15.290  13.453   6.237 -0.0240 -0.1653  0.0177
 1162POPI   C2B17552  15.259  13.472   6.656 -0.0603 -0.2929  0.0431
 1162POPI   C3B17553  15.206  13.433   7.107  0.0178  0.0016  0.0948
 1162POPI   C4B17554  15.024  13.307   7.570  0.0761 -0.2626 -0.0753
 1163POPI    C117555   3.070   7.401   4.712  0.0631 -0.0902  0.2674
 1163POPI    C217556   2.718   7.214   4.749  0.0481 -0.0937  0.1106
 1163POPI    C317557   2.730   7.605   4.665  0.0809 -0.1448 -0.1316
 1163POPI   PO417558   3.219   7.273   4.969  0.1169  0.0365  0.2233
 1163POPI   GL117559   3.272   7.375   5.473  0.1294 -0.0784 -0.2773
 1163POPI   GL217560   3.363   7.739   5.653  0.0607 -0.0858 -0.2404
 1163POPI   C1A17561   3.376   7.244   5.868  0.0775  0.2262  0.1618
 1163POPI   D2A17562   3.412   7.438   6.236 -0.2951 -0.2614 -0.0591
 1163POPI   C3A17563   3.381   7.148   6.423 -0.0522 -0.1561 -0.2214
 1163POPI   C4A17564   3.180   6.805   6.760  0.0573  0.1841  0.2637
 1163POPI   C1B17565   3.030   7.626   5.918  0.0906 -0.0109  0.1130
 1163POPI   C2B17566   2.935   7.469   6.190 -0.0370 -0.1103 -0.1632
 1163POPI   C3B17567   2.695   7.277   6.590  0.0110 -0.3152  0.3521
 1163POPI   C4B17568   2.479   7.281   7.034  0.1352  0.0944 -0.2971
 1164POPI    C117569   3.851  14.657   5.138 -0.0690  0.3638  0.0201
 1164POPI    C217570   4.231  14.610   5.024  0.0011  0.1749  0.3208
 1164POPI    C317571   3.965  14.769   4.771  0.2134  0.0346  0.0025
 1164POPI   PO417572   3.782  14.531   5.431 -0.0675  0.0882 -0.0081
 1164POPI   GL117573   3.923  14.676   5.735 -0.2715 -0.0016 -0.0369
 1164POPI   GL217574   4.045  15.013   5.743 -0.0126  0.1231 -0.1269
 1164POPI   C1A17575   3.828  14.557   6.131 -0.3084  0.2425  0.1077
 1164POPI   D2A17576   3.477  14.662   6.325  0.1373 -0.2895  0.1273
 1164POPI   C3A17577   3.154  14.403   6.308 -0.1114  0.0587  0.2505
 1164POPI   C4A17578   2.756  14.370   6.131  0.2876  0.1359  0.1544
 1164POPI   C1B17579   4.168  14.961   6.095 -0.0892  0.1131  0.2239
 1164POPI   C2B17580   3.931  14.826   6.532 -0.1239  0.0154  0.0174
 1164POPI   C3B17581   3.704  15.116   6.850  0.0288  0.0564 -0.0001
 1164POPI   C4B17582   3.674  15.274   7.267  0.0342 -0.0076 -0.0863
 1165POPI    C117583   7.584   9.426   5.269 -0.1259  0.2460 -0.1700
 1165POPI    C217584   7.661   9.525   4.889  0.4842 -0.1940 -0.1756
 1165POPI    C317585   7.469   9.183   4.972 -0.0414  0.1101 -0.0923
 1165POPI   PO417586   7.560   9.535   5.439 -0.0566  0.1188 -0.0817
 1165POPI   GL117587   7.225   9.470   5.775 -0.1779  0.0098  0.1168
 1165POPI   GL217588   7.054   9.192   5.903 -0.3468 -0.1132 -0.4412
 1165POPI   C1A17589   7.368   9.788   6.016  0.3633  0.0825 -0.2606
 1165POPI   D2A17590   7.441   9.942   6.337 -0.0075 -0.0685 -0.1399
 1165POPI   C3A17591   7.484  10.026   6.744 -0.2289  0.0227 -0.0474
 1165POPI   C4A17592   7.555   9.990   7.153 -0.2354  0.0160  0.2831
 1165POPI   C1B17593   7.034   9.030   6.349  0.1408 -0.0180  0.1346
 1165POPI   C2B17594   7.122   9.100   6.670  0.0067 -0.0303  0.1669
 1165POPI   C3B17595   6.988   9.119   7.043  0.2474  0.1515  0.0504
 1165POPI   C4B17596   6.670   8.998   7.363  0.1312  0.1614  0.0778
 1166POPI    C117597   5.810   0.667   5.617 -0.0040 -0.0065 -0.0628
 1166POPI    C217598   5.791   0.330   5.402  0.2439 -0.0341 -0.0450
 1166POPI    C317599   5.463   0.552   5.456  0.0920 -0.2405 -0.1074
 1166POPI   PO417600   5.915   0.600   5.794 -0.0725  0.0008  0.0083
 1166POPI   GL117601   5.951   0.758   6.193 -0.0252 -0.1174  0.2925
 1166POPI   GL217602   5.910   1.032   6.180 -0.1478  0.1727  0.3493
 1166POPI   C1A17603   5.818   0.826   6.675  0.0110  0.0790 -0.2746
 1166POPI   D2A17604   5.590   0.526   6.975  0.3552  0.1782 -0.0393
 1166POPI   C3A17605   5.588   0.517   7.434  0.1059  0.1666 -0.0352
 1166POPI   C4A17606   5.389   0.709   7.789  0.0755 -0.0877  0.1616
 1166POPI   C1B17607   6.174   1.403   6.337 -0.2845  0.0736 -0.0917
 1166POPI   C2B17608   6.576   1.528   6.698  0.0761  0.2526  0.2373
 1166POPI   C3B17609   6.678   1.266   7.165 -0.0841 -0.3837 -0.0344
 1166POPI   C4B17610   6.764   1.241   7.589  0.3274  0.0759  0.1555
 1167POPI    C117611   0.989   1.172   5.268  0.1648 -0.1572  0.0178
 1167POPI    C217612   0.948   1.567   5.215 -0.3018 -0.1978  0.0294
 1167POPI    C317613   0.851   1.314   4.920  0.3479 -0.2986 -0.1148
 1167POPI   PO417614   0.939   1.127   5.509 -0.1629 -0.1930 -0.0543
 1167POPI   GL117615   1.111   1.076   5.806  0.1950  0.2867 -0.2078
 1167POPI   GL217616   1.188   1.372   5.926 -0.2327  0.3187  0.0002
 1167POPI   C1A17617   0.924   1.006   6.180 -0.1915  0.1167 -0.0711
 1167POPI   D2A17618   0.701   1.091   6.553  0.2010  0.0567 -0.2999
 1167POPI   C3A17619   0.900   0.942   6.892  0.0940  0.1776  0.0342
 1167POPI   C4A17620   0.886   1.011   7.366  0.0662  0.1665 -0.1931
 1167POPI   C1B17621   1.001   1.488   6.328  0.2293  0.1317 -0.0283
 1167POPI   C2B17622   0.977   1.490   6.774  0.1953 -0.4018 -0.1030
 1167POPI   C3B17623   1.006   1.473   7.227  0.2781  0.4281  0.0149
 1167POPI   C4B17624   0.847   1.657   7.620  0.1616  0.0838 -0.1297
 1168POPI    C117625  17.379   6.041   5.173  0.3347 -0.0170 -0.0394
 1168POPI    C217626  17.182   5.812   4.911 -0.2091  0.1363  0.2197
 1168POPI    C317627  17.474   6.055   4.785  0.0611 -0.3479 -0.1227
 1168POPI   PO417628  17.453   5.797   5.370  0.1831 -0.1061  0.0765
 1168POPI   GL117629  17.389   5.629   5.774  0.2980  0.2526  0.0914
 1168POPI   GL217630  17.817   5.597   5.762  0.1326 -0.0575  0.1849
 1168POPI   C1A17631  17.548   5.690   6.220  0.0479 -0.0796 -0.1601
 1168POPI   D2A17632  17.518   5.702   6.559  0.0484 -0.1567  0.0536
 1168POPI   C3A17633  17.849   5.536   6.669  0.0557 -0.1330  0.2969
 1168POPI   C4A17634  17.952   5.735   7.020  0.0299  0.0769  0.0079
 1168POPI   C1B17635  17.983   5.408   6.145  0.0758  0.3263  0.1849
 1168POPI   C2B17636  18.239   5.280   6.443  0.0304  0.1564 -0.0039
 1168POPI   C3B17637  18.134   5.090   6.888 -0.3640  0.1152  0.0107
 1168POPI   C4B17638  17.873   5.289   7.128  0.2619 -0.1053 -0.1000
 1169POPI    C117639   5.934   3.467   5.060 -0.1975  0.0021  0.0927
 1169POPI    C217640   5.768   3.568   4.711 -0.4480 -0.2098  0.1481
 1169POPI    C317641   6.061   3.793   4.865 -0.0709 -0.3207 -0.3798
 1169POPI   PO417642   5.745   3.422   5.244  0.2874  0.2948 -0.1128
 1169POPI   GL117643   5.647   3.432   5.660 -0.2575  0.0552  0.3169
 1169POPI   GL217644   5.499   3.727   5.561  0.2554 -0.0964 -0.4078
 1169POPI   C1A17645   5.601   3.307   6.177  0.0330  0.4127  0.2474
 1169POPI   D2A17646   5.689   3.248   6.684 -0.0054 -0.0477 -0.1578
 1169POPI   C3A17647   5.747   2.820   6.794 -0.0378  0.2194  0.0057
 1169POPI   C4A17648   5.536   2.459   6.892 -0.0640  0.0218 -0.0091
 1169POPI   C1B17649   5.564   3.893   6.042  0.1053 -0.3005 -0.0509
 1169POPI   C2B17650   5.275   3.853   6.406 -0.5127 -0.0642 -0.0950
 1169POPI   C3B17651   5.175   3.920   6.796  0.3448  0.0536  0.0392
 1169POPI   C4B17652   5.095   4.262   7.080  0.1241 -0.0340  0.1119
 1170POPI    C117653   0.078   5.572   4.928  0.0551 -0.0845 -0.1717
 1170POPI    C217654   0.367   5.845   4.971 -0.0526  0.0334 -0.1906
 1170POPI    C317655   0.364   5.606   4.650  0.0128  0.0449 -0.2001
 1170POPI   PO417656  -0.070   5.655   5.193 -0.1262 -0.0968  0.0718
 1170POPI   GL117657  -0.171   5.933   5.431  0.0255  0.3036 -0.0126
 1170POPI   GL217658  -0.028   6.150   5.637  0.2202 -0.2481 -0.2052
 1170POPI   C1A17659  -0.381   5.841   5.855  0.0213  0.1168  0.0720
 1170POPI   D2A17660  -0.355   5.865   6.308 -0.0469  0.2641 -0.0986
 1170POPI   C3A17661  -0.260   5.639   6.752  0.2704  0.1640 -0.0690
 1170POPI   C4A17662  -0.190   5.429   7.146 -0.1194  0.0761  0.3358
 1170POPI   C1B17663   0.042   6.116   6.120 -0.1317 -0.1863 -0.2452
 1170POPI   C2B17664   0.019   6.074   6.658 -0.1629  0.0252  0.0249
 1170POPI   C3B17665   0.109   5.857   7.026  0.0131 -0.1248 -0.0407
 1170POPI   C4B17666   0.093   5.774   7.375 -0.1626 -0.0799 -0.0526
 1171POPI    C117667   2.991  10.966   5.082  0.1012 -0.0224  0.0120
 1171POPI    C217668   3.274  11.192   5.251  0.3695 -0.3016 -0.0551
 1171POPI    C317669   3.066  11.332   4.940  0.1948  0.0354  0.2070
 1171POPI   PO417670   2.968  10.809   5.312  0.1324 -0.1367 -0.0888
 1171POPI   GL117671   3.114  10.919   5.636 -0.0786  0.2033 -0.2535
 1171POPI   GL217672   2.986  10.609   5.816  0.1033 -0.1045 -0.0563
 1171POPI   C1A17673   3.203  11.146   6.057  0.2037  0.2418 -0.2483
 1171POPI   D2A17674   3.448  11.224   6.342  0.1485 -0.0897  0.0266
 1171POPI   C3A17675   3.877  11.200   6.211  0.1843  0.1586 -0.0021
 1171POPI   C4A17676   4.287  11.337   6.252  0.0325  0.3356 -0.1970
 1171POPI   C1B17677   3.141  10.430   6.176  0.0627 -0.0909 -0.0383
 1171POPI   C2B17678   3.249  10.359   6.590 -0.2202 -0.1063  0.3066
 1171POPI   C3B17679   3.517  10.611   6.889  0.3866  0.1014 -0.0741
 1171POPI   C4B17680   3.526  10.648   7.297 -0.2116 -0.0508  0.0055
 1172POPI    C117681   8.933   5.332   5.140 -0.2369  0.2293 -0.1412
 1172POPI    C217682   8.892   5.029   4.882  0.1569 -0.0383  0.1005
 1172POPI    C317683   9.189   5.293   4.836  0.1203  0.0171  0.1789
 1172POPI   PO417684   8.931   5.221   5.338 -0.0520  0.1705  0.2851
 1172POPI   GL117685   8.596   5.186   5.633  0.1322  0.1373  0.1653
 1172POPI   GL217686   8.499   5.365   5.940 -0.1647 -0.0328 -0.0221
 1172POPI   C1A17687   8.714   4.932   5.955 -0.2924  0.0436 -0.1480
 1172POPI   D2A17688   8.682   4.960   6.411  0.0375 -0.1230 -0.0050
 1172POPI   C3A17689   8.591   4.982   6.794 -0.0081 -0.1995 -0.0191
 1172POPI   C4A17690   8.558   5.058   7.258  0.0080  0.3742  0.2311
 1172POPI   C1B17691   8.494   5.486   6.341 -0.0507  0.2273  0.3706
 1172POPI   C2B17692   8.379   5.449   6.869 -0.0167  0.2027  0.2187
 1172POPI   C3B17693   8.291   5.465   7.152 -0.0233  0.0994 -0.2877
 1172POPI   C4B17694   7.951   5.447   7.456 -0.3579 -0.0952 -0.1074
 1173POPI    C117695  14.301   8.909   5.267  0.1094 -0.2880 -0.1928
 1173POPI    C217696  14.113   9.084   4.960 -0.0178  0.3768  0.2423
 1173POPI    C317697  14.513   9.093   4.982 -0.0004  0.1984  0.0284
 1173POPI   PO417698  14.185   8.963   5.421  0.0381 -0.3491  0.0424
 1173POPI   GL117699  14.269   9.045   5.760  0.1758  0.1645  0.1174
 1173POPI   GL217700  14.310   9.400   5.808  0.1281 -0.1199 -0.1588
 1173POPI   C1A17701  14.375   8.717   6.009 -0.0950 -0.1004  0.0624
 1173POPI   D2A17702  14.292   8.365   6.235  0.1027 -0.2864 -0.0261
 1173POPI   C3A17703  14.148   8.366   6.585 -0.2040 -0.0207 -0.2025
 1173POPI   C4A17704  14.119   8.316   6.970  0.3620  0.3026 -0.2303
 1173POPI   C1B17705  14.498   9.151   6.172  0.0494  0.0221  0.0543
 1173POPI   C2B17706  14.695   8.874   6.496  0.3842  0.0954 -0.0988
 1173POPI   C3B17707  14.554   8.573   6.813 -0.0829 -0.4127 -0.0154
 1173POPI   C4B17708  14.797   8.361   7.123  0.1429  0.3587  0.2452
 1174POPI    C117709  14.589  10.630   5.349  0.1583  0.1343 -0.2584
 1174POPI    C217710  14.408  10.328   5.538  0.1498  0.1880 -0.1802
 1174POPI    C317711  14.238  10.690   5.532  0.1282  0.1759 -0.3293
 1174POPI   PO417712  14.886  10.526   5.456 -0.1595  0.1393 -0.1435
 1174POPI   GL117713  14.837  10.444   5.851 -0.2441 -0.0724  0.0060
 1174POPI   GL217714  14.751  10.135   5.822 -0.2796 -0.0959  0.0447
 1174POPI   C1A17715  14.687  10.403   6.279  0.0130  0.1364  0.1135
 1174POPI   D2A17716  14.490  10.298   6.662 -0.2904 -0.2672  0.1539
 1174POPI   C3A17717  14.155  10.207   6.577  0.1769  0.1215 -0.4606
 1174POPI   C4A17718  13.952  10.056   6.962 -0.3225  0.1139 -0.0599
 1174POPI   C1B17719  14.390   9.999   6.016 -0.0406 -0.2989  0.0657
 1174POPI   C2B17720  14.305   9.664   6.286 -0.0595 -0.0861  0.3526
 1174POPI   C3B17721  14.373   9.753   6.710 -0.1260  0.1422  0.0443
 1174POPI   C4B17722  14.302   9.544   7.054  0.1200 -0.1138 -0.0208
 1175POPI    C117723  14.147   1.448   5.214 -0.1162 -0.5693 -0.2323
 1175POPI    C217724  14.269   1.275   5.553 -0.0897 -0.2406 -0.0703
 1175POPI    C317725  14.387   1.128   5.200  0.1574 -0.3836  0.0689
 1175POPI   PO417726  13.937   1.591   5.326  0.0302  0.4323 -0.1212
 1175POPI   GL117727  13.770   1.581   5.669 -0.0146  0.0485  0.1151
 1175POPI   GL217728  13.834   1.848   5.921  0.0269  0.1104 -0.0812
 1175POPI   C1A17729  13.960   1.350   5.964 -0.0794  0.2595 -0.3944
 1175POPI   D2A17730  13.940   1.494   6.372  0.1177  0.0909  0.1417
 1175POPI   C3A17731  13.618   1.502   6.735  0.0833  0.0545 -0.0951
 1175POPI   C4A17732  13.600   1.477   7.176  0.2427  0.1269 -0.0297
 1175POPI   C1B17733  13.748   1.934   6.421 -0.1042  0.0771  0.0410
 1175POPI   C2B17734  13.788   1.928   6.941 -0.0788  0.0313 -0.0262
 1175POPI   C3B17735  13.889   1.968   7.358  0.3804  0.3871 -0.0023
 1175POPI   C4B17736  14.146   1.687   7.551  0.2946  0.2945 -0.6125
 1176POPI    C117737   7.165  15.575   5.491 -0.1839 -0.0130  0.0035
 1176POPI    C217738   6.962  15.743   5.792 -0.1091  0.0176  0.0371
 1176POPI    C317739   6.807  15.740   5.423 -0.2007 -0.0195  0.0755
 1176POPI   PO417740   7.462  15.587   5.606 -0.1284 -0.2273  0.1585
 1176POPI   GL117741   7.558  15.716   6.050 -0.1773 -0.0964 -0.1526
 1176POPI   GL217742   7.320  15.557   6.243  0.0419 -0.1605 -0.1791
 1176POPI   C1A17743   7.698  16.035   6.318 -0.0190  0.0861 -0.0137
 1176POPI   D2A17744   7.916  16.048   6.647 -0.1704 -0.1656 -0.0245
 1176POPI   C3A17745   7.957  15.743   6.939 -0.2915  0.2547  0.0669
 1176POPI   C4A17746   8.144  15.567   7.255 -0.6276  0.0469 -0.1632
 1176POPI   C1B17747   7.122  15.936   6.337  0.0057  0.1555 -0.2400
 1176POPI   C2B17748   7.052  16.052   6.718 -0.0788 -0.2642  0.0157
 1176POPI   C3B17749   7.039  16.046   7.126  0.0682 -0.2721 -0.4360
 1176POPI   C4B17750   6.777  16.098   7.377  0.2959  0.0377 -0.1599
 1177POPI    C117751  10.475   7.477   5.071  0.0324  0.2691 -0.0608
 1177POPI    C217752  10.260   7.776   5.228 -0.1579  0.1283 -0.0508
 1177POPI    C317753  10.274   7.727   4.832 -0.3081  0.0191 -0.0439
 1177POPI   PO417754  10.653   7.514   5.234  0.0449  0.0097  0.2982
 1177POPI   GL117755  10.558   7.532   5.600  0.2406 -0.3493 -0.2104
 1177POPI   GL217756  10.875   7.349   5.623  0.1964  0.2393 -0.0551
 1177POPI   C1A17757  10.421   7.664   6.052  0.1523 -0.0227  0.4284
 1177POPI   D2A17758  10.432   7.641   6.544  0.0782 -0.1155  0.1710
 1177POPI   C3A17759  10.530   7.916   6.939 -0.1230  0.2412  0.0047
 1177POPI   C4A17760  10.704   7.975   7.400  0.1992  0.4487  0.4462
 1177POPI   C1B17761  10.810   7.342   5.988 -0.0413 -0.1093  0.2157
 1177POPI   C2B17762  10.787   7.322   6.519  0.0299  0.4334  0.3016
 1177POPI   C3B17763  10.809   7.237   6.938  0.3752 -0.1665  0.1821
 1177POPI   C4B17764  10.842   7.346   7.394 -0.1372  0.0059  0.0524
 1178POPI    C117765  10.947  11.898   4.739  0.1565 -0.0288 -0.0616
 1178POPI    C217766  10.644  12.159   4.708 -0.0355 -0.2284  0.1028
 1178POPI    C317767  10.623  11.804   4.524  0.1379 -0.2090  0.0432
 1178POPI   PO417768  10.985  11.849   4.908 -0.2779  0.3450 -0.0305
 1178POPI   GL117769  11.315  12.074   5.142  0.3062  0.0298  0.0328
 1178POPI   GL217770  11.163  11.955   5.503  0.2707 -0.0212  0.2955
 1178POPI   C1A17771  11.626  11.759   5.521  0.3022  0.2841 -0.0915
 1178POPI   D2A17772  12.011  11.861   5.683  0.2424 -0.0271  0.0877
 1178POPI   C3A17773  12.020  11.898   6.093  0.0023  0.0566  0.0012
 1178POPI   C4A17774  12.016  11.839   6.528  0.0963 -0.0904 -0.3311
 1178POPI   C1B17775  10.837  12.174   5.670  0.3387 -0.0706 -0.1768
 1178POPI   C2B17776  10.873  12.215   6.075  0.1634  0.0328 -0.1258
 1178POPI   C3B17777  10.997  12.086   6.490 -0.0119  0.0909 -0.3299
 1178POPI   C4B17778  10.926  12.012   6.848 -0.3127 -0.2008  0.2188
 1179POPI    C117779   5.838  16.513   5.810 -0.0654  0.0359 -0.0634
 1179POPI    C217780   5.994  16.306   5.506 -0.0872  0.0329 -0.0726
 1179POPI    C317781   5.645  16.195   5.665 -0.0296 -0.0224  0.0164
 1179POPI   PO417782   5.763  16.837   5.683  0.1014  0.0853 -0.1161
 1179POPI   GL117783   5.792  17.143   5.889 -0.1850 -0.0388  0.0618
 1179POPI   GL217784   5.970  17.296   5.948 -0.1950  0.0432 -0.2453
 1179POPI   C1A17785   5.650  17.098   6.282 -0.0681  0.3075 -0.0057
 1179POPI   D2A17786   5.539  17.014   6.686  0.4581  0.3474  0.1465
 1179POPI   C3A17787   5.778  16.997   7.118  0.0338 -0.1733  0.3697
 1179POPI   C4A17788   6.126  17.036   7.287 -0.1467 -0.2272 -0.1542
 1179POPI   C1B17789   6.206  17.393   6.310  0.0782  0.1359  0.2594
 1179POPI   C2B17790   6.095  17.691   6.527  0.1137 -0.6379  0.0647
 1179POPI   C3B17791   6.040  17.944   6.738  0.1136  0.1584 -0.0703
 1179POPI   C4B17792   5.846  17.869   7.102 -0.0326  0.1466 -0.1653
 1180POPI    C117793   8.477  15.382   5.584  0.0608 -0.0873 -0.0335
 1180POPI    C217794   8.278  15.654   5.369 -0.0865 -0.0502  0.1477
 1180POPI    C317795   8.636  15.526   5.246 -0.2334 -0.1405 -0.1979
 1180POPI   PO417796   8.419  15.467   5.832  0.2022  0.1004  0.2860
 1180POPI   GL117797   8.613  15.544   6.136  0.2573  0.0841 -0.0259
 1180POPI   GL217798   8.873  15.374   6.255 -0.1367 -0.0144 -0.1935
 1180POPI   C1A17799   8.690  15.838   6.432  0.0040  0.2303  0.0291
 1180POPI   D2A17800   8.389  16.035   6.665 -0.0631 -0.2775 -0.0442
 1180POPI   C3A17801   8.348  16.036   7.164  0.0330 -0.3616 -0.0181
 1180POPI   C4A17802   8.075  16.074   7.536 -0.0626 -0.0907  0.1885
 1180POPI   C1B17803   8.755  15.271   6.656  0.1699  0.3529 -0.3569
 1180POPI   C2B17804   8.763  15.259   7.053  0.0512  0.4966  0.2498
 1180POPI   C3B17805   8.891  15.326   7.400 -0.0990  0.0251  0.3595
 1180POPI   C4B17806   8.844  14.830   7.709 -0.0528  0.0990 -0.1531
 1181POPI    C117807   5.160   8.461   4.947 -0.2940 -0.2541  0.0473
 1181POPI    C217808   5.219   8.473   4.552  0.1788 -0.1570  0.1144
 1181POPI    C317809   4.975   8.198   4.709  0.1384 -0.3215 -0.2265
 1181POPI   PO417810   5.421   8.409   5.058 -0.2048 -0.0273  0.0494
 1181POPI   GL117811   5.578   8.088   5.302 -0.1084 -0.1203  0.0279
 1181POPI   GL217812   5.823   8.151   5.536 -0.2200 -0.3126 -0.1988
 1181POPI   C1A17813   5.384   8.183   5.675  0.1013 -0.1999  0.0990
 1181POPI   D2A17814   5.159   8.375   6.082  0.3817  0.0232  0.4518
 1181POPI   C3A17815   5.030   8.744   6.352  0.1262  0.1503 -0.0831
 1181POPI   C4A17816   5.063   8.828   6.744  0.1724 -0.0824  0.1387
 1181POPI   C1B17817   5.753   8.114   5.959  0.0869 -0.1332  0.0571
 1181POPI   C2B17818   5.627   8.016   6.307  0.5018 -0.2073 -0.0654
 1181POPI   C3B17819   5.511   7.596   6.527  0.0671 -0.1899  0.2437
 1181POPI   C4B17820   5.534   7.568   6.917  0.1194  0.0863 -0.0224
 1182POPI    C117821   0.286   7.572   4.786  0.3056  0.0343  0.1332
 1182POPI    C217822   0.628   7.380   4.709  0.1378 -0.2106 -0.0194
 1182POPI    C317823   0.299   7.294   4.499 -0.0647 -0.1118  0.2513
 1182POPI   PO417824   0.378   7.780   4.972  0.1478  0.1695  0.3396
 1182POPI   GL117825   0.424   7.866   5.309  0.2129 -0.1956 -0.0069
 1182POPI   GL217826   0.687   7.842   5.452 -0.2769 -0.1083 -0.1224
 1182POPI   C1A17827   0.309   7.987   5.782 -0.0395 -0.0792  0.0470
 1182POPI   D2A17828   0.270   8.110   6.203 -0.1046  0.0289  0.1912
 1182POPI   C3A17829   0.377   8.249   6.628 -0.2259 -0.2623  0.0373
 1182POPI   C4A17830   0.444   8.342   7.049  0.0457  0.0355  0.1540
 1182POPI   C1B17831   0.524   7.530   5.784  0.1062  0.0114 -0.1100
 1182POPI   C2B17832   0.701   7.303   6.079  0.0125  0.0557 -0.1519
 1182POPI   C3B17833   0.645   7.316   6.555  0.1648  0.1078  0.0226
 1182POPI   C4B17834   0.819   7.242   6.945 -0.2046 -0.0708 -0.3857
 1183POPI    C117835   8.033   9.819   4.929  0.1333  0.0471  0.0259
 1183POPI    C217836   7.766   9.919   4.648  0.0795 -0.1047  0.0221
 1183POPI    C317837   8.086   9.700   4.550  0.2113  0.0840  0.0250
 1183POPI   PO417838   8.099  10.003   5.036 -0.0477  0.0768  0.0354
 1183POPI   GL117839   8.185  10.026   5.555 -0.2244 -0.2592 -0.0555
 1183POPI   GL217840   7.853   9.953   5.570  0.1739 -0.2004 -0.2845
 1183POPI   C1A17841   8.334  10.146   6.014 -0.0460  0.1089  0.0373
 1183POPI   D2A17842   8.392  10.121   6.435  0.2212 -0.0382 -0.2344
 1183POPI   C3A17843   8.470  10.189   6.869  0.0535  0.2871  0.0407
 1183POPI   C4A17844   8.798   9.987   7.093 -0.0211  0.0034 -0.1121
 1183POPI   C1B17845   7.779  10.098   5.927 -0.1222  0.1535 -0.0280
 1183POPI   C2B17846   7.871  10.218   6.360  0.0175 -0.0254  0.4357
 1183POPI   C3B17847   7.987  10.076   6.717  0.2773  0.1902  0.0254
 1183POPI   C4B17848   8.138   9.825   7.016 -0.2418 -0.0602 -0.3007
 1184POPI    C117849   8.701  14.133   5.379  0.0207  0.2192 -0.0101
 1184POPI    C217850   8.404  14.272   5.151 -0.2367 -0.0389  0.1612
 1184POPI    C317851   8.744  14.147   4.981 -0.2805  0.1187 -0.0481
 1184POPI   PO417852   8.538  14.156   5.656 -0.0425  0.2827 -0.0704
 1184POPI   GL117853   8.405  14.381   6.085 -0.1518 -0.0803 -0.0724
 1184POPI   GL217854   8.730  14.462   6.163  0.1297 -0.1234 -0.2111
 1184POPI   C1A17855   8.439  13.962   6.314 -0.2406 -0.0998 -0.1532
 1184POPI   D2A17856   8.590  13.926   6.601 -0.2826  0.3624  0.1145
 1184POPI   C3A17857   8.796  13.790   6.983 -0.2121 -0.1631  0.2992
 1184POPI   C4A17858   9.189  13.509   6.988  0.3312  0.2877  0.0330
 1184POPI   C1B17859   8.883  14.259   6.397  0.2536 -0.0788 -0.0081
 1184POPI   C2B17860   9.069  13.877   6.593  0.2830 -0.0364 -0.0410
 1184POPI   C3B17861   9.274  13.504   6.540 -0.0748  0.2599 -0.0142
 1184POPI   C4B17862   9.246  13.080   6.651  0.1691  0.2311  0.0237
 1185POPI    C117863   3.418  13.144   5.278  0.3520 -0.0465  0.0660
 1185POPI    C217864   3.524  12.947   4.947  0.1506 -0.1913  0.0856
 1185POPI    C317865   3.427  13.334   4.926  0.0930 -0.2117 -0.0329
 1185POPI   PO417866   3.344  12.846   5.458  0.3176 -0.4305  0.2880
 1185POPI   GL117867   3.312  12.741   5.789 -0.2170  0.1365 -0.0874
 1185POPI   GL217868   3.336  12.420   5.823 -0.2460 -0.0138 -0.3298
 1185POPI   C1A17869   3.638  12.640   6.156  0.1262  0.0799  0.0366
 1185POPI   D2A17870   3.487  12.434   6.570  0.1667 -0.2114  0.1286
 1185POPI   C3A17871   3.469  12.578   6.979 -0.0311 -0.1695 -0.1396
 1185POPI   C4A17872   3.297  12.739   7.420 -0.0641 -0.0161 -0.0324
 1185POPI   C1B17873   3.172  12.535   6.219  0.3494 -0.0403  0.0516
 1185POPI   C2B17874   3.171  12.830   6.551 -0.0526 -0.1131  0.1243
 1185POPI   C3B17875   3.338  13.078   6.962  0.1603  0.2066  0.1079
 1185POPI   C4B17876   3.421  13.251   7.328 -0.2973 -0.0412  0.1887
 1186POPI    C117877  12.776  14.914   5.209  0.0689 -0.4166  0.0093
 1186POPI    C217878  12.440  14.981   5.002 -0.0813 -0.2059  0.3133
 1186POPI    C317879  12.750  14.799   4.827 -0.2153 -0.0617 -0.0841
 1186POPI   PO417880  12.748  14.747   5.499  0.0066 -0.1845  0.0141
 1186POPI   GL117881  12.599  14.302   5.813  0.0299 -0.2256  0.0078
 1186POPI   GL217882  12.947  14.358   5.700 -0.0609 -0.2489  0.0170
 1186POPI   C1A17883  12.547  14.224   6.230  0.3478 -0.1861 -0.3778
 1186POPI   D2A17884  12.500  14.101   6.662 -0.2614 -0.0641  0.2549
 1186POPI   C3A17885  12.363  14.267   6.925  0.1644  0.1522  0.0987
 1186POPI   C4A17886  12.195  14.668   7.260  0.0638 -0.2639 -0.2097
 1186POPI   C1B17887  13.045  14.383   6.151 -0.1130 -0.0358  0.2353
 1186POPI   C2B17888  12.991  14.252   6.600  0.1470 -0.0815  0.4441
 1186POPI   C3B17889  13.079  14.325   6.952  0.1008 -0.0241 -0.1990
 1186POPI   C4B17890  13.319  14.124   7.161 -0.0823 -0.1181 -0.1819
 1187POPI    C117891   6.657  17.038   5.558 -0.0693  0.0269  0.2234
 1187POPI    C217892   6.498  17.290   5.824 -0.1834  0.0830  0.1032
 1187POPI    C317893   6.264  17.114   5.552 -0.0484  0.1230 -0.0397
 1187POPI   PO417894   6.890  17.105   5.413  0.1579  0.0818 -0.0095
 1187POPI   GL117895   7.223  17.344   5.687  0.1163  0.0827  0.1350
 1187POPI   GL217896   6.961  17.189   5.948 -0.0028 -0.1664 -0.0285
 1187POPI   C1A17897   7.488  17.296   6.047 -0.0073 -0.0693  0.2695
 1187POPI   D2A17898   7.471  17.298   6.484 -0.0151 -0.0527 -0.0821
 1187POPI   C3A17899   7.435  17.260   7.034  0.1906 -0.0044 -0.1284
 1187POPI   C4A17900   7.484  17.387   7.449  0.1066 -0.1884  0.1488
 1187POPI   C1B17901   6.942  17.405   6.349  0.5174 -0.0573 -0.1341
 1187POPI   C2B17902   6.956  17.359   6.761 -0.1099  0.0379 -0.2550
 1187POPI   C3B17903   7.042  17.581   7.206 -0.2326 -0.1176  0.0591
 1187POPI   C4B17904   6.849  17.706   7.560 -0.1082  0.0526 -0.0675
 1188POPI    C117905  15.937   7.764   5.411 -0.0406  0.1831  0.1912
 1188POPI    C217906  15.602   7.912   5.250  0.0780  0.2501  0.0021
 1188POPI    C317907  15.750   7.564   5.119  0.0562  0.1964  0.1191
 1188POPI   PO417908  15.948   7.813   5.676 -0.3205  0.0708 -0.2864
 1188POPI   GL117909  16.023   8.021   6.029  0.0922 -0.1140  0.1710
 1188POPI   GL217910  15.741   7.696   6.104 -0.0424  0.0073  0.2243
 1188POPI   C1A17911  16.070   7.805   6.435  0.0507 -0.0494 -0.0433
 1188POPI   D2A17912  16.116   7.783   6.846 -0.1430 -0.1184 -0.3949
 1188POPI   C3A17913  16.394   7.599   7.107  0.4030 -0.0078 -0.0367
 1188POPI   C4A17914  16.396   7.183   7.063 -0.0092 -0.3339 -0.0527
 1188POPI   C1B17915  15.649   7.983   6.449 -0.1029  0.2164 -0.3428
 1188POPI   C2B17916  15.610   8.298   6.780 -0.0244  0.2143 -0.3364
 1188POPI   C3B17917  15.841   8.479   7.284  0.1868  0.2174 -0.0097
 1188POPI   C4B17918  15.611   8.512   7.705 -0.0734  0.1116 -0.0595
 1189POPI    C117919  14.053   6.706   5.293  0.0634 -0.0974  0.2228
 1189POPI    C217920  14.371   6.549   5.107  0.1419  0.2382  0.0653
 1189POPI    C317921  14.077   6.716   4.894 -0.2389 -0.2361  0.1985
 1189POPI   PO417922  14.207   6.711   5.514  0.1894  0.0221  0.0688
 1189POPI   GL117923  14.363   6.453   5.783 -0.2394  0.3189  0.2760
 1189POPI   GL217924  14.535   6.608   5.973 -0.1491  0.1215 -0.1447
 1189POPI   C1A17925  14.295   6.197   6.030 -0.0744 -0.0042 -0.1032
 1189POPI   D2A17926  14.202   6.176   6.462  0.3615 -0.2330  0.0145
 1189POPI   C3A17927  14.250   5.799   6.715 -0.0399 -0.0616  0.3454
 1189POPI   C4A17928  14.580   5.562   6.984  0.0973  0.1612 -0.0910
 1189POPI   C1B17929  14.426   6.606   6.324  0.0819  0.1083  0.1624
 1189POPI   C2B17930  14.370   6.667   6.636 -0.2288  0.0865  0.0398
 1189POPI   C3B17931  14.359   6.469   6.989  0.0313 -0.1058  0.3410
 1189POPI   C4B17932  14.212   6.339   7.388 -0.0517 -0.0142  0.2364
 1190POPI    C117933  15.033   3.808   4.959  0.1131 -0.0180  0.0232
 1190POPI    C217934  14.656   3.707   5.048  0.0932  0.0226 -0.0141
 1190POPI    C317935  14.733   3.922   4.720  0.1530 -0.0191 -0.0276
 1190POPI   PO417936  15.138   3.896   5.178  0.2547  0.0307 -0.3381
 1190POPI   GL117937  15.218   3.768   5.612  0.0532 -0.0894 -0.2562
 1190POPI   GL217938  15.006   3.980   5.725 -0.0521 -0.3223  0.2848
 1190POPI   C1A17939  15.419   3.844   6.058  0.0678 -0.0160  0.1845
 1190POPI   D2A17940  15.332   3.953   6.504  0.0496 -0.0071 -0.1018
 1190POPI   C3A17941  15.395   4.294   6.842  0.0950  0.1253 -0.3247
 1190POPI   C4A17942  15.408   4.603   7.154  0.0515  0.0378 -0.0869
 1190POPI   C1B17943  14.926   3.806   6.156  0.1976 -0.0532  0.1631
 1190POPI   C2B17944  14.815   3.691   6.577 -0.1787  0.0041  0.1116
 1190POPI   C3B17945  14.684   3.713   6.972 -0.0987  0.3239 -0.0856
 1190POPI   C4B17946  14.775   3.690   7.449  0.0604 -0.0081 -0.0674
 1191POPI    C117947  17.453  17.773   5.305 -0.1143  0.1144  0.3233
 1191POPI    C217948  17.830  17.902   5.343 -0.0093 -0.0370 -0.1424
 1191POPI    C317949  17.756  17.512   5.294 -0.2245 -0.0019 -0.1057
 1191POPI   PO417950  17.362  17.951   5.469  0.0349 -0.0104  0.1218
 1191POPI   GL117951  17.305  18.146   5.819 -0.2375  0.1312 -0.3338
 1191POPI   GL217952  17.354  18.512   5.755 -0.2570 -0.0780  0.0567
 1191POPI   C1A17953  17.398  18.041   6.148  0.1942  0.3206  0.0227
 1191POPI   D2A17954  17.466  18.293   6.472 -0.0090 -0.1695  0.2693
 1191POPI   C3A17955  17.415  18.160   6.952  0.2694 -0.1866  0.1533
 1191POPI   C4A17956  17.349  18.145   7.401 -0.2233  0.1316 -0.4546
 1191POPI   C1B17957  17.092  18.636   6.102 -0.0677 -0.0131 -0.4320
 1191POPI   C2B17958  17.142  18.654   6.554 -0.1781  0.1807  0.1328
 1191POPI   C3B17959  17.070  18.563   6.920 -0.2388 -0.3821 -0.0608
 1191POPI   C4B17960  16.906  18.343   7.302 -0.2856 -0.1675 -0.1337
 1192POPI    C117961  15.557  12.020   5.091 -0.2426  0.2538  0.2036
 1192POPI    C217962  15.355  11.864   4.783  0.0729 -0.1920  0.2135
 1192POPI    C317963  15.517  12.228   4.751 -0.4056  0.0164  0.0741
 1192POPI   PO417964  15.408  11.882   5.259 -0.0639 -0.0286 -0.0095
 1192POPI   GL117965  15.461  11.941   5.679  0.0174 -0.0686  0.0082
 1192POPI   GL217966  15.682  11.856   5.847  0.2004 -0.0321  0.1582
 1192POPI   C1A17967  15.199  11.980   5.979 -0.0920 -0.1488 -0.4027
 1192POPI   D2A17968  15.127  12.177   6.304  0.1428  0.2074 -0.0483
 1192POPI   C3A17969  15.188  12.095   6.665 -0.0149 -0.3071  0.2761
 1192POPI   C4A17970  15.357  12.100   7.112 -0.1723 -0.1717 -0.0601
 1192POPI   C1B17971  15.487  11.443   6.030  0.0560 -0.0608  0.0737
 1192POPI   C2B17972  15.244  11.221   6.330  0.1153  0.2890 -0.2222
 1192POPI   C3B17973  15.180  11.113   6.699  0.0278 -0.0244  0.2876
 1192POPI   C4B17974  15.130  11.223   7.162  0.3680  0.0919 -0.3268
 1193POPI    C117975  11.968   8.753   5.286 -0.1578  0.1528 -0.1239
 1193POPI    C217976  11.974   8.957   4.942  0.0451  0.0570 -0.1786
 1193POPI    C317977  12.289   8.734   5.048 -0.0422  0.0349  0.0391
 1193POPI   PO417978  11.760   8.814   5.409 -0.2653 -0.2024  0.1077
 1193POPI   GL117979  11.547   8.985   5.817  0.0387 -0.0520  0.0799
 1193POPI   GL217980  11.612   9.215   5.759  0.0316  0.0719 -0.1549
 1193POPI   C1A17981  11.607   8.871   6.169  0.0127  0.0065 -0.2956
 1193POPI   D2A17982  11.825   8.783   6.466  0.1782  0.0723  0.2259
 1193POPI   C3A17983  11.692   8.527   6.714 -0.0296 -0.4568  0.1141
 1193POPI   C4A17984  11.773   8.424   7.161 -0.4069 -0.3301  0.3897
 1193POPI   C1B17985  11.282   9.327   6.064 -0.2387 -0.2810  0.0454
 1193POPI   C2B17986  11.237   9.321   6.477  0.0814  0.3438 -0.1066
 1193POPI   C3B17987  11.164   9.266   6.975 -0.0266  0.1000 -0.0625
 1193POPI   C4B17988  10.949   9.025   7.226  0.1132 -0.2642  0.1715
 1194POPI    C117989  10.716  17.129   5.413 -0.1122  0.3355 -0.0865
 1194POPI    C217990  11.023  17.113   5.669 -0.2395  0.0943  0.0548
 1194POPI    C317991  11.024  17.381   5.372  0.0191  0.2199  0.1659
 1194POPI   PO417992  10.570  17.059   5.568  0.2630  0.2834  0.3746
 1194POPI   GL117993  10.677  17.064   5.962  0.2678 -0.0674  0.0715
 1194POPI   GL217994  10.516  16.762   5.980 -0.0341 -0.1247  0.0341
 1194POPI   C1A17995  10.373  17.178   6.333  0.1431  0.2016 -0.1758
 1194POPI   D2A17996  10.361  17.396   6.819  0.3156  0.0354 -0.1904
 1194POPI   C3A17997  10.759  17.410   7.015  0.1777 -0.1426  0.1719
 1194POPI   C4A17998  11.118  17.552   7.258 -0.6509  0.4491  0.0248
 1194POPI   C1B17999  10.489  16.652   6.426  0.3320 -0.2119 -0.3251
 1194POPI   C2B18000  10.509  16.445   6.793  0.0435  0.1851 -0.0312
 1194POPI   C3B18001  10.374  16.372   7.088  0.0189 -0.2117 -0.0451
 1194POPI   C4B18002  10.587  16.310   7.439  0.0755 -0.1117  0.1907
 1195POPI    C118003  16.257   4.944   5.350 -0.1099  0.0750  0.0577
 1195POPI    C218004  16.083   5.303   5.324 -0.4769 -0.1004  0.0275
 1195POPI    C318005  16.070   5.052   5.013 -0.2889 -0.1707  0.0755
 1195POPI   PO418006  16.333   4.851   5.562 -0.0187  0.2088 -0.2678
 1195POPI   GL118007  16.342   4.974   5.880 -0.0456  0.1598  0.0628
 1195POPI   GL218008  16.007   5.124   5.866 -0.2240 -0.0166 -0.0796
 1195POPI   C1A18009  16.716   4.977   6.024  0.1127  0.2808 -0.4860
 1195POPI   D2A18010  16.923   5.018   6.374  0.1262 -0.0464 -0.0309
 1195POPI   C3A18011  16.876   4.789   6.690 -0.1133 -0.0826 -0.1634
 1195POPI   C4A18012  17.058   4.668   6.962  0.1733  0.3630 -0.2391
 1195POPI   C1B18013  16.122   5.124   6.280 -0.0195  0.0831  0.1453
 1195POPI   C2B18014  16.100   5.018   6.675 -0.3927 -0.0109  0.4317
 1195POPI   C3B18015  15.794   4.989   7.063 -0.0310  0.1368  0.1921
 1195POPI   C4B18016  15.370   5.106   7.088 -0.0306  0.0378  0.2997
 1196POPI    C118017  14.563  16.409   5.226  0.0594  0.1918  0.1112
 1196POPI    C218018  14.728  16.263   4.892 -0.2817  0.1115 -0.0267
 1196POPI    C318019  14.619  16.647   4.909 -0.2353  0.1231  0.0042
 1196POPI   PO418020  14.673  16.269   5.413 -0.0727 -0.1856  0.1910
 1196POPI   GL118021  14.558  16.342   5.864  0.1269 -0.1506  0.1777
 1196POPI   GL218022  14.646  16.585   5.814 -0.1794  0.1756 -0.0615
 1196POPI   C1A18023  14.466  16.542   6.267 -0.2650 -0.0184 -0.0879
 1196POPI   D2A18024  14.365  16.570   6.734  0.1702  0.0289  0.0332
 1196POPI   C3A18025  14.052  16.482   7.040  0.2140 -0.3278 -0.0254
 1196POPI   C4A18026  14.286  16.396   7.330 -0.1621 -0.1365  0.3048
 1196POPI   C1B18027  15.006  16.592   6.193  0.3280 -0.1005 -0.1510
 1196POPI   C2B18028  15.361  16.759   6.535  0.1320 -0.1564 -0.0933
 1196POPI   C3B18029  15.511  16.722   6.926  0.0969 -0.1832  0.1615
 1196POPI   C4B18030  15.613  16.597   7.320 -0.2052 -0.0739  0.0211
 1197POPI    C118031   4.914   6.070   4.867 -0.1151  0.0045  0.2470
 1197POPI    C218032   5.215   6.022   5.127  0.0698 -0.1671  0.0059
 1197POPI    C318033   5.293   6.086   4.739 -0.2044 -0.0082 -0.0261
 1197POPI   PO418034   4.720   6.102   5.057  0.0513  0.2107  0.0974
 1197POPI   GL118035   4.575   6.165   5.478  0.2700 -0.0935 -0.0414
 1197POPI   GL218036   4.909   6.102   5.520 -0.4655 -0.1414 -0.4045
 1197POPI   C1A18037   4.437   5.919   5.796  0.1429  0.0169  0.4101
 1197POPI   D2A18038   4.595   5.838   6.133  0.1876 -0.0806 -0.0558
 1197POPI   C3A18039   4.920   6.066   6.441  0.3092 -0.2246  0.1779
 1197POPI   C4A18040   4.957   6.294   6.716 -0.2700 -0.0683  0.1055
 1197POPI   C1B18041   4.975   5.658   5.787  0.0985  0.1921 -0.0733
 1197POPI   C2B18042   5.063   5.601   6.092 -0.2168 -0.0528  0.0528
 1197POPI   C3B18043   5.324   5.637   6.537  0.0846  0.0869 -0.2774
 1197POPI   C4B18044   5.272   5.645   6.945  0.0358 -0.0189  0.3134
 1198DPPI    C118045   5.694   2.963   4.952 -0.2231 -0.1466  0.0630
 1198DPPI    C218046   5.683   2.765   4.604  0.0314  0.2049 -0.1521
 1198DPPI    C318047   5.424   3.062   4.674 -0.0229  0.1312 -0.0382
 1198DPPI   PO418048   5.758   2.754   5.150  0.1234 -0.0864 -0.0549
 1198DPPI   GL118049   5.823   2.661   5.545  0.1279  0.1429  0.0878
 1198DPPI   GL218050   5.861   2.957   5.537 -0.2450 -0.2110  0.1536
 1198DPPI   C1A18051   5.928   2.540   5.998 -0.4122  0.0886 -0.1251
 1198DPPI   C2A18052   6.022   2.389   6.447 -0.0769 -0.0785 -0.1823
 1198DPPI   C3A18053   6.066   2.276   6.923  0.1015  0.0590 -0.1002
 1198DPPI   C4A18054   5.862   2.260   7.379 -0.3299  0.2081 -0.0338
 1198DPPI   C1B18055   6.127   3.006   5.898 -0.1302 -0.0538 -0.1069
 1198DPPI   C2B18056   6.444   3.133   6.387 -0.0975  0.2704  0.0732
 1198DPPI   C3B18057   6.266   3.008   6.807 -0.1520 -0.2576  0.0807
 1198DPPI   C4B18058   5.984   3.262   7.090 -0.1289  0.3876 -0.2400
 1199DPPI    C118059   5.577  13.788   5.086  0.1660 -0.1311 -0.1196
 1199DPPI    C218060   5.234  13.805   4.880  0.0538 -0.1434  0.0639
 1199DPPI    C318061   5.564  13.656   4.709 -0.0658 -0.2576 -0.0690
 1199DPPI   PO418062   5.509  13.707   5.336  0.0959 -0.0626 -0.0010
 1199DPPI   GL118063   5.449  13.689   5.758  0.1227 -0.0854 -0.0243
 1199DPPI   GL218064   5.324  13.935   5.850  0.0571 -0.0933  0.0359
 1199DPPI   C1A18065   5.617  13.670   6.184 -0.1325 -0.0270  0.1747
 1199DPPI   C2A18066   5.652  13.732   6.590 -0.1937 -0.1913 -0.1629
 1199DPPI   C3A18067   5.730  13.757   6.975  0.0642 -0.0565  0.0598
 1199DPPI   C4A18068   5.790  13.998   7.365  0.1935  0.2687  0.1384
 1199DPPI   C1B18069   5.213  13.939   6.274  0.3208  0.5220 -0.2136
 1199DPPI   C2B18070   4.866  13.835   6.560 -0.1000  0.2655  0.2032
 1199DPPI   C3B18071   4.627  13.962   6.857  0.1180 -0.2866 -0.3898
 1199DPPI   C4B18072   4.383  14.256   7.189  0.0776  0.3360 -0.2110
 1200DPPI    C118073   9.540   5.703   5.018 -0.1998  0.0720 -0.0556
 1200DPPI    C218074   9.395   6.031   5.196  0.0696  0.1706 -0.0128
 1200DPPI    C318075   9.394   6.003   4.797 -0.0251  0.1894 -0.0141
 1200DPPI   PO418076   9.520   5.567   5.293 -0.3082 -0.0380 -0.4438
 1200DPPI   GL118077   9.262   5.532   5.626 -0.0828  0.0609 -0.0300
 1200DPPI   GL218078   9.266   5.805   5.653 -0.0253  0.0977 -0.0922
 1200DPPI   C1A18079   9.116   5.442   5.941 -0.0772 -0.1183 -0.2903
 1200DPPI   C2A18080   9.039   5.275   6.232 -0.0854 -0.0796 -0.1088
 1200DPPI   C3A18081   9.239   5.248   6.636  0.1455  0.0055 -0.1290
 1200DPPI   C4A18082   9.384   5.322   6.954  0.1275  0.0180 -0.3502
 1200DPPI   C1B18083   9.290   6.127   6.007  0.1057 -0.3729  0.0219
 1200DPPI   C2B18084   9.161   6.219   6.357 -0.2702  0.0750  0.0889
 1200DPPI   C3B18085   8.959   6.362   6.715 -0.0495  0.0026 -0.4076
 1200DPPI   C4B18086   9.033   6.251   7.102 -0.1928 -0.2012  0.2232
 1201DPPI    C118087  13.335   9.480   5.310 -0.0602  0.0338 -0.0651
 1201DPPI    C218088  13.624   9.469   5.035  0.0266 -0.0122  0.0272
 1201DPPI    C318089  13.280   9.656   4.956  0.0212 -0.0912 -0.1406
 1201DPPI   PO418090  13.446   9.520   5.512 -0.0600 -0.3458 -0.1559
 1201DPPI   GL118091  13.439   9.549   5.911 -0.0609  0.0480 -0.0298
 1201DPPI   GL218092  13.107   9.704   5.809 -0.0795 -0.2554 -0.0591
 1201DPPI   C1A18093  13.086   9.770   6.320  0.0554 -0.1041 -0.0523
 1201DPPI   C2A18094  13.060   9.820   6.766  0.1192 -0.1294 -0.0455
 1201DPPI   C3A18095  13.079   9.832   7.215 -0.2291 -0.1314 -0.2829
 1201DPPI   C4A18096  13.262   9.713   7.687 -0.0791  0.0820 -0.1962
 1201DPPI   C1B18097  12.722   9.529   5.844  0.0916 -0.3504  0.2405
 1201DPPI   C2B18098  12.589   9.336   6.233 -0.1923  0.0959 -0.2190
 1201DPPI   C3B18099  12.707   9.457   6.654  0.0855  0.3669 -0.0585
 1201DPPI   C4B18100  12.633   9.692   7.059  0.0034 -0.1270 -0.0469
 1202DPPI    C118101   1.522   8.425   5.217 -0.0515 -0.0800  0.0960
 1202DPPI    C218102   1.755   8.316   5.524 -0.2227 -0.0272  0.2463
 1202DPPI    C318103   1.614   8.039   5.272  0.0426 -0.0537  0.1237
 1202DPPI   PO418104   1.326   8.545   5.323 -0.2055  0.1514  0.0301
 1202DPPI   GL118105   1.365   8.678   5.763  0.3770 -0.1444  0.1129
 1202DPPI   GL218106   0.993   8.780   5.898  0.1406  0.1068 -0.0573
 1202DPPI   C1A18107   1.366   8.348   6.069 -0.0255  0.1545 -0.1075
 1202DPPI   C2A18108   1.342   8.126   6.430  0.4367 -0.3600  0.2685
 1202DPPI   C3A18109   1.246   7.786   6.809 -0.1995 -0.0369  0.1167
 1202DPPI   C4A18110   1.191   7.758   7.314  0.0387 -0.3555 -0.0953
 1202DPPI   C1B18111   1.113   8.767   6.290 -0.0041  0.0672  0.2308
 1202DPPI   C2B18112   1.288   8.603   6.540  0.1009  0.0919 -0.1164
 1202DPPI   C3B18113   1.260   8.772   6.979  0.1640 -0.0374  0.1848
 1202DPPI   C4B18114   1.308   8.543   7.361 -0.0514  0.1899 -0.3266
 1203DPPI    C118115  17.114  16.090   5.317 -0.0863  0.4898 -0.3212
 1203DPPI    C218116  17.445  16.060   5.095  0.1056  0.0755  0.0064
 1203DPPI    C318117  17.136  15.816   5.027 -0.0098  0.2462 -0.0891
 1203DPPI   PO418118  17.166  16.257   5.659  0.0419  0.1429 -0.2122
 1203DPPI   GL118119  16.919  16.206   5.955  0.2036  0.2207  0.2451
 1203DPPI   GL218120  16.720  16.434   6.092 -0.0801 -0.1771 -0.4096
 1203DPPI   C1A18121  17.147  16.158   6.341  0.1205 -0.0064 -0.0062
 1203DPPI   C2A18122  17.076  16.237   6.768  0.0058  0.1975 -0.2866
 1203DPPI   C3A18123  17.128  16.164   7.219  0.0431 -0.1690 -0.0068
 1203DPPI   C4A18124  17.223  16.431   7.534  0.0363  0.0904 -0.1836
 1203DPPI   C1B18125  16.699  16.418   6.507 -0.0126 -0.3155 -0.1244
 1203DPPI   C2B18126  16.766  16.605   6.909  0.1978 -0.0445  0.1837
 1203DPPI   C3B18127  16.845  16.599   7.301  0.0600 -0.2687 -0.1379
 1203DPPI   C4B18128  16.980  16.909   7.712  0.2817  0.0240 -0.1265
 1204DPPI    C118129   9.936  14.233   4.824  0.0498 -0.2243 -0.1563
 1204DPPI    C218130   9.771  14.589   4.901  0.0712 -0.3313  0.4375
 1204DPPI    C318131  10.042  14.552   4.608 -0.0932  0.0881  0.2240
 1204DPPI   PO418132   9.986  14.074   5.160 -0.1846  0.3068 -0.0219
 1204DPPI   GL118133   9.804  13.960   5.655 -0.0055  0.1473 -0.2506
 1204DPPI   GL218134   9.616  14.197   5.847  0.1172  0.0543 -0.0075
 1204DPPI   C1A18135  10.211  14.080   5.806 -0.1308  0.0273  0.0371
 1204DPPI   C2A18136  10.658  14.176   5.906  0.2397  0.2019  0.0959
 1204DPPI   C3A18137  10.826  14.374   6.347 -0.0733 -0.1251  0.0613
 1204DPPI   C4A18138  10.997  14.448   6.756 -0.3150  0.1884 -0.2926
 1204DPPI   C1B18139   9.885  14.069   6.211 -0.0069 -0.0392  0.0594
 1204DPPI   C2B18140   9.908  14.274   6.558 -0.1838 -0.3520  0.2736
 1204DPPI   C3B18141  10.098  14.044   6.721  0.1112  0.2141 -0.0239
 1204DPPI   C4B18142  10.335  13.816   6.932 -0.0322 -0.0106 -0.1098
 1205DPPI    C118143  17.850   4.953   4.930 -0.0036 -0.2379  0.0511
 1205DPPI    C218144  17.944   5.127   4.583  0.0909 -0.0010  0.1931
 1205DPPI    C318145  18.145   4.804   4.705 -0.1028 -0.2312 -0.0842
 1205DPPI   PO418146  17.890   5.150   5.109 -0.2399 -0.0650 -0.1608
 1205DPPI   GL118147  18.127   5.164   5.544 -0.1138  0.0037  0.0967
 1205DPPI   GL218148  18.363   5.416   5.625 -0.0919 -0.0369  0.1400
 1205DPPI   C1A18149  17.851   5.067   5.846  0.0942 -0.1923  0.2114
 1205DPPI   C2A18150  17.817   4.900   6.384  0.0663  0.3110 -0.1545
 1205DPPI   C3A18151  17.710   4.891   6.808 -0.0610  0.0344  0.2516
 1205DPPI   C4A18152  17.713   4.790   7.260 -0.0290 -0.1164  0.1628
 1205DPPI   C1B18153  18.515   5.075   5.867 -0.0525 -0.1950  0.2077
 1205DPPI   C2B18154  18.578   4.984   6.257  0.0466  0.1624  0.1662
 1205DPPI   C3B18155  18.638   5.015   6.653  0.2640 -0.1030 -0.1171
 1205DPPI   C4B18156  18.683   4.979   7.073  0.1897  0.0338  0.0851
 1206DPPI    C118157   6.806   0.551   5.495 -0.0390 -0.2278  0.0363
 1206DPPI    C218158   7.009   0.497   5.155 -0.0121 -0.2604  0.0576
 1206DPPI    C318159   6.648   0.669   5.147  0.2419  0.2941  0.0759
 1206DPPI   PO418160   6.807   0.365   5.592  0.2074  0.1116 -0.2076
 1206DPPI   GL118161   6.585   0.320   5.965 -0.1891 -0.0475 -0.3231
 1206DPPI   GL218162   6.284   0.219   6.039  0.2006 -0.2390  0.1372
 1206DPPI   C1A18163   6.762   0.491   6.311  0.2033 -0.3207  0.1979
 1206DPPI   C2A18164   6.887   0.554   6.609 -0.0381 -0.3205  0.1110
 1206DPPI   C3A18165   6.985   0.303   6.981  0.0398 -0.0970  0.1551
 1206DPPI   C4A18166   7.230   0.032   7.188 -0.2755  0.2390 -0.2014
 1206DPPI   C1B18167   6.250   0.381   6.423  0.0160 -0.2703 -0.1092
 1206DPPI   C2B18168   6.042   0.333   6.798 -0.0657  0.2029  0.1403
 1206DPPI   C3B18169   6.070   0.293   7.242 -0.2431  0.2191  0.0129
 1206DPPI   C4B18170   6.025   0.549   7.716 -0.0298 -0.1039  0.2510
 1207DPPI    C118171   5.558   5.649   4.767  0.0590  0.3605  0.0395
 1207DPPI    C218172   5.950   5.642   4.688  0.0653  0.0546  0.0886
 1207DPPI    C318173   5.685   5.639   4.388  0.0993  0.2588  0.0554
 1207DPPI   PO418174   5.588   5.654   5.083 -0.0152 -0.1628  0.0421
 1207DPPI   GL118175   5.552   6.028   5.486 -0.0615 -0.0656 -0.1723
 1207DPPI   GL218176   5.430   6.264   5.501 -0.0342  0.1022  0.1601
 1207DPPI   C1A18177   5.633   5.724   5.886 -0.0519  0.3447 -0.0439
 1207DPPI   C2A18178   5.807   5.632   6.327  0.4214 -0.1843 -0.0480
 1207DPPI   C3A18179   5.766   5.594   6.800 -0.0458 -0.0064 -0.0363
 1207DPPI   C4A18180   5.678   5.484   7.228 -0.0186 -0.2289  0.0133
 1207DPPI   C1B18181   5.214   6.508   5.787 -0.1146 -0.0069  0.0475
 1207DPPI   C2B18182   5.070   6.589   6.212 -0.3754  0.1248 -0.0377
 1207DPPI   C3B18183   4.888   6.846   6.509  0.0039  0.0717  0.0348
 1207DPPI   C4B18184   4.728   7.046   6.855 -0.0728 -0.5570 -0.0045
 1208DPPI    C118185  12.526   0.244   5.404  0.2734 -0.0771  0.1027
 1208DPPI    C218186  12.792   0.077   5.156  0.2209 -0.0526  0.0296
 1208DPPI    C318187  12.581   0.396   5.038  0.2673  0.0205  0.1420
 1208DPPI   PO418188  12.635   0.214   5.686 -0.0580 -0.3365 -0.1166
 1208DPPI   GL118189  12.623   0.264   6.097  0.1585  0.1489  0.0950
 1208DPPI   GL218190  12.226   0.401   6.076 -0.0324 -0.1339 -0.1379
 1208DPPI   C1A18191  12.729   0.375   6.572  0.2210  0.2591 -0.1965
 1208DPPI   C2A18192  12.567   0.391   6.939 -0.1432 -0.2356  0.1543
 1208DPPI   C3A18193  12.664   0.121   7.319 -0.0531  0.0147  0.0790
 1208DPPI   C4A18194  12.836  -0.180   7.639  0.0978 -0.1482  0.0012
 1208DPPI   C1B18195  12.191   0.348   6.500  0.3956  0.1056  0.0367
 1208DPPI   C2B18196  12.012   0.464   6.894 -0.2665 -0.1167 -0.1177
 1208DPPI   C3B18197  11.751   0.369   7.223 -0.1269 -0.1378  0.0001
 1208DPPI   C4B18198  11.339   0.458   7.034  0.0467 -0.2007  0.1039
 1209DPPI    C118199   4.741   3.645   4.862  0.1731  0.0994  0.0254
 1209DPPI    C218200   4.560   3.293   4.802  0.0799  0.1683 -0.1024
 1209DPPI    C318201   4.926   3.358   4.654  0.1550  0.0765  0.0409
 1209DPPI   PO418202   4.554   3.735   5.014  0.3177 -0.1432  0.3581
 1209DPPI   GL118203   4.447   3.908   5.452 -0.3710 -0.0067  0.3838
 1209DPPI   GL218204   4.228   4.068   5.622 -0.0562 -0.0447  0.1340
 1209DPPI   C1A18205   4.664   3.857   5.841 -0.2969  0.2499  0.4829
 1209DPPI   C2A18206   4.800   3.779   6.256  0.1518 -0.1233 -0.0048
 1209DPPI   C3A18207   4.625   3.926   6.697  0.2756  0.1407  0.0351
 1209DPPI   C4A18208   4.815   3.803   7.171  0.0975 -0.0744  0.3352
 1209DPPI   C1B18209   4.213   4.101   6.010 -0.1816  0.0615  0.0573
 1209DPPI   C2B18210   4.217   4.099   6.370 -0.1365  0.3190  0.0586
 1209DPPI   C3B18211   4.123   3.937   6.813  0.0956 -0.0185 -0.1789
 1209DPPI   C4B18212   4.209   4.043   7.176 -0.1185  0.0275 -0.1577
 1210DPPI    C118213  16.955  14.001   5.258 -0.0388  0.5006 -0.1092
 1210DPPI    C218214  16.689  14.018   4.959  0.2078 -0.1388 -0.3850
 1210DPPI    C318215  17.064  14.143   4.900  0.0749  0.4254 -0.1050
 1210DPPI   PO418216  16.764  14.129   5.520 -0.2622 -0.3792 -0.0671
 1210DPPI   GL118217  16.634  14.184   5.903 -0.2188 -0.1904 -0.1468
 1210DPPI   GL218218  16.582  13.926   6.082 -0.0288  0.0923 -0.1525
 1210DPPI   C1A18219  16.827  14.389   6.183 -0.2017  0.0860  0.0442
 1210DPPI   C2A18220  16.881  14.327   6.583 -0.3938 -0.0442 -0.0740
 1210DPPI   C3A18221  16.694  14.123   6.905 -0.1617 -0.3897  0.1601
 1210DPPI   C4A18222  16.609  14.174   7.263 -0.1403 -0.2491  0.0882
 1210DPPI   C1B18223  16.408  14.170   6.442  0.0428 -0.0470 -0.0590
 1210DPPI   C2B18224  16.218  14.364   6.789  0.0026  0.2933 -0.0178
 1210DPPI   C3B18225  16.083  14.368   7.090  0.0096  0.1827 -0.1300
 1210DPPI   C4B18226  16.235  14.540   7.517 -0.0203 -0.0718 -0.1056
 1211DPPI    C118227   2.045   3.749   5.062  0.0996  0.3872 -0.1502
 1211DPPI    C218228   1.952   3.626   4.692  0.1405 -0.0166 -0.0315
 1211DPPI    C318229   2.222   3.917   4.745 -0.1273  0.2945 -0.3291
 1211DPPI   PO418230   1.773   3.795   5.171  0.1854 -0.0562  0.1014
 1211DPPI   GL118231   1.720   4.184   5.519  0.2319  0.0547  0.1882
 1211DPPI   GL218232   1.999   4.311   5.521 -0.0127  0.0008 -0.1227
 1211DPPI   C1A18233   1.643   4.349   5.912  0.0980 -0.1057  0.1747
 1211DPPI   C2A18234   1.362   4.296   6.228 -0.0864 -0.0805 -0.1989
 1211DPPI   C3A18235   1.278   4.525   6.637  0.1049 -0.2491  0.0231
 1211DPPI   C4A18236   1.342   4.565   7.022  0.1586 -0.1865  0.1366
 1211DPPI   C1B18237   2.097   4.211   5.912 -0.1881  0.1301  0.2479
 1211DPPI   C2B18238   1.978   4.171   6.312 -0.1172  0.0157  0.1569
 1211DPPI   C3B18239   1.981   4.181   6.770  0.1045 -0.3210 -0.1268
 1211DPPI   C4B18240   1.578   4.135   6.891  0.0516  0.1001  0.1103
 1212DPPI    C118241  12.109  15.923   5.114 -0.0058  0.0398 -0.1247
 1212DPPI    C218242  11.734  15.941   4.975 -0.0830  0.0124  0.0765
 1212DPPI    C318243  11.974  16.259   4.945 -0.1108  0.0190 -0.0828
 1212DPPI   PO418244  12.056  15.767   5.358  0.2567  0.3373  0.1905
 1212DPPI   GL118245  12.222  15.550   5.786  0.2075 -0.0070  0.0314
 1212DPPI   GL218246  12.315  15.856   5.777  0.2476 -0.2837  0.3724
 1212DPPI   C1A18247  11.985  15.658   6.123 -0.3841  0.1360 -0.2834
 1212DPPI   C2A18248  12.072  15.712   6.554 -0.0519 -0.0248  0.0188
 1212DPPI   C3A18249  12.005  15.609   6.858 -0.2512 -0.0765 -0.1396
 1212DPPI   C4A18250  11.821  15.522   7.266 -0.3429 -0.0474  0.0589
 1212DPPI   C1B18251  12.172  16.134   6.089  0.1026 -0.1059  0.1417
 1212DPPI   C2B18252  11.983  16.191   6.439  0.3587  0.0686  0.1871
 1212DPPI   C3B18253  11.989  16.161   6.913 -0.2544 -0.1235 -0.1992
 1212DPPI   C4B18254  11.851  16.230   7.339 -0.1863  0.1445  0.1120
 1213DPPI    C118255   9.738   7.917   4.882 -0.3480  0.1637 -0.0768
 1213DPPI    C218256   9.503   7.617   4.761  0.1351 -0.2793  0.0497
 1213DPPI    C318257   9.841   7.698   4.563  0.1290  0.0297  0.1612
 1213DPPI   PO418258   9.810   7.968   5.228 -0.0504  0.1862  0.2811
 1213DPPI   GL118259   9.707   7.814   5.566  0.0491 -0.1144  0.2201
 1213DPPI   GL218260  10.073   7.809   5.722 -0.1461 -0.0032 -0.4162
 1213DPPI   C1A18261   9.534   7.702   5.945 -0.0470 -0.0251 -0.2926
 1213DPPI   C2A18262   9.416   7.621   6.382 -0.2231 -0.2689 -0.1961
 1213DPPI   C3A18263   9.500   7.666   6.754 -0.1122  0.1087 -0.0523
 1213DPPI   C4A18264   9.730   7.565   7.099 -0.0573 -0.0300  0.0006
 1213DPPI   C1B18265   9.931   7.698   6.248  0.3427 -0.0325  0.0043
 1213DPPI   C2B18266  10.007   7.788   6.763 -0.4048  0.0963 -0.0747
 1213DPPI   C3B18267  10.129   7.879   7.190 -0.0750 -0.1764 -0.3913
 1213DPPI   C4B18268  10.014   8.183   7.396  0.4095  0.1734 -0.1974
 1214DPPI    C118269  18.598   4.715   4.817 -0.0873  0.0890 -0.0537
 1214DPPI    C218270  18.951   4.681   4.632 -0.0664  0.0755 -0.0114
 1214DPPI    C318271  18.622   4.762   4.420 -0.0747 -0.1334 -0.0807
 1214DPPI   PO418272  18.663   4.774   5.164 -0.1024  0.0832  0.0093
 1214DPPI   GL118273  18.482   4.617   5.616  0.0271  0.1646  0.1328
 1214DPPI   GL218274  18.258   4.571   5.685  0.2541 -0.0499 -0.4013
 1214DPPI   C1A18275  18.566   4.253   5.919  0.1044  0.0032  0.1955
 1214DPPI   C2A18276  18.323   4.221   6.350  0.2400  0.2955  0.1089
 1214DPPI   C3A18277  18.261   4.128   6.742  0.1145  0.0074 -0.3995
 1214DPPI   C4A18278  17.944   4.161   7.118 -0.1247 -0.0442  0.0172
 1214DPPI   C1B18279  18.282   4.662   6.067 -0.0828  0.2755  0.1686
 1214DPPI   C2B18280  18.330   4.641   6.583  0.2841  0.0526 -0.1758
 1214DPPI   C3B18281  18.288   4.548   7.028  0.3390  0.0029 -0.0938
 1214DPPI   C4B18282  18.204   4.815   7.336 -0.1725  0.1363 -0.0357
 1215DPPI    C118283   4.291  13.548   4.703 -0.1933  0.0480 -0.0994
 1215DPPI    C218284   4.285  13.163   4.592  0.1612  0.0393 -0.0974
 1215DPPI    C318285   4.143  13.444   4.346 -0.0168 -0.0833 -0.1361
 1215DPPI   PO418286   4.332  13.487   5.092  0.0190  0.1288 -0.0576
 1215DPPI   GL118287   4.156  13.384   5.538 -0.1621 -0.0592 -0.3434
 1215DPPI   GL218288   4.284  13.055   5.536  0.1494  0.1938  0.0225
 1215DPPI   C1A18289   4.180  13.350   6.086 -0.2559  0.1065  0.3044
 1215DPPI   C2A18290   4.146  13.188   6.581 -0.0934  0.1057 -0.0813
 1215DPPI   C3A18291   4.348  12.982   6.974 -0.1586 -0.0049 -0.0295
 1215DPPI   C4A18292   4.669  13.104   7.337  0.2774 -0.3493 -0.2848
 1215DPPI   C1B18293   4.613  13.337   5.843  0.1219 -0.0612 -0.0028
 1215DPPI   C2B18294   4.968  13.543   6.124 -0.2348  0.0617 -0.1085
 1215DPPI   C3B18295   5.226  13.446   6.533  0.2314  0.0917  0.0165
 1215DPPI   C4B18296   5.414  13.400   6.890 -0.0496  0.2122  0.0159
 1216DPPI    C118297   9.642  17.800   5.002 -0.0217 -0.0510 -0.0251
 1216DPPI    C218298   9.603  17.902   4.617 -0.0583  0.1881  0.0398
 1216DPPI    C318299   9.661  17.519   4.718 -0.2275  0.0986 -0.1912
 1216DPPI   PO418300   9.439  17.993   5.163 -0.0785  0.0634  0.0333
 1216DPPI   GL118301   9.214  18.099   5.588 -0.2783  0.2382 -0.0052
 1216DPPI   GL218302   9.139  18.331   5.596 -0.2370 -0.3261 -0.2086
 1216DPPI   C1A18303   9.497  17.974   5.947 -0.1072  0.3444 -0.2867
 1216DPPI   C2A18304   9.395  17.810   6.418  0.3840 -0.1722  0.0892
 1216DPPI   C3A18305   9.399  17.925   6.805  0.1400 -0.0507  0.1474
 1216DPPI   C4A18306   9.211  17.911   7.183  0.1184 -0.0798  0.2575
 1216DPPI   C1B18307   9.262  18.408   6.012  0.0980  0.0785 -0.1186
 1216DPPI   C2B18308   9.364  18.303   6.464 -0.1931 -0.1133  0.1166
 1216DPPI   C3B18309   9.388  18.466   6.958 -0.2746 -0.2107 -0.3082
 1216DPPI   C4B18310   9.345  18.396   7.317 -0.2994 -0.2375  0.1408
 1217DPPI    C118311   4.714   4.552   4.617  0.1564 -0.0622 -0.1122
 1217DPPI    C218312   4.955   4.793   4.407  0.2638  0.0728  0.1609
 1217DPPI    C318313   4.572   4.894   4.465  0.2667  0.0970  0.1377
 1217DPPI   PO418314   4.813   4.559   4.925 -0.1212 -0.1086 -0.0153
 1217DPPI   GL118315   4.807   4.276   5.334 -0.1258  0.2061  0.0148
 1217DPPI   GL218316   4.606   4.480   5.434 -0.0482  0.0698  0.0523
 1217DPPI   C1A18317   5.092   4.031   5.709 -0.0637  0.0919  0.1261
 1217DPPI   C2A18318   5.278   4.287   6.151  0.2297 -0.1672 -0.0371
 1217DPPI   C3A18319   5.607   4.196   6.548 -0.1701 -0.1129  0.2652
 1217DPPI   C4A18320   5.682   4.181   7.038  0.0506  0.0322 -0.0070
 1217DPPI   C1B18321   4.570   4.391   5.816  0.0277  0.1049 -0.1074
 1217DPPI   C2B18322   4.638   4.240   6.234  0.1440 -0.0779  0.1434
 1217DPPI   C3B18323   4.930   4.368   6.573  0.1035 -0.0893 -0.2656
 1217DPPI   C4B18324   5.006   4.792   6.954 -0.0737  0.1224 -0.1386
 1218DPPI    C118325   8.428   5.281   5.065 -0.1168  0.1135  0.0954
 1218DPPI    C218326   8.193   5.326   4.744 -0.0345  0.4326  0.0773
 1218DPPI    C318327   8.589   5.368   4.710  0.0591 -0.3296  0.0603
 1218DPPI   PO418328   8.279   4.994   5.219  0.0066 -0.3562  0.0550
 1218DPPI   GL118329   8.086   5.038   5.549 -0.1556 -0.0526  0.0984
 1218DPPI   GL218330   8.094   5.375   5.640 -0.2174 -0.4145  0.2214
 1218DPPI   C1A18331   8.132   5.045   6.001 -0.5474  0.1812  0.1174
 1218DPPI   C2A18332   7.713   5.141   6.248 -0.0233 -0.0609  0.3343
 1218DPPI   C3A18333   7.622   5.406   6.525  0.4531 -0.2080 -0.1865
 1218DPPI   C4A18334   7.837   5.614   6.881 -0.3461 -0.4680  0.3063
 1218DPPI   C1B18335   7.946   5.515   6.113 -0.2367  0.1068 -0.0489
 1218DPPI   C2B18336   7.665   5.854   6.331  0.1463  0.2746  0.0672
 1218DPPI   C3B18337   7.705   6.045   6.661 -0.1797 -0.0635  0.0993
 1218DPPI   C4B18338   7.476   6.300   7.017  0.1198  0.0553 -0.0744
 1219DPPI    C118339  16.703   5.951   4.850  0.0896 -0.0267 -0.1290
 1219DPPI    C218340  16.365   5.785   4.712  0.0609  0.1548 -0.2806
 1219DPPI    C318341  16.502   6.124   4.550  0.4020 -0.0017 -0.3281
 1219DPPI   PO418342  16.655   6.018   5.103 -0.2142  0.0719  0.0253
 1219DPPI   GL118343  16.646   6.229   5.534 -0.0312  0.0613  0.0212
 1219DPPI   GL218344  16.995   6.208   5.480  0.0010  0.0322  0.2230
 1219DPPI   C1A18345  16.621   6.275   5.955  0.0308  0.1124  0.3875
 1219DPPI   C2A18346  16.905   6.102   6.310  0.0833  0.1827 -0.0238
 1219DPPI   C3A18347  17.111   5.997   6.664 -0.0436  0.0955 -0.0717
 1219DPPI   C4A18348  17.064   6.040   7.077  0.4876 -0.0257 -0.0227
 1219DPPI   C1B18349  17.174   6.209   5.907 -0.1084  0.1873 -0.0339
 1219DPPI   C2B18350  17.406   6.216   6.305 -0.0482 -0.0701 -0.0070
 1219DPPI   C3B18351  17.435   6.512   6.628 -0.1839  0.1684 -0.1795
 1219DPPI   C4B18352  17.530   6.733   6.921  0.1224  0.1117  0.4296
 1220DPPI    C118353   2.678   3.820   4.586  0.3282  0.0243  0.3425
 1220DPPI    C218354   2.622   3.432   4.665  0.2039 -0.0407 -0.0443
 1220DPPI    C318355   2.860   3.543   4.363 -0.0574  0.1725 -0.1760
 1220DPPI   PO418356   2.744   3.901   4.845  0.0660 -0.0122  0.2558
 1220DPPI   GL118357   2.785   4.035   5.204  0.0335 -0.0671  0.0183
 1220DPPI   GL218358   2.451   4.015   5.371  0.1126  0.1330  0.1344
 1220DPPI   C1A18359   2.907   4.176   5.557  0.0716  0.0020 -0.1716
 1220DPPI   C2A18360   2.961   4.261   5.980  0.0993 -0.1918  0.0298
 1220DPPI   C3A18361   2.826   4.336   6.532 -0.1033 -0.0138 -0.1500
 1220DPPI   C4A18362   2.826   4.435   6.924 -0.0764 -0.1449  0.1615
 1220DPPI   C1B18363   2.506   3.955   5.795  0.1202  0.1991 -0.3157
 1220DPPI   C2B18364   2.499   3.985   6.199 -0.2970  0.1741 -0.0047
 1220DPPI   C3B18365   2.342   3.951   6.584 -0.0720  0.2833 -0.2550
 1220DPPI   C4B18366   2.499   4.029   6.954  0.2065 -0.1989 -0.1197
 1221DPPI    C118367  12.856   3.338   4.686  0.2160  0.0304 -0.2716
 1221DPPI    C218368  12.525   3.560   4.714  0.1490 -0.1335  0.3824
 1221DPPI    C318369  12.878   3.735   4.646 -0.0311  0.0648 -0.0823
 1221DPPI   PO418370  12.789   3.121   4.882 -0.2847  0.1764  0.0564
 1221DPPI   GL118371  13.020   3.150   5.176 -0.2266 -0.1301 -0.2210
 1221DPPI   GL218372  12.995   2.878   5.380 -0.0807 -0.1459 -0.0450
 1221DPPI   C1A18373  12.834   3.365   5.574 -0.2596  0.0948 -0.1061
 1221DPPI   C2A18374  12.666   3.791   5.710 -0.3711 -0.3486 -0.3029
 1221DPPI   C3A18375  12.593   3.785   6.157  0.0055  0.1061 -0.1977
 1221DPPI   C4A18376  12.436   3.858   6.547 -0.1805  0.0560  0.0890
 1221DPPI   C1B18377  12.815   2.843   5.783 -0.1656 -0.0146  0.1808
 1221DPPI   C2B18378  12.793   2.962   6.191 -0.0795  0.0790  0.3653
 1221DPPI   C3B18379  12.757   2.960   6.609 -0.0106 -0.1428 -0.2738
 1221DPPI   C4B18380  12.648   3.067   6.966 -0.0771 -0.0211 -0.3394
 1222DPPI    C118381  10.755   1.864   5.098 -0.3361 -0.0266 -0.0415
 1222DPPI    C218382  10.384   1.737   5.020 -0.3478  0.0080 -0.0424
 1222DPPI    C318383  10.699   1.523   4.896 -0.3669  0.0232 -0.1175
 1222DPPI   PO418384  10.746   1.939   5.326 -0.0473 -0.0578  0.2396
 1222DPPI   GL118385  10.408   1.952   5.533 -0.0976  0.0812 -0.2404
 1222DPPI   GL218386  10.494   2.203   5.706  0.0223 -0.0717 -0.0038
 1222DPPI   C1A18387  10.388   1.734   6.008 -0.1394 -0.1500 -0.2241
 1222DPPI   C2A18388  10.383   1.419   6.282 -0.2513 -0.1437  0.0249
 1222DPPI   C3A18389  10.073   1.359   6.629 -0.1243 -0.1658  0.0797
 1222DPPI   C4A18390  10.186   1.379   7.056  0.1359  0.0531  0.2126
 1222DPPI   C1B18391  10.573   2.150   6.149  0.1385 -0.0325  0.1810
 1222DPPI   C2B18392  10.597   2.000   6.617 -0.0049  0.1782 -0.0823
 1222DPPI   C3B18393  10.564   1.703   6.939  0.1128  0.1947  0.0139
 1222DPPI   C4B18394  10.683   1.461   7.307  0.0536 -0.2234 -0.0409
 1223DPPI    C118395   3.363  18.069   5.545 -0.3531  0.2206  0.1596
 1223DPPI    C218396   2.981  17.962   5.592 -0.3194  0.0243  0.0000
 1223DPPI    C318397   3.220  17.749   5.353 -0.1378  0.2102  0.0135
 1223DPPI   PO418398   3.407  18.201   5.734  0.2282  0.1410  0.0171
 1223DPPI   GL118399   3.269  18.161   6.090 -0.2009 -0.0071 -0.1673
 1223DPPI   GL218400   2.901  18.173   6.180 -0.1515  0.1877  0.3421
 1223DPPI   C1A18401   3.355  18.443   6.410  0.0660 -0.1008  0.0732
 1223DPPI   C2A18402   3.147  18.441   6.747  0.2539 -0.2752 -0.0475
 1223DPPI   C3A18403   2.969  18.484   7.086  0.4057  0.0700 -0.2971
 1223DPPI   C4A18404   2.899  18.356   7.429  0.0304  0.0340 -0.0995
 1223DPPI   C1B18405   2.810  18.157   6.606 -0.0423  0.0409  0.0284
 1223DPPI   C2B18406   2.759  18.030   6.953 -0.4603  0.0645  0.1017
 1223DPPI   C3B18407   2.447  18.129   7.309 -0.2306  0.1704 -0.2810
 1223DPPI   C4B18408   2.450  18.197   7.735  0.2257  0.1696 -0.0299
 1224DPPI    C118409   5.581  15.744   5.273  0.0197 -0.1778 -0.1888
 1224DPPI    C218410   5.664  16.086   5.082 -0.1377  0.0572  0.1551
 1224DPPI    C318411   5.450  15.802   4.899 -0.1300  0.2013 -0.0817
 1224DPPI   PO418412   5.489  15.723   5.500 -0.1857  0.0743 -0.1525
 1224DPPI   GL118413   5.399  15.857   5.940 -0.2271 -0.0556 -0.0155
 1224DPPI   GL218414   5.500  15.517   5.940 -0.0472 -0.2172 -0.0665
 1224DPPI   C1A18415   5.590  16.053   6.271  0.3093  0.6533 -0.0962
 1224DPPI   C2A18416   5.960  16.061   6.598  0.2893 -0.0369  0.1255
 1224DPPI   C3A18417   5.787  16.056   7.026  0.3012 -0.1026 -0.0365
 1224DPPI   C4A18418   5.717  16.215   7.436  0.0881  0.0815 -0.4143
 1224DPPI   C1B18419   5.833  15.597   6.257  0.1827  0.0473 -0.0693
 1224DPPI   C2B18420   6.279  15.627   6.333 -0.1243  0.0659 -0.1951
 1224DPPI   C3B18421   6.487  15.529   6.732 -0.0967  0.0970 -0.1273
 1224DPPI   C4B18422   6.586  15.694   7.171  0.2160  0.1676 -0.0403
 1225DPPI    C118423   2.362  14.010   5.382 -0.0620 -0.0957 -0.0040
 1225DPPI    C218424   2.703  13.869   5.228 -0.0833  0.0828 -0.2198
 1225DPPI    C318425   2.353  13.763   5.067 -0.1263 -0.0338 -0.0511
 1225DPPI   PO418426   2.379  14.295   5.363  0.1137 -0.1931 -0.3921
 1225DPPI   GL118427   2.211  14.571   5.693 -0.1355  0.1367  0.1220
 1225DPPI   GL218428   2.171  14.859   5.808 -0.0694  0.2196 -0.2705
 1225DPPI   C1A18429   2.278  14.200   5.977 -0.4114  0.2797 -0.1161
 1225DPPI   C2A18430   2.453  14.003   6.268  0.0972  0.1031  0.0159
 1225DPPI   C3A18431   2.710  14.170   6.592  0.0283 -0.3199  0.1476
 1225DPPI   C4A18432   2.784  14.286   7.025 -0.3017 -0.1684 -0.0778
 1225DPPI   C1B18433   2.024  15.123   6.214  0.3037  0.0799  0.0127
 1225DPPI   C2B18434   1.914  15.121   6.645  0.2601  0.6143  0.1631
 1225DPPI   C3B18435   1.929  15.213   7.017  0.0549  0.1383  0.2489
 1225DPPI   C4B18436   2.058  15.546   7.298 -0.0353 -0.0894  0.1153
 1226DPPI    C118437   2.668   1.720   5.132  0.0245  0.1287 -0.1022
 1226DPPI    C218438   2.985   1.634   4.903  0.1154 -0.2596  0.1602
 1226DPPI    C318439   2.658   1.404   4.886 -0.1519  0.1273 -0.0943
 1226DPPI   PO418440   2.681   1.706   5.451 -0.1992  0.0305  0.2300
 1226DPPI   GL118441   2.713   1.891   5.833  0.0009 -0.0402  0.0481
 1226DPPI   GL218442   3.001   1.794   5.830 -0.0783 -0.0763 -0.2220
 1226DPPI   C1A18443   2.388   1.750   6.083  0.3616 -0.0975 -0.1610
 1226DPPI   C2A18444   2.483   1.665   6.561  0.0042  0.2271  0.1315
 1226DPPI   C3A18445   2.401   1.505   7.025  0.2077  0.0141 -0.1678
 1226DPPI   C4A18446   2.525   1.392   7.453 -0.1078 -0.1410 -0.0354
 1226DPPI   C1B18447   3.248   1.953   6.194  0.2152  0.0464  0.0820
 1226DPPI   C2B18448   3.360   2.094   6.515  0.0622  0.0532  0.2106
 1226DPPI   C3B18449   3.306   1.937   6.999 -0.1886  0.0167 -0.1661
 1226DPPI   C4B18450   3.335   1.869   7.358  0.0328 -0.0728 -0.0840
 1227DPPI    C118451   5.108   5.614   4.846 -0.0736  0.0910  0.1262
 1227DPPI    C218452   4.864   5.422   4.594 -0.0892  0.0775  0.1515
 1227DPPI    C318453   5.126   5.691   4.454 -0.3107  0.2981  0.1537
 1227DPPI   PO418454   4.984   5.557   5.104  0.1847 -0.2310 -0.2723
 1227DPPI   GL118455   4.644   5.658   5.334  0.2598  0.1222  0.1219
 1227DPPI   GL218456   4.236   5.571   5.382 -0.1464 -0.1459  0.0477
 1227DPPI   C1A18457   4.541   5.445   5.722 -0.1339 -0.1447  0.2911
 1227DPPI   C2A18458   4.617   5.357   6.225  0.0226  0.0440  0.1848
 1227DPPI   C3A18459   4.822   5.626   6.582  0.0002  0.3623  0.2038
 1227DPPI   C4A18460   4.778   5.752   6.990  0.0720  0.2714 -0.0838
 1227DPPI   C1B18461   3.968   5.840   5.601  0.0577 -0.0404 -0.0233
 1227DPPI   C2B18462   3.595   5.995   5.624 -0.0726  0.2618  0.0695
 1227DPPI   C3B18463   3.278   5.885   5.933 -0.0992  0.0074  0.2625
 1227DPPI   C4B18464   3.073   5.581   5.978  0.0227  0.0936  0.0214
 1228PYPI    C118465  10.381   6.056   4.969  0.0641 -0.1327 -0.0173
 1228PYPI    C218466  10.208   6.318   4.722 -0.0052 -0.0228  0.1463
 1228PYPI    C318467  10.424   6.016   4.573 -0.1178 -0.0081 -0.0507
 1228PYPI   PO418468  10.518   6.193   5.122  0.2156 -0.0868  0.1403
 1228PYPI   GL118469  10.545   6.322   5.535  0.2788 -0.1481 -0.3251
 1228PYPI   GL218470  10.335   6.033   5.568 -0.0020  0.1426 -0.3442
 1228PYPI   C1A18471  10.403   6.551   5.899  0.2810  0.0807 -0.4150
 1228PYPI   C2A18472  10.073   6.759   6.182  0.1951 -0.2919 -0.0947
 1228PYPI   D3A18473   9.837   6.844   6.557  0.3542  0.2280  0.3612
 1228PYPI   C4A18474   9.933   6.908   6.909  0.1609 -0.2577 -0.0573
 1228PYPI   C1B18475  10.448   6.042   6.021 -0.0976  0.1958 -0.1359
 1228PYPI   C2B18476  10.330   6.044   6.435  0.0466 -0.0299 -0.1287
 1228PYPI   C3B18477  10.196   5.856   6.812  0.1986 -0.0092  0.2448
 1228PYPI   C4B18478  10.263   5.726   7.186  0.1598  0.1137 -0.0446
 1229PYPI    C118479   7.450   4.878   4.842 -0.1508 -0.0596 -0.3336
 1229PYPI    C218480   7.672   4.590   4.677  0.0130  0.0223 -0.2587
 1229PYPI    C318481   7.805   4.967   4.682  0.0374  0.0119  0.1085
 1229PYPI   PO418482   7.430   4.894   5.081 -0.3747 -0.0325  0.1323
 1229PYPI   GL118483   7.517   4.976   5.430  0.4887 -0.0105 -0.1796
 1229PYPI   GL218484   7.226   4.974   5.549 -0.1382 -0.2232 -0.1955
 1229PYPI   C1A18485   7.701   4.824   5.809 -0.0988  0.1843  0.1226
 1229PYPI   C2A18486   7.750   4.628   6.274 -0.1277  0.1801  0.3786
 1229PYPI   D3A18487   7.731   4.736   6.775 -0.0873 -0.1869 -0.0299
 1229PYPI   C4A18488   8.082   4.783   7.042 -0.2389  0.0423 -0.0819
 1229PYPI   C1B18489   7.185   4.614   5.802 -0.3065  0.1636 -0.1894
 1229PYPI   C2B18490   7.266   4.606   6.182 -0.1508  0.1407  0.1350
 1229PYPI   C3B18491   7.396   4.433   6.534 -0.1924 -0.0908  0.1513
 1229PYPI   C4B18492   7.241   4.103   6.805  0.0627 -0.0132 -0.1730
 1230PYPI    C118493   8.545  18.295   5.309 -0.0750 -0.1380 -0.1176
 1230PYPI    C218494   8.904  18.405   5.170 -0.1059 -0.0087 -0.0958
 1230PYPI    C318495   8.572  18.493   4.963 -0.1286 -0.0909 -0.0949
 1230PYPI   PO418496   8.586  18.202   5.454  0.0269 -0.0864 -0.3213
 1230PYPI   GL118497   8.713  18.302   5.881 -0.3373 -0.0994  0.1234
 1230PYPI   GL218498   8.418  18.555   5.842  0.2964  0.2270  0.2769
 1230PYPI   C1A18499   9.009  18.010   6.069 -0.1230  0.1223  0.2131
 1230PYPI   C2A18500   8.963  17.615   6.115  0.1106 -0.0180 -0.1534
 1230PYPI   D3A18501   9.183  17.330   6.306  0.0905  0.1178 -0.2027
 1230PYPI   C4A18502   9.042  17.212   6.656  0.2520 -0.2531  0.0548
 1230PYPI   C1B18503   8.329  18.389   6.236 -0.1707 -0.1271  0.2546
 1230PYPI   C2B18504   8.352  18.446   6.621 -0.1021  0.1172 -0.1237
 1230PYPI   C3B18505   8.391  18.272   7.012  0.2431 -0.0608 -0.0888
 1230PYPI   C4B18506   8.746  18.126   7.171  0.0218 -0.3073  0.0405
 1231PYPI    C118507  17.784   9.802   5.918 -0.0737 -0.0914 -0.0318
 1231PYPI    C218508  17.990   9.848   5.578 -0.0710 -0.1726 -0.0412
 1231PYPI    C318509  18.124   9.600   5.862 -0.1910 -0.2789 -0.0764
 1231PYPI   PO418510  17.517   9.731   5.903 -0.1273 -0.0938  0.1938
 1231PYPI   GL118511  17.220   9.775   6.179  0.1357 -0.1443 -0.0351
 1231PYPI   GL218512  17.328  10.126   6.174 -0.2095 -0.0255  0.1115
 1231PYPI   C1A18513  17.070   9.808   6.600  0.1290 -0.3829 -0.1293
 1231PYPI   C2A18514  17.123   9.749   7.098  0.0485  0.0883  0.0391
 1231PYPI   D3A18515  17.129   9.709   7.500 -0.0373  0.0346 -0.0419
 1231PYPI   C4A18516  16.847   9.946   7.794 -0.0118 -0.1846 -0.0789
 1231PYPI   C1B18517  17.523  10.010   6.495 -0.1916 -0.2314  0.2358
 1231PYPI   C2B18518  17.387  10.122   6.910 -0.1164 -0.0362 -0.0423
 1231PYPI   C3B18519  17.227  10.226   7.298  0.1746 -0.3923  0.2775
 1231PYPI   C4B18520  16.929  10.482   7.634 -0.1462 -0.2205  0.0391
 1232PYPI    C118521   0.676  16.814   5.326  0.4082 -0.1070  0.0037
 1232PYPI    C218522   0.570  16.722   4.952 -0.0255  0.1424  0.0585
 1232PYPI    C318523   0.792  17.047   5.023 -0.2163  0.2780  0.0424
 1232PYPI   PO418524   0.390  16.841   5.418 -0.2096 -0.1947  0.0558
 1232PYPI   GL118525   0.299  16.901   5.789  0.0064 -0.2199 -0.2749
 1232PYPI   GL218526  -0.022  16.544   5.725 -0.0172  0.0790 -0.1013
 1232PYPI   C1A18527   0.045  17.121   6.065 -0.3565 -0.2767 -0.0023
 1232PYPI   C2A18528  -0.093  17.144   6.435 -0.1306  0.1914 -0.2201
 1232PYPI   D3A18529  -0.315  16.845   6.699  0.0290  0.0030 -0.3319
 1232PYPI   C4A18530  -0.466  16.938   7.274 -0.3311  0.0307 -0.1073
 1232PYPI   C1B18531  -0.236  16.701   6.130 -0.1535 -0.1088  0.2998
 1232PYPI   C2B18532  -0.511  17.044   6.164 -0.3552  0.0336  0.2761
 1232PYPI   C3B18533  -0.569  17.235   6.532  0.3484  0.1478  0.0598
 1232PYPI   C4B18534  -0.327  17.342   6.910  0.2316  0.2252 -0.1899
 1233PYPI    C118535   7.133  14.221   5.336 -0.1089  0.0694  0.0755
 1233PYPI    C218536   7.298  14.566   5.218  0.1015 -0.0463  0.0278
 1233PYPI    C318537   7.411  14.221   5.048 -0.0960 -0.1411  0.0861
 1233PYPI   PO418538   7.051  14.171   5.532 -0.0980 -0.0204  0.1400
 1233PYPI   GL118539   7.217  14.335   5.871  0.0032 -0.1567 -0.4520
 1233PYPI   GL218540   7.313  14.674   5.978  0.0541  0.1183 -0.0678
 1233PYPI   C1A18541   7.093  14.282   6.210 -0.1911  0.3032  0.0169
 1233PYPI   C2A18542   7.004  14.553   6.581  0.0985 -0.0949  0.0869
 1233PYPI   D3A18543   7.046  14.759   6.973  0.2494 -0.2703 -0.3498
 1233PYPI   C4A18544   7.352  14.705   7.070  0.1545  0.0283  0.1229
 1233PYPI   C1B18545   7.456  14.616   6.355  0.0534  0.0683  0.0603
 1233PYPI   C2B18546   7.479  14.357   6.765 -0.2459  0.0925  0.2003
 1233PYPI   C3B18547   7.891  14.371   7.059  0.1933  0.0886 -0.2354
 1233PYPI   C4B18548   8.256  14.591   7.179  0.0593  0.0300 -0.1650
 1234PYPI    C118549   7.909  12.110   5.344 -0.0907  0.2130 -0.3137
 1234PYPI    C218550   8.193  12.187   5.616 -0.1470 -0.1087 -0.1595
 1234PYPI    C318551   8.167  12.411   5.286  0.1010  0.1070 -0.0364
 1234PYPI   PO418552   7.862  11.793   5.425 -0.1767  0.1109 -0.0704
 1234PYPI   GL118553   7.812  11.453   5.711  0.2062 -0.1800 -0.0921
 1234PYPI   GL218554   8.138  11.620   5.840 -0.0878 -0.3061 -0.0387
 1234PYPI   C1A18555   7.715  11.521   6.172  0.0284  0.0227 -0.1401
 1234PYPI   C2A18556   7.820  11.526   6.634  0.0969 -0.0922 -0.0759
 1234PYPI   D3A18557   7.652  11.350   7.032  0.0959 -0.0703  0.0821
 1234PYPI   C4A18558   7.741  10.915   7.179 -0.0047 -0.1067 -0.0042
 1234PYPI   C1B18559   8.481  11.505   6.053 -0.0788  0.0264  0.0665
 1234PYPI   C2B18560   8.572  11.362   6.445  0.0870  0.0167  0.0213
 1234PYPI   C3B18561   8.673  11.368   6.899 -0.3449  0.3707 -0.1622
 1234PYPI   C4B18562   8.721  11.730   7.225 -0.3157 -0.1428  0.5528
 1235PYPI    C118563  13.040  17.952   5.222  0.0797  0.0563  0.1160
 1235PYPI    C218564  12.886  18.264   5.024 -0.0868  0.0503  0.2337
 1235PYPI    C318565  13.267  18.157   4.965 -0.0574  0.2149  0.1195
 1235PYPI   PO418566  12.834  17.945   5.454  0.2254 -0.0050 -0.0288
 1235PYPI   GL118567  12.941  17.984   5.780 -0.0424  0.0503 -0.3409
 1235PYPI   GL218568  13.233  18.166   5.902  0.2175  0.2138  0.0084
 1235PYPI   C1A18569  13.279  17.733   6.103 -0.1896 -0.2366  0.0609
 1235PYPI   C2A18570  13.359  17.742   6.577 -0.1576  0.2061  0.0751
 1235PYPI   D3A18571  13.420  17.994   6.898  0.0831  0.2757  0.0815
 1235PYPI   C4A18572  13.779  18.244   7.065  0.0692 -0.0206 -0.0443
 1235PYPI   C1B18573  13.025  18.060   6.313 -0.1811 -0.0750  0.0904
 1235PYPI   C2B18574  12.999  18.248   6.694 -0.0979 -0.2124  0.0399
 1235PYPI   C3B18575  12.928  18.261   7.101 -0.1321 -0.1688  0.0484
 1235PYPI   C4B18576  13.258  18.271   7.392  0.0587 -0.0533  0.1863
 1236PYPI    C118577   8.818   3.189   5.109  0.0042  0.0472 -0.1214
 1236PYPI    C218578   8.915   2.839   4.941 -0.0131  0.0822 -0.2048
 1236PYPI    C318579   8.908   3.172   4.720 -0.0744  0.1222 -0.1431
 1236PYPI   PO418580   8.973   3.164   5.372  0.1198 -0.0712 -0.0645
 1236PYPI   GL118581   8.814   3.038   5.685 -0.2594 -0.0566 -0.2930
 1236PYPI   GL218582   8.505   3.018   5.563  0.0267 -0.3605  0.1451
 1236PYPI   C1A18583   8.740   3.359   6.045 -0.1320  0.3250  0.0421
 1236PYPI   C2A18584   8.931   3.494   6.474  0.3665  0.0483 -0.2434
 1236PYPI   D3A18585   9.204   3.859   6.433 -0.0512 -0.6529  0.0212
 1236PYPI   C4A18586   9.444   3.851   6.047 -0.3336 -0.2392  0.2746
 1236PYPI   C1B18587   8.383   2.937   5.968  0.2411 -0.0561  0.2593
 1236PYPI   C2B18588   8.268   3.026   6.329 -0.0401  0.5742  0.1131
 1236PYPI   C3B18589   8.306   3.022   6.738 -0.0534 -0.1001  0.1060
 1236PYPI   C4B18590   8.250   2.834   7.150 -0.0090  0.0689 -0.0190
 1237PYPI    C118591   0.618   3.468   5.081  0.0289  0.1176  0.0852
 1237PYPI    C218592   0.668   3.639   4.723  0.1617 -0.1483 -0.0261
 1237PYPI    C318593   0.327   3.449   4.808  0.0145  0.1640  0.0973
 1237PYPI   PO418594   0.872   3.588   5.225  0.1126  0.0281  0.0109
 1237PYPI   GL118595   1.163   3.568   5.534 -0.0821 -0.1386  0.0349
 1237PYPI   GL218596   1.559   3.730   5.634  0.0147 -0.4666  0.1981
 1237PYPI   C1A18597   1.254   3.368   5.947 -0.2888 -0.0173 -0.2470
 1237PYPI   C2A18598   1.341   3.362   6.385  0.1338  0.1709  0.1043
 1237PYPI   D3A18599   1.243   3.203   6.754  0.0330  0.1764 -0.1730
 1237PYPI   C4A18600   1.340   2.921   7.008 -0.1965  0.2174  0.2506
 1237PYPI   C1B18601   1.770   3.268   5.754  0.0623  0.1104 -0.1048
 1237PYPI   C2B18602   1.867   3.065   6.266  0.2536  0.0565 -0.3826
 1237PYPI   C3B18603   1.888   3.278   6.647 -0.3059 -0.1351 -0.0345
 1237PYPI   C4B18604   1.853   3.227   7.107 -0.1199  0.2459 -0.1708
 1238PYPI    C118605  17.446  12.368   5.173  0.0763 -0.1183  0.2600
 1238PYPI    C218606  17.348  12.045   4.958  0.0493  0.1400 -0.1260
 1238PYPI    C318607  17.072  12.225   5.185  0.1035 -0.1940  0.2139
 1238PYPI   PO418608  17.590  12.295   5.347 -0.0508 -0.0874  0.1272
 1238PYPI   GL118609  17.595  12.219   5.718  0.0112  0.1691 -0.1889
 1238PYPI   GL218610  17.887  12.372   5.832 -0.1487 -0.2520 -0.0333
 1238PYPI   C1A18611  17.458  12.394   6.091  0.0257  0.1615  0.0878
 1238PYPI   C2A18612  17.262  12.519   6.492  0.1984  0.0566 -0.1780
 1238PYPI   D3A18613  17.331  12.500   6.878 -0.1819  0.1238  0.2546
 1238PYPI   C4A18614  17.199  12.313   7.338  0.0674  0.0143  0.0627
 1238PYPI   C1B18615  17.907  12.379   6.334 -0.2641 -0.3142 -0.0183
 1238PYPI   C2B18616  17.917  12.532   6.712 -0.2489 -0.3625  0.2342
 1238PYPI   C3B18617  17.754  12.537   7.113 -0.4151  0.0069  0.1740
 1238PYPI   C4B18618  17.520  12.662   7.459  0.0139 -0.2054  0.1132
 1239PYPI    C118619  16.893   7.215   5.135 -0.0368 -0.0803 -0.1607
 1239PYPI    C218620  17.189   7.207   4.866 -0.0094 -0.0611 -0.1312
 1239PYPI    C318621  16.868   6.973   4.817  0.0324 -0.1175 -0.1381
 1239PYPI   PO418622  16.951   7.167   5.385 -0.2607 -0.0959 -0.1802
 1239PYPI   GL118623  17.121   7.309   5.697  0.1649  0.0418  0.2163
 1239PYPI   GL218624  17.309   7.607   5.773  0.1526 -0.0734 -0.0729
 1239PYPI   C1A18625  17.224   7.124   6.168 -0.0318  0.3519  0.0527
 1239PYPI   C2A18626  17.386   7.025   6.570 -0.1889  0.0874  0.1635
 1239PYPI   D3A18627  17.154   6.983   6.859 -0.1482 -0.1382 -0.0471
 1239PYPI   C4A18628  17.097   7.122   7.212  0.3360  0.0657 -0.2052
 1239PYPI   C1B18629  17.412   7.621   6.164  0.2246  0.1349 -0.3729
 1239PYPI   C2B18630  17.720   7.590   6.450 -0.1237 -0.0094  0.1399
 1239PYPI   C3B18631  17.923   7.523   6.754  0.1336 -0.1122  0.2386
 1239PYPI   C4B18632  18.148   7.539   7.182  0.1103  0.0850  0.1330
 1240PYPI    C118633   0.408   8.302   4.987  0.1613 -0.2414  0.0339
 1240PYPI    C218634   0.063   8.206   4.810  0.2153 -0.1694 -0.1122
 1240PYPI    C318635   0.356   8.376   4.597  0.3017 -0.1331  0.0346
 1240PYPI   PO418636   0.312   8.475   5.265 -0.1831 -0.2194  0.0452
 1240PYPI   GL118637   0.386   8.489   5.757  0.0959 -0.1085 -0.0364
 1240PYPI   GL218638   0.035   8.355   5.764  0.1313 -0.2582  0.0234
 1240PYPI   C1A18639   0.684   8.459   6.054  0.0178  0.0676 -0.0365
 1240PYPI   C2A18640   0.818   8.356   6.427  0.0840 -0.1237  0.0551
 1240PYPI   D3A18641   0.895   8.308   6.796 -0.2564 -0.0123  0.0207
 1240PYPI   C4A18642   1.342   8.300   6.952 -0.0707 -0.1409 -0.1881
 1240PYPI   C1B18643   0.167   8.584   6.166 -0.2442 -0.0213  0.0553
 1240PYPI   C2B18644   0.235   8.688   6.629 -0.0683 -0.0803  0.0611
 1240PYPI   C3B18645   0.159   8.785   7.057 -0.2600 -0.2722 -0.2463
 1240PYPI   C4B18646   0.011   8.895   7.421  0.1841 -0.2512 -0.0704
 1241PYPI    C118647  13.331   4.241   5.282  0.1630 -0.1361  0.2323
 1241PYPI    C218648  13.132   4.031   5.006 -0.1726  0.1584  0.2432
 1241PYPI    C318649  13.528   4.080   4.973 -0.1744 -0.0064 -0.0566
 1241PYPI   PO418650  13.248   4.210   5.472 -0.0457  0.2092 -0.1097
 1241PYPI   GL118651  12.858   4.281   5.735  0.0413  0.0266 -0.2148
 1241PYPI   GL218652  12.657   4.600   5.722  0.0428 -0.1692 -0.0479
 1241PYPI   C1A18653  12.789   4.216   6.168 -0.1706 -0.1321 -0.0708
 1241PYPI   C2A18654  12.782   4.224   6.542  0.0454  0.0376 -0.3370
 1241PYPI   D3A18655  12.566   4.293   6.924  0.0269  0.1114 -0.2173
 1241PYPI   C4A18656  12.430   3.944   7.126 -0.0795 -0.0592 -0.3623
 1241PYPI   C1B18657  12.579   4.690   6.114  0.0750  0.0890  0.0069
 1241PYPI   C2B18658  12.148   4.771   6.171 -0.0887 -0.0589 -0.1431
 1241PYPI   C3B18659  11.662   4.912   6.031 -0.1097  0.0890  0.0247
 1241PYPI   C4B18660  11.514   5.277   6.043  0.0346 -0.2498 -0.1166
 1242PYPI    C118661   8.516   8.504   5.119  0.1185 -0.1827 -0.1199
 1242PYPI    C218662   8.258   8.805   5.062 -0.0385 -0.2220  0.3446
 1242PYPI    C318663   8.513   8.703   4.771 -0.2193  0.1298  0.0545
 1242PYPI   PO418664   8.354   8.406   5.379  0.1630  0.2535  0.0588
 1242PYPI   GL118665   8.307   8.513   5.795  0.0725  0.2068  0.0374
 1242PYPI   GL218666   8.108   8.134   5.826 -0.0264  0.1510 -0.1312
 1242PYPI   C1A18667   8.409   8.578   6.168 -0.5110 -0.1429 -0.0542
 1242PYPI   C2A18668   8.247   8.737   6.603  0.1329 -0.1164  0.1208
 1242PYPI   D3A18669   7.985   8.890   6.798  0.2338 -0.1131  0.2184
 1242PYPI   C4A18670   7.895   8.837   7.226 -0.0129 -0.1092  0.1017
 1242PYPI   C1B18671   8.193   8.128   6.324  0.1560 -0.1947  0.2630
 1242PYPI   C2B18672   8.336   8.264   6.578  0.3520  0.0645  0.1308
 1242PYPI   C3B18673   8.192   8.347   6.949  0.2793  0.1288  0.2137
 1242PYPI   C4B18674   8.215   8.411   7.411  0.0924  0.0393 -0.3577
 1243PYPI    C118675   4.663   7.116   5.145 -0.2576 -0.2437  0.2598
 1243PYPI    C218676   4.570   7.014   4.769 -0.0943  0.1384  0.1108
 1243PYPI    C318677   4.464   7.373   4.911 -0.1418  0.0025  0.4277
 1243PYPI   PO418678   4.915   7.075   5.188  0.0497 -0.2093  0.3474
 1243PYPI   GL118679   5.263   7.401   5.272  0.0640  0.0493  0.1384
 1243PYPI   GL218680   5.179   7.317   5.596 -0.2004  0.1423  0.2945
 1243PYPI   C1A18681   5.029   7.731   5.659  0.0341 -0.0747  0.4135
 1243PYPI   C2A18682   4.724   7.807   6.023 -0.0593 -0.0169 -0.0932
 1243PYPI   D3A18683   4.560   7.842   6.463 -0.1288 -0.2453 -0.0507
 1243PYPI   C4A18684   4.610   8.061   6.839  0.0433 -0.2418  0.0647
 1243PYPI   C1B18685   5.278   7.117   5.940  0.1460  0.1929 -0.1174
 1243PYPI   C2B18686   5.294   7.049   6.416 -0.1647 -0.0215 -0.0379
 1243PYPI   C3B18687   5.226   7.204   6.812 -0.3431  0.0119 -0.1957
 1243PYPI   C4B18688   5.219   7.192   7.266  0.0498 -0.0379  0.0449
 1244PYPI    C118689  13.532   4.991   5.362  0.1688  0.0826  0.0719
 1244PYPI    C218690  13.521   4.667   5.128  0.0109  0.1868 -0.0683
 1244PYPI    C318691  13.325   4.998   5.019 -0.0747  0.2335  0.2182
 1244PYPI   PO418692  13.477   4.978   5.562 -0.0871  0.2399  0.1820
 1244PYPI   GL118693  13.561   5.272   5.933 -0.2523 -0.1873  0.0324
 1244PYPI   GL218694  13.903   5.236   6.059 -0.2208 -0.2149 -0.1706
 1244PYPI   C1A18695  13.568   5.330   6.373 -0.1021  0.0200 -0.1482
 1244PYPI   C2A18696  13.585   5.173   6.806 -0.1278 -0.1018  0.2156
 1244PYPI   D3A18697  13.580   5.128   7.242 -0.0499 -0.3785  0.2956
 1244PYPI   C4A18698  13.832   5.409   7.515 -0.1131 -0.0680  0.1602
 1244PYPI   C1B18699  14.042   5.328   6.505  0.1692  0.3009  0.0573
 1244PYPI   C2B18700  14.071   5.355   6.944 -0.3739 -0.0508 -0.1272
 1244PYPI   C3B18701  14.331   5.300   7.293  0.4346 -0.1940 -0.1174
 1244PYPI   C4B18702  14.486   5.120   7.686  0.0999  0.2866  0.1257
 1245PYPI    C118703  11.057   8.720   5.110 -0.0699 -0.0697  0.1478
 1245PYPI    C218704  10.708   8.652   5.292 -0.2287 -0.0418 -0.1414
 1245PYPI    C318705  10.715   8.778   4.912  0.0966 -0.0384 -0.1370
 1245PYPI   PO418706  11.170   8.897   5.270  0.0179 -0.1562 -0.2374
 1245PYPI   GL118707  11.101   9.177   5.602  0.0907 -0.3068  0.0540
 1245PYPI   GL218708  11.070   8.956   5.801  0.1610  0.0321  0.1892
 1245PYPI   C1A18709  10.831   9.382   5.816  0.1536  0.3394  0.0168
 1245PYPI   C2A18710  10.882   9.613   6.107  0.0062 -0.1175  0.0038
 1245PYPI   D3A18711  11.313   9.763   6.344 -0.0250 -0.1276  0.0081
 1245PYPI   C4A18712  11.404   9.702   6.762 -0.2529 -0.0580  0.2496
 1245PYPI   C1B18713  11.054   8.749   6.164  0.1141 -0.0372  0.1653
 1245PYPI   C2B18714  11.283   8.699   6.476  0.0446  0.0745  0.0460
 1245PYPI   C3B18715  11.211   8.712   6.913  0.0832  0.1627  0.2751
 1245PYPI   C4B18716  11.422   8.862   7.306 -0.1718 -0.0245  0.0930
 1246PYPI    C118717   5.929  10.699   4.941 -0.1200 -0.0199  0.0146
 1246PYPI    C218718   6.109  10.394   5.128  0.1432  0.2079  0.1398
 1246PYPI    C318719   6.290  10.576   4.821 -0.1234  0.0793 -0.0987
 1246PYPI   PO418720   5.943  10.850   5.060 -0.1098 -0.3476 -0.0367
 1246PYPI   GL118721   6.194  11.033   5.564  0.4644 -0.0962 -0.0024
 1246PYPI   GL218722   6.418  10.846   5.504  0.0341 -0.0851 -0.2089
 1246PYPI   C1A18723   5.782  10.900   5.721 -0.1329 -0.1621 -0.2477
 1246PYPI   C2A18724   5.411  11.016   5.877 -0.1280 -0.2368  0.0585
 1246PYPI   D3A18725   5.175  11.133   6.177  0.0968  0.1802  0.1329
 1246PYPI   C4A18726   5.374  11.022   6.568  0.0111  0.1668 -0.0470
 1246PYPI   C1B18727   6.619  10.683   5.826 -0.1163 -0.1000  0.1150
 1246PYPI   C2B18728   6.648  10.602   6.258  0.0280 -0.0488  0.0468
 1246PYPI   C3B18729   6.545  10.523   6.687  0.2914 -0.1646 -0.1883
 1246PYPI   C4B18730   6.426  10.555   7.200 -0.1329 -0.0410  0.1337
 1247PYPI    C118731  10.231  18.324   5.044  0.0709  0.4422 -0.2492
 1247PYPI    C218732   9.863  18.193   4.955  0.1355  0.1008 -0.0349
 1247PYPI    C318733  10.128  18.261   4.663  0.0303 -0.0412 -0.1650
 1247PYPI   PO418734  10.140  18.286   5.419  0.0852 -0.0437 -0.1849
 1247PYPI   GL118735  10.069  18.463   5.862  0.0557 -0.2671  0.0533
 1247PYPI   GL218736   9.807  18.357   5.833  0.0258  0.1403 -0.2008
 1247PYPI   C1A18737  10.463  18.692   6.118  0.0505 -0.0358 -0.1982
 1247PYPI   C2A18738  10.806  18.644   6.275  0.0337 -0.1989 -0.1635
 1247PYPI   D3A18739  11.004  18.867   6.584 -0.0371  0.0883  0.1625
 1247PYPI   C4A18740  11.266  19.285   6.523  0.1273 -0.0514 -0.0943
 1247PYPI   C1B18741   9.863  18.227   6.241 -0.1407 -0.1873 -0.4627
 1247PYPI   C2B18742   9.826  18.171   6.712  0.1795  0.2845  0.1444
 1247PYPI   C3B18743   9.726  18.084   7.138  0.0040  0.0568  0.0065
 1247PYPI   C4B18744   9.561  18.013   7.509  0.1038 -0.1333 -0.3421
 1248ERGO   ROH18745  11.000  13.991   5.574 -0.1109 -0.0226 -0.1584
 1248ERGO    R118746  11.091  13.895   5.824 -0.0220 -0.0637 -0.2065
 1248ERGO    R218747  10.919  13.830   6.030  0.0567 -0.0187 -0.1303
 1248ERGO    R318748  11.051  13.593   6.023 -0.0217 -0.0610 -0.2003
 1248ERGO    R418749  11.049  13.670   6.307  0.2203 -0.0127 -0.2021
 1248ERGO    R518750  11.224  13.617   6.187  0.1155 -0.0853 -0.3343
 1248ERGO    C118751  11.248  13.353   6.462  0.2420 -0.0489 -0.3095
 1248ERGO    C218752  11.340  13.214   6.806 -0.0411 -0.1859 -0.0635
 1249ERGO   ROH18753   1.759   0.165   5.835 -0.2827 -0.1447  0.0198
 1249ERGO    R118754   1.603   0.186   6.070 -0.1797 -0.1405  0.0891
 1249ERGO    R218755   1.568  -0.024   6.246  0.1277 -0.0569  0.2584
 1249ERGO    R318756   1.658   0.156   6.428  0.0459  0.1651  0.0841
 1249ERGO    R418757   1.480  -0.021   6.580  0.2516  0.1302  0.2905
 1249ERGO    R518758   1.469   0.197   6.570  0.0641  0.1157  0.1223
 1249ERGO    C118759   1.512   0.150   6.946  0.2470  0.4475  0.1456
 1249ERGO    C218760   1.542  -0.089   7.197 -0.0294 -0.0639 -0.0892
 1250ERGO   ROH18761   8.580   5.650   5.471 -0.0158  0.0743  0.0154
 1250ERGO    R118762   8.771   5.669   5.680  0.0819  0.1822 -0.0820
 1250ERGO    R218763   8.808   5.900   5.827 -0.0386  0.1772 -0.0384
 1250ERGO    R318764   8.766   5.733   6.038  0.2165  0.0797 -0.0615
 1250ERGO    R418765   8.762   6.003   6.154 -0.1909  0.0578 -0.0215
 1250ERGO    R518766   8.885   5.835   6.219  0.0656  0.2342 -0.0489
 1250ERGO    C118767   8.695   5.906   6.542 -0.0400 -0.1033 -0.0333
 1250ERGO    C218768   8.631   5.881   6.817 -0.0497 -0.0529  0.1109
 1251ERGO   ROH18769  11.439   8.492   5.829 -0.0595  0.1112 -0.0224
 1251ERGO    R118770  11.327   8.395   6.071  0.0362  0.0583  0.0006
 1251ERGO    R218771  11.320   8.126   6.134  0.1393  0.0532 -0.0171
 1251ERGO    R318772  11.445   8.209   6.360  0.1725  0.0749 -0.0428
 1251ERGO    R418773  11.295   7.972   6.442  0.1262  0.1200  0.0159
 1251ERGO    R518774  11.286   8.169   6.535  0.1733  0.1432 -0.0236
 1251ERGO    C118775  11.398   7.960   6.834  0.1498  0.1793  0.0110
 1251ERGO    C218776  11.580   7.987   7.013 -0.1894  0.1228  0.0740
 1252ERGO   ROH18777  16.176  11.107   6.077 -0.1704 -0.2004  0.0756
 1252ERGO    R118778  16.209  10.941   6.304 -0.1288 -0.1464  0.1093
 1252ERGO    R218779  16.362  11.014   6.521 -0.0603 -0.1102  0.0477
 1252ERGO    R318780  16.134  10.961   6.659 -0.0284 -0.0472  0.1257
 1252ERGO    R418781  16.338  11.002   6.866  0.1036 -0.3045  0.0540
 1252ERGO    R518782  16.206  10.829   6.845 -0.0191 -0.2094  0.0106
 1252ERGO    C118783  16.110  10.945   7.196  0.2289 -0.3585  0.1310
 1252ERGO    C218784  16.031  11.000   7.671 -0.0051  0.2768  0.3460
 1253ERGO   ROH18785  12.670   2.386   5.872  0.2701 -0.2543  0.0646
 1253ERGO    R118786  12.598   2.300   6.132  0.2779 -0.0338  0.1423
 1253ERGO    R218787  12.595   2.470   6.350  0.0486  0.2130 -0.0451
 1253ERGO    R318788  12.339   2.381   6.375  0.1254 -0.0081 -0.0266
 1253ERGO    R418789  12.432   2.423   6.651  0.0704  0.1858 -0.0377
 1253ERGO    R518790  12.345   2.240   6.569  0.2398  0.0736  0.0299
 1253ERGO    C118791  12.096   2.312   6.850  0.1553 -0.0375 -0.0161
 1253ERGO    C218792  11.820   2.302   6.944  0.1101 -0.0820 -0.1201
 1254ERGO   ROH18793   0.095  13.129   5.544 -0.1321  0.0953 -0.0755
 1254ERGO    R118794   0.094  13.003   5.797  0.0373  0.0160 -0.1126
 1254ERGO    R218795   0.284  13.057   5.991 -0.0253  0.2060 -0.1005
 1254ERGO    R318796   0.065  13.108   6.145 -0.0927 -0.1232 -0.0811
 1254ERGO    R418797   0.290  13.114   6.332 -0.0810  0.2465 -0.1061
 1254ERGO    R518798   0.109  12.994   6.351  0.1068 -0.0377 -0.0765
 1254ERGO    C118799   0.089  13.195   6.674 -0.1768 -0.0390 -0.0911
 1254ERGO    C218800  -0.020  13.213   7.050 -0.0600 -0.0632  0.1712
 1255ERGO   ROH18801   6.668  11.643   5.852 -0.0105  0.1112 -0.0086
 1255ERGO    R118802   6.727  11.620   6.128 -0.0806 -0.1256 -0.0108
 1255ERGO    R218803   6.859  11.817   6.269  0.1861 -0.3843  0.1192
 1255ERGO    R318804   6.643  11.799   6.433  0.1318 -0.1672  0.0735
 1255ERGO    R418805   6.805  12.016   6.547  0.1668 -0.1230 -0.0679
 1255ERGO    R518806   6.731  11.839   6.652  0.0773 -0.0051  0.0651
 1255ERGO    C118807   6.571  12.114   6.863  0.1045  0.2330 -0.2199
 1255ERGO    C218808   6.294  12.380   7.081 -0.4362 -0.0549  0.0456
 1256ERGO   ROH18809   8.604   6.717   5.636 -0.1712 -0.0190  0.0138
 1256ERGO    R118810   8.676   6.909   5.831 -0.1515  0.0564 -0.0657
 1256ERGO    R218811   8.498   7.097   5.926 -0.1665  0.0478 -0.0619
 1256ERGO    R318812   8.571   6.996   6.168 -0.0646  0.1302 -0.0586
 1256ERGO    R418813   8.508   7.278   6.221 -0.0649  0.1345 -0.1188
 1256ERGO    R518814   8.693   7.174   6.273 -0.0400  0.1683 -0.1588
 1256ERGO    C118815   8.582   7.288   6.619  0.0898  0.2623 -0.1487
 1256ERGO    C218816   8.363   7.404   6.915  0.0067 -0.1951 -0.2470
 1257ERGO   ROH18817   7.752  10.896   5.692 -0.4681 -0.2127 -0.0636
 1257ERGO    R118818   7.714  11.036   5.935 -0.0942 -0.1475 -0.0357
 1257ERGO    R218819   7.464  11.077   6.046  0.0311  0.2333  0.1348
 1257ERGO    R318820   7.577  10.962   6.264  0.0115  0.0593  0.0548
 1257ERGO    R418821   7.345  11.107   6.369 -0.0029 -0.0491  0.1512
 1257ERGO    R518822   7.551  11.126   6.438 -0.0176 -0.0919  0.1902
 1257ERGO    C118823   7.383  11.018   6.763 -0.0411 -0.3768  0.0856
 1257ERGO    C218824   7.163  10.976   7.094 -0.2432 -0.0133 -0.0183
 1258ERGO   ROH18825  12.825  14.834   5.998  0.0834  0.1571  0.0868
 1258ERGO    R118826  12.642  14.767   6.204 -0.0273  0.2919  0.0317
 1258ERGO    R218827  12.720  14.642   6.438 -0.2239  0.0073 -0.0602
 1258ERGO    R318828  12.595  14.853   6.554  0.0906  0.1174  0.0953
 1258ERGO    R418829  12.696  14.695   6.778 -0.2123 -0.2801 -0.0107
 1258ERGO    R518830  12.491  14.761   6.749 -0.1131  0.0904 -0.0120
 1258ERGO    C118831  12.565  14.925   7.086  0.0897 -0.3441  0.1641
 1258ERGO    C218832  12.731  14.986   7.458  0.0462 -0.1873 -0.3455
 1259ERGO   ROH18833  12.040  15.130   6.050  0.1075 -0.3370  0.0169
 1259ERGO    R118834  12.225  15.119   6.264  0.1288 -0.1454  0.0118
 1259ERGO    R218835  12.347  15.344   6.368  0.1243 -0.0454 -0.1846
 1259ERGO    R318836  12.246  15.250   6.602  0.1486  0.1404 -0.0991
 1259ERGO    R418837  12.470  15.423   6.681  0.2659  0.0540 -0.2645
 1259ERGO    R518838  12.439  15.215   6.740  0.1688  0.1072 -0.1414
 1259ERGO    C118839  12.447  15.381   7.084  0.3712  0.2862 -0.2308
 1259ERGO    C218840  12.379  15.382   7.420  0.0409 -0.1631  0.1103
 1260ERGO   ROH18841  14.411  13.871   5.980  0.0791  0.0635 -0.0950
 1260ERGO    R118842  14.417  13.824   6.259 -0.0522  0.0810 -0.0890
 1260ERGO    R218843  14.213  13.695   6.393 -0.0632 -0.0105 -0.1971
 1260ERGO    R318844  14.414  13.533   6.478 -0.0319  0.0904 -0.0753
 1260ERGO    R418845  14.221  13.536   6.700 -0.2117 -0.0705 -0.2225
 1260ERGO    R518846  14.434  13.582   6.712 -0.2450  0.0547 -0.0458
 1260ERGO    C118847  14.415  13.292   6.959 -0.2688 -0.0105 -0.1229
 1260ERGO    C218848  14.490  13.171   7.270  0.1244 -0.1658 -0.2494
 1261ERGO   ROH18849  13.920   9.778   5.676  0.0215 -0.1534  0.0972
 1261ERGO    R118850  13.971   9.738   5.951 -0.0489 -0.1488  0.1105
 1261ERGO    R218851  13.905   9.925   6.144 -0.1192 -0.1577  0.0906
 1261ERGO    R318852  13.774   9.714   6.256 -0.1278 -0.1701  0.0591
 1261ERGO    R418853  13.811   9.904   6.476 -0.1684 -0.1757  0.0763
 1261ERGO    R518854  13.869   9.694   6.475 -0.1580 -0.1758  0.0741
 1261ERGO    C118855  13.633   9.695   6.775 -0.2050 -0.1981  0.0384
 1261ERGO    C218856  13.437   9.529   7.021  0.0325 -0.1296 -0.0501
 1262ERGO   ROH18857  17.272  11.903   6.114  0.1336  0.0334  0.0225
 1262ERGO    R118858  17.428  11.887   6.350  0.2404  0.1089 -0.0410
 1262ERGO    R218859  17.536  12.111   6.472 -0.0488  0.1999  0.0714
 1262ERGO    R318860  17.406  12.015   6.690  0.1600 -0.1459  0.0498
 1262ERGO    R418861  17.659  12.119   6.794  0.0669  0.0790  0.0304
 1262ERGO    R518862  17.579  11.919   6.825  0.3306 -0.0452 -0.1008
 1262ERGO    C118863  17.609  12.034   7.187  0.3305 -0.3161 -0.0137
 1262ERGO    C218864  17.609  12.147   7.568  0.0015  0.0584  0.2875
 1263ERGO   ROH18865   8.287   4.099   5.528 -0.3630 -0.0986 -0.0997
 1263ERGO    R118866   8.156   4.120   5.778 -0.3160 -0.2661 -0.0608
 1263ERGO    R218867   8.171   3.922   5.972  0.1146 -0.1841 -0.0088
 1263ERGO    R318868   8.254   4.129   6.128 -0.2075  0.0175 -0.0941
 1263ERGO    R418869   8.084   3.968   6.303  0.2984 -0.3809  0.0696
 1263ERGO    R518870   8.064   4.180   6.264 -0.2208 -0.4102  0.0729
 1263ERGO    C118871   8.111   4.188   6.643  0.1030 -0.3062  0.0352
 1263ERGO    C218872   8.262   4.198   6.834  0.0590  0.0587 -0.0731
 1264ERGO   ROH18873   0.987  10.114   6.154 -0.0796 -0.0204  0.1570
 1264ERGO    R118874   1.199  10.189   6.327 -0.0420 -0.3931  0.2854
 1264ERGO    R218875   1.241  10.451   6.406  0.6377 -0.3688 -0.0531
 1264ERGO    R318876   1.230  10.344   6.655  0.0152 -0.0011  0.0983
 1264ERGO    R418877   1.352  10.607   6.693  0.3779 -0.1586 -0.0633
 1264ERGO    R518878   1.432  10.416   6.760 -0.0534 -0.1986  0.3588
 1264ERGO    C118879   1.407  10.596   7.095 -0.3577  0.3089  0.0729
 1264ERGO    C218880   1.615  10.759   7.344  0.2196 -0.2134 -0.1588
 1265ERGO   ROH18881   4.334  14.465   5.893 -0.0209  0.1621  0.2048
 1265ERGO    R118882   4.344  14.330   6.142 -0.0617  0.2462  0.2527
 1265ERGO    R218883   4.243  14.440   6.375 -0.3578  0.2089  0.1459
 1265ERGO    R318884   4.102  14.208   6.385 -0.1152  0.0579  0.1075
 1265ERGO    R418885   4.185  14.257   6.662 -0.0446  0.0268  0.0960
 1265ERGO    R518886   4.219  14.075   6.547  0.0942  0.1075  0.0023
 1265ERGO    C118887   4.020  13.931   6.839  0.3656 -0.2211  0.0308
 1265ERGO    C218888   4.042  13.875   7.267  0.3310  0.2573 -0.1191
 1266ERGO   ROH18889  15.800  14.836   5.961  0.1869 -0.1367 -0.0014
 1266ERGO    R118890  15.860  14.739   6.220  0.2028  0.0695  0.0740
 1266ERGO    R218891  15.971  14.898   6.417  0.0769  0.2651 -0.0128
 1266ERGO    R318892  15.756  14.813   6.561  0.1044  0.2343  0.0103
 1266ERGO    R418893  15.962  14.874   6.761  0.2017  0.0435 -0.0232
 1266ERGO    R518894  15.852  14.686   6.740  0.1373  0.0869 -0.1066
 1266ERGO    C118895  15.756  14.780   7.097  0.3001 -0.1145 -0.0075
 1266ERGO    C218896  15.788  14.927   7.456  0.0308  0.1187  0.1684
 1267ERGO   ROH18897   9.699   8.321   5.663 -0.0204 -0.0003  0.0181
 1267ERGO    R118898   9.656   8.179   5.904 -0.0000  0.0110  0.0286
 1267ERGO    R218899   9.847   8.163   6.103  0.0125  0.0320  0.0204
 1267ERGO    R318900   9.645   8.258   6.259  0.0151  0.0314  0.0240
 1267ERGO    R418901   9.825   8.122   6.446 -0.0916 -0.1482 -0.0066
 1267ERGO    R518902   9.611   8.088   6.423 -0.0995 -0.0445 -0.0786
 1267ERGO    C118903   9.623   8.188   6.791 -0.1496 -0.2539 -0.0188
 1267ERGO    C218904   9.757   8.220   7.000  0.0009 -0.1069  0.0093
 1268ERGO   ROH18905  18.386   8.292   6.145 -0.3835 -0.3661  0.0578
 1268ERGO    R118906  18.478   8.318   6.412 -0.0787 -0.0530 -0.0699
 1268ERGO    R218907  18.428   8.542   6.565 -0.3079 -0.0643 -0.1335
 1268ERGO    R318908  18.326   8.362   6.740  0.2637 -0.1726  0.1108
 1268ERGO    R418909  18.379   8.601   6.902 -0.5248  0.2739 -0.2190
 1268ERGO    R518910  18.450   8.399   6.942  0.1479  0.5336  0.0822
 1268ERGO    C118911  18.254   8.466   7.263 -0.1145  0.3690 -0.0395
 1268ERGO    C218912  18.262   8.642   7.629  0.0365 -0.3009  0.1063
 1269ERGO   ROH18913   2.726  16.985   5.677  0.0311  0.1873  0.0214
 1269ERGO    R118914   2.581  16.896   5.903 -0.0893 -0.0552 -0.1456
 1269ERGO    R218915   2.503  16.633   5.936  0.3346 -0.2043 -0.2271
 1269ERGO    R318916   2.633  16.658   6.173  0.0152  0.0512 -0.0728
 1269ERGO    R418917   2.455  16.428   6.210  0.2427 -0.1391 -0.1954
 1269ERGO    R518918   2.468  16.604   6.337 -0.1221 -0.0703 -0.2527
 1269ERGO    C118919   2.549  16.332   6.592 -0.1105  0.1386 -0.0321
 1269ERGO    C218920   2.660  16.092   6.800 -0.0467  0.0580 -0.2239
 1270ERGO   ROH18921  15.531  12.989   6.050 -0.1977 -0.4261  0.0102
 1270ERGO    R118922  15.578  12.927   6.322 -0.2069 -0.3386  0.0306
 1270ERGO    R218923  15.613  13.122   6.515  0.0016 -0.2794 -0.0727
 1270ERGO    R318924  15.412  12.989   6.640 -0.0967 -0.0377  0.0351
 1270ERGO    R418925  15.580  13.094   6.858  0.0244 -0.0318 -0.0474
 1270ERGO    R518926  15.519  12.886   6.829 -0.1515 -0.0074  0.0889
 1270ERGO    C118927  15.373  12.952   7.175 -0.0546  0.3392  0.0685
 1270ERGO    C218928  15.327  12.986   7.378 -0.2137  0.1060 -0.0256
 1271ERGO   ROH18929  12.675  18.371   5.934 -0.1576 -0.0968 -0.0244
 1271ERGO    R118930  12.600  18.352   6.206 -0.2090 -0.1472 -0.0410
 1271ERGO    R218931  12.715  18.507   6.403  0.0006 -0.4146  0.0643
 1271ERGO    R318932  12.456  18.572   6.457  0.0815 -0.0789  0.0666
 1271ERGO    R418933  12.584  18.549   6.720  0.0060 -0.3959  0.0636
 1271ERGO    R518934  12.403  18.446   6.654 -0.1278 -0.1048 -0.0112
 1271ERGO    C118935  12.265  18.634   6.956  0.0850 -0.0697  0.0652
 1271ERGO    C218936  12.149  18.733   7.254  0.2613 -0.1698 -0.0943
 1272ERGO   ROH18937   8.047  17.631   5.972  0.0733  0.2726  0.0765
 1272ERGO    R118938   7.979  17.491   6.208  0.0666  0.1225 -0.0120
 1272ERGO    R218939   8.156  17.457   6.417  0.0286  0.0837  0.0201
 1272ERGO    R318940   7.955  17.568   6.563 -0.0539 -0.0674  0.0208
 1272ERGO    R418941   8.135  17.448   6.762  0.1059  0.1939  0.0277
 1272ERGO    R518942   7.920  17.412   6.743  0.1403 -0.0326  0.0860
 1272ERGO    C118943   7.934  17.546   7.100  0.0735  0.1162  0.0328
 1272ERGO    C218944   8.012  17.592   7.409 -0.2452  0.0604 -0.1177
 1273ERGO   ROH18945   4.817   2.975   5.576  0.0126  0.2326  0.0581
 1273ERGO    R118946   4.975   2.872   5.787 -0.0683  0.1722  0.0916
 1273ERGO    R218947   5.227   2.768   5.746 -0.1446 -0.0481  0.1233
 1273ERGO    R318948   5.297   2.948   5.938 -0.0047 -0.0364  0.0600
 1273ERGO    R418949   5.476   2.719   5.981 -0.1190 -0.1125  0.0810
 1273ERGO    R518950   5.347   2.813   6.130 -0.0317 -0.0067  0.0827
 1273ERGO    C118951   5.687   2.860   6.297  0.0273 -0.1390 -0.0028
 1273ERGO    C218952   6.047   2.888   6.402  0.2021  0.0826 -0.0499
 1274ERGO   ROH18953   2.240   1.400   5.812  0.3833  0.0987  0.2067
 1274ERGO    R118954   2.061   1.365   6.028  0.2468  0.1436  0.1037
 1274ERGO    R218955   2.047   1.130   6.173  0.0210  0.1033  0.0266
 1274ERGO    R318956   2.088   1.296   6.385  0.0198  0.0134  0.0969
 1274ERGO    R418957   2.002   1.043   6.505 -0.2504  0.0489 -0.0233
 1274ERGO    R518958   1.914   1.239   6.539 -0.1188  0.1062 -0.0252
 1274ERGO    C118959   2.013   1.148   6.896 -0.4095 -0.0671  0.0136
 1274ERGO    C218960   1.848   1.009   7.163 -0.1290  0.0612  0.3640
 1275ERGO   ROH18961   3.061   3.633   5.184 -0.0578  0.1814 -0.1049
 1275ERGO    R118962   3.014   3.668   5.461  0.0689  0.0997 -0.0723
 1275ERGO    R218963   2.798   3.555   5.591  0.0143  0.2288 -0.0505
 1275ERGO    R318964   2.991   3.455   5.755 -0.0141 -0.0126 -0.1594
 1275ERGO    R418965   2.763   3.508   5.932  0.1034  0.1437 -0.0522
 1275ERGO    R518966   2.967   3.580   5.958  0.1843 -0.0589 -0.1052
 1275ERGO    C118967   2.923   3.387   6.284  0.1287 -0.1324 -0.1554
 1275ERGO    C218968   2.715   3.203   6.642  0.2013 -0.1043  0.2133
 1276ERGO   ROH18969   4.299   0.347   6.319  0.0438 -0.0980 -0.0020
 1276ERGO    R118970   4.098   0.354   6.518 -0.1293 -0.0654 -0.1751
 1276ERGO    R218971   4.155   0.395   6.786 -0.3249 -0.3459 -0.0884
 1276ERGO    R318972   3.974   0.597   6.760 -0.1039 -0.1416 -0.0839
 1276ERGO    R418973   4.031   0.583   7.048 -0.2745 -0.3612 -0.0531
 1276ERGO    R518974   3.834   0.575   6.953 -0.2354 -0.1062 -0.1712
 1276ERGO    C118975   3.788   0.881   7.177 -0.0376 -0.1782 -0.0283
 1276ERGO    C218976   3.647   0.979   7.415  0.4343  0.1163  0.0772
 1277ERGO   ROH18977  14.493   4.072   5.875  0.2337 -0.0844  0.0580
 1277ERGO    R118978  14.467   3.959   6.134  0.4095 -0.0025  0.1126
 1277ERGO    R218979  14.551   4.090   6.363  0.1649  0.2638  0.0535
 1277ERGO    R318980  14.295   4.045   6.443  0.2308 -0.1435  0.0548
 1277ERGO    R418981  14.434   4.136   6.685 -0.0183  0.6113 -0.0569
 1277ERGO    R518982  14.318   3.953   6.663  0.3778  0.3035  0.2393
 1277ERGO    C118983  14.126   4.120   6.948 -0.0632  0.4312 -0.1198
 1277ERGO    C218984  14.009   4.330   7.202 -0.0038 -0.2194  0.0468
 1278ERGO   ROH18985  12.724   6.316   5.711 -0.0592  0.1176  0.2309
 1278ERGO    R118986  12.512   6.263   5.890 -0.1033  0.2487  0.2175
 1278ERGO    R218987  12.523   6.061   6.080 -0.3005  0.1395  0.1119
 1278ERGO    R318988  12.464   6.264   6.251 -0.0782  0.1144  0.2225
 1278ERGO    R418989  12.484   6.027   6.421 -0.2360  0.0102  0.1074
 1278ERGO    R518990  12.317   6.166   6.412 -0.1223  0.1636  0.2162
 1278ERGO    C118991  12.406   6.197   6.781  0.0101 -0.0887  0.2087
 1278ERGO    C218992  12.418   6.235   7.136  0.0546  0.1514 -0.0969
 1279ERGO   ROH18993   1.342  13.514   5.590  0.1294 -0.1438  0.0001
 1279ERGO    R118994   1.480  13.612   5.817  0.0302 -0.0323  0.0140
 1279ERGO    R218995   1.381  13.818   5.974 -0.1340 -0.0819 -0.0128
 1279ERGO    R318996   1.416  13.638   6.175 -0.0443 -0.0489  0.0002
 1279ERGO    R418997   1.390  13.896   6.310 -0.0651 -0.0510 -0.0225
 1279ERGO    R518998   1.552  13.753   6.334 -0.0325 -0.0083 -0.0463
 1279ERGO    C118999   1.428  13.773   6.695  0.0592 -0.0023 -0.0159
 1279ERGO    C219000   1.626  13.746   6.959 -0.2161  0.0296  0.2130
 1280ERGO   ROH19001   3.448  14.907   5.626 -0.1538  0.0716  0.0865
 1280ERGO    R119002   3.442  14.937   5.907 -0.0933  0.0214  0.0936
 1280ERGO    R219003   3.641  15.067   6.047  0.0251 -0.1530  0.0934
 1280ERGO    R319004   3.434  15.213   6.144  0.1452 -0.0165  0.1474
 1280ERGO    R419005   3.646  15.240   6.346  0.1765 -0.2320  0.1384
 1280ERGO    R519006   3.440  15.175   6.381  0.1303 -0.0812  0.1354
 1280ERGO    C119007   3.453  15.479   6.611  0.3774 -0.1498  0.2153
 1280ERGO    C219008   3.414  15.550   6.951  0.0747 -0.1988  0.1095
 1281ERGO   ROH19009   0.730   4.523   5.619 -0.1475 -0.0748 -0.0399
 1281ERGO    R119010   0.683   4.394   5.866 -0.0720 -0.0915 -0.0349
 1281ERGO    R219011   0.872   4.385   6.067 -0.0198 -0.0858 -0.0865
 1281ERGO    R319012   0.671   4.490   6.217  0.0105 -0.1120 -0.0256
 1281ERGO    R419013   0.843   4.354   6.410  0.1304 -0.0259 -0.0672
 1281ERGO    R519014   0.629   4.325   6.385  0.1259 -0.0919  0.0258
 1281ERGO    C119015   0.638   4.435   6.750  0.2463 -0.0155  0.0014
 1281ERGO    C219016   0.755   4.549   6.950  0.0916 -0.3612 -0.0694
 1282ERGO   ROH19017   4.793  16.779   5.979  0.0757  0.0913  0.2840
 1282ERGO    R119018   4.854  16.655   6.226  0.0891  0.0582  0.2622
 1282ERGO    R219019   5.049  16.751   6.397  0.0584  0.0649  0.2841
 1282ERGO    R319020   4.846  16.748   6.578  0.0540 -0.0123  0.2814
 1282ERGO    R419021   5.087  16.682   6.733  0.0655 -0.0074  0.2706
 1282ERGO    R519022   4.901  16.567   6.725  0.0833 -0.0395  0.2406
 1282ERGO    C119023   4.919  16.639   7.099  0.0654 -0.1219  0.2600
 1282ERGO    C219024   4.928  16.724   7.365  0.0001 -0.2497 -0.0620
 1283ERGO   ROH19025  17.738   9.417   6.269  0.1087  0.1551  0.0855
 1283ERGO    R119026  17.785   9.429   6.548  0.1527 -0.0919  0.0892
 1283ERGO    R219027  17.607   9.545   6.724  0.3318  0.0382  0.1751
 1283ERGO    R319028  17.623   9.304   6.849  0.0111 -0.0664  0.0272
 1283ERGO    R419029  17.538   9.491   7.058  0.6218  0.0214  0.2353
 1283ERGO    R519030  17.709   9.356   7.066  0.3819 -0.3304 -0.0402
 1283ERGO    C119031  17.513   9.234   7.371  0.4896 -0.0867  0.1315
 1283ERGO    C219032  17.506   9.255   7.795  0.1774 -0.1247 -0.2110
 1284ERGO   ROH19033  11.682  18.175   5.754  0.2657 -0.0948 -0.0583
 1284ERGO    R119034  11.762  18.086   6.011  0.1676  0.0208  0.0137
 1284ERGO    R219035  11.625  18.154   6.241  0.0273  0.0543 -0.0777
 1284ERGO    R319036  11.616  17.885   6.277  0.1017  0.0631  0.0098
 1284ERGO    R419037  11.480  17.996   6.512 -0.1310  0.0959 -0.1373
 1284ERGO    R519038  11.647  17.855   6.513 -0.0765  0.1589  0.0466
 1284ERGO    C119039  11.387  17.651   6.703 -0.1533  0.1286 -0.0899
 1284ERGO    C219040  11.105  17.460   6.649 -0.1828 -0.1593 -0.3555
 1285ERGO   ROH19041  16.163   3.884   5.938 -0.0900 -0.1376  0.2019
 1285ERGO    R119042  16.317   3.909   6.173 -0.0475  0.1811  0.1468
 1285ERGO    R219043  16.321   4.139   6.326 -0.4220  0.2181  0.1176
 1285ERGO    R319044  16.254   3.968   6.527 -0.0409  0.1095  0.1589
 1285ERGO    R419045  16.321   4.219   6.662 -0.3755  0.2204  0.1158
 1285ERGO    R519046  16.405   4.022   6.704 -0.0342  0.3556  0.0773
 1285ERGO    C119047  16.259   4.106   7.046  0.0095  0.1199  0.1536
 1285ERGO    C219048  16.329   4.273   7.217 -0.0886 -0.0738 -0.0758
 1286ERGO   ROH19049   0.805  17.666   5.687 -0.0947  0.0310  0.0705
 1286ERGO    R119050   0.631  17.564   5.885 -0.0717 -0.0502  0.0505
 1286ERGO    R219051   0.615  17.294   5.945  0.0197 -0.0673  0.0263
 1286ERGO    R319052   0.665  17.381   6.198 -0.0221 -0.0668  0.0328
 1286ERGO    R419053   0.600  17.098   6.229 -0.2048 -0.0095  0.0553
 1286ERGO    R519054   0.507  17.264   6.334 -0.1380  0.0554 -0.0058
 1286ERGO    C119055   0.638  17.065   6.632 -0.3747  0.0250  0.0783
 1286ERGO    C219056   0.793  16.919   6.920 -0.2282 -0.5066  0.1623
 1287ERGO   ROH19057  17.780  12.837   6.096 -0.0120 -0.1231  0.0385
 1287ERGO    R119058  17.789  12.861   6.378  0.0623 -0.0371  0.0279
 1287ERGO    R219059  17.697  13.084   6.512 -0.1120 -0.0998  0.0025
 1287ERGO    R319060  17.549  12.902   6.648  0.1222 -0.2032  0.1061
 1287ERGO    R419061  17.566  13.130   6.829  0.0412 -0.1768  0.0788
 1287ERGO    R519062  17.618  12.924   6.875  0.2374 -0.1257  0.0625
 1287ERGO    C119063  17.351  12.985   7.141  0.3501 -0.3187  0.2205
 1287ERGO    C219064  17.161  12.956   7.356 -0.0534  0.2515  0.1424
 1288ERGO   ROH19065   8.513   9.587   5.683 -0.0742  0.2927 -0.0170
 1288ERGO    R119066   8.326   9.698   5.865 -0.0179  0.1169  0.1501
 1288ERGO    R219067   8.064   9.612   5.879 -0.0175  0.1221  0.1275
 1288ERGO    R319068   8.124   9.577   6.142  0.0447 -0.1591  0.0800
 1288ERGO    R419069   7.834   9.619   6.137  0.0772  0.1462  0.2121
 1288ERGO    R519070   7.979   9.728   6.257  0.2385 -0.0990  0.2564
 1288ERGO    C119071   7.757   9.590   6.534  0.1909 -0.1037  0.2168
 1288ERGO    C219072   7.726   9.563   6.873 -0.0602 -0.1874 -0.0528
 1289ERGO   ROH19073   5.771  17.709   6.141 -0.0972  0.0938  0.0747
 1289ERGO    R119074   5.598  17.631   6.351 -0.1031 -0.0300  0.0248
 1289ERGO    R219075   5.685  17.486   6.570 -0.0827 -0.0485  0.0057
 1289ERGO    R319076   5.573  17.690   6.709 -0.1920 -0.1288  0.0354
 1289ERGO    R419077   5.547  17.456   6.885  0.2480 -0.1030  0.1498
 1289ERGO    R519078   5.386  17.589   6.821  0.0274 -0.3122  0.2492
 1289ERGO    C119079   5.360  17.630   7.199  0.3379 -0.2102  0.2617
 1289ERGO    C219080   5.259  17.568   7.424 -0.1313 -0.1312 -0.1155
 1290ERGO   ROH19081  13.185   3.709   5.454  0.0463 -0.0005  0.0738
 1290ERGO    R119082  13.239   3.650   5.726  0.0429 -0.0202  0.0705
 1290ERGO    R219083  13.187   3.829   5.930  0.2582  0.0579  0.0615
 1290ERGO    R319084  13.045   3.621   6.033  0.0729  0.2070  0.1117
 1290ERGO    R419085  13.087   3.802   6.260  0.2037  0.2368  0.0603
 1290ERGO    R519086  13.136   3.590   6.252  0.0252  0.1935  0.1280
 1290ERGO    C119087  12.896   3.592   6.549 -0.0019  0.4809  0.1067
 1290ERGO    C219088  12.863   3.530   6.922 -0.1911  0.2216 -0.2607
 1291ERGO   ROH19089   8.701   0.085   6.247  0.2199  0.1082 -0.0247
 1291ERGO    R119090   8.846  -0.141   6.334  0.0526  0.0319  0.0622
 1291ERGO    R219091   8.887  -0.198   6.601  0.0896  0.1568  0.0847
 1291ERGO    R319092   8.779  -0.438   6.533 -0.1422  0.2066  0.2627
 1291ERGO    R419093   8.972  -0.501   6.745  0.1495  0.1237 -0.0204
 1291ERGO    R519094   8.962  -0.592   6.547 -0.1976  0.1119 -0.0038
 1291ERGO    C119095   8.921  -0.903   6.764 -0.0332  0.1513  0.0855
 1291ERGO    C219096   8.957  -1.147   7.089  0.1246  0.0702 -0.0977
 1292ERGO   ROH19097  10.506   5.591   5.799 -0.4264 -0.1559  0.0876
 1292ERGO    R119098  10.471   5.407   6.011 -0.2094 -0.3490 -0.0372
 1292ERGO    R219099  10.585   5.155   6.011  0.2641 -0.1507 -0.1197
 1292ERGO    R319100  10.685   5.236   6.250 -0.0198 -0.0912 -0.0198
 1292ERGO    R419101  10.715   4.945   6.253  0.4929 -0.0416 -0.1471
 1292ERGO    R519102  10.617   5.066   6.404  0.1879 -0.2886 -0.1452
 1292ERGO    C119103  10.884   4.899   6.618  0.3597  0.0777 -0.0693
 1292ERGO    C219104  11.130   4.984   6.946 -0.0633 -0.4097 -0.0404
 1293ERGO   ROH19105  18.571  15.534   6.240  0.0828  0.3579 -0.1104
 1293ERGO    R119106  18.681  15.480   6.495 -0.0183  0.1998 -0.0999
 1293ERGO    R219107  18.907  15.606   6.590 -0.0665  0.1547  0.0747
 1293ERGO    R319108  18.747  15.667   6.800 -0.1558  0.0064  0.0515
 1293ERGO    R419109  19.019  15.675   6.909 -0.1809  0.1967  0.1065
 1293ERGO    R519110  18.851  15.560   6.987 -0.1114  0.0588  0.0581
 1293ERGO    C119111  18.933  15.773   7.293 -0.3312  0.0821  0.1030
 1293ERGO    C219112  18.953  16.016   7.528 -0.1047  0.0019  0.1435
 1294ERGO   ROH19113  13.143  13.312   5.683  0.2047 -0.1701  0.0908
 1294ERGO    R119114  13.215  13.290   5.956  0.1750 -0.1688  0.0993
 1294ERGO    R219115  13.193  13.501   6.133  0.2444 -0.1384  0.0773
 1294ERGO    R319116  13.046  13.324   6.277  0.1616 -0.0667  0.0804
 1294ERGO    R419117  13.186  13.485   6.478  0.2569 -0.1562  0.0764
 1294ERGO    R519118  13.186  13.268   6.463  0.1405 -0.1516  0.0669
 1294ERGO    C119119  13.043  13.310   6.814  0.1864 -0.0992  0.0788
 1294ERGO    C219120  13.061  13.350   7.151 -0.1800 -0.0009 -0.2591
 1295ERGO   ROH19121   7.086  14.265   7.002  0.2828 -0.2116 -0.0352
 1295ERGO    R119122   7.230  14.188   7.234  0.5326 -0.0468 -0.1320
 1295ERGO    R219123   7.482  14.287   7.292  0.3292  0.5070 -0.1360
 1295ERGO    R319124   7.365  14.354   7.528  0.2275  0.0643 -0.0520
 1295ERGO    R419125   7.652  14.394   7.574  0.1629  0.6374 -0.0830
 1295ERGO    R519126   7.517  14.273   7.695  0.4374  0.2433 -0.1522
 1295ERGO    C119127   7.641  14.518   7.959 -0.0294  0.2978  0.0268
 1295ERGO    C219128   7.753  14.786   8.127  0.1335  0.0360  0.2386
 1296ERGO   ROH19129  18.284   3.291   5.526  0.3210  0.1212 -0.0398
 1296ERGO    R119130  18.366   3.168   5.768  0.2416 -0.0174 -0.0830
 1296ERGO    R219131  18.625   3.182   5.863  0.1672  0.0873  0.1033
 1296ERGO    R319132  18.503   3.276   6.087 -0.0491 -0.1775  0.1024
 1296ERGO    R419133  18.710   3.095   6.187  0.2506  0.1392  0.0957
 1296ERGO    R519134  18.498   3.089   6.236  0.2390 -0.2364  0.0488
 1296ERGO    C119135  18.644   3.133   6.585  0.0962 -0.0791  0.0906
 1296ERGO    C219136  18.627   3.262   6.894 -0.0281 -0.1937 -0.0695
 1297ERGO   ROH19137  17.075   6.675   5.618 -0.0073 -0.6203 -0.1156
 1297ERGO    R119138  17.067   6.747   5.892 -0.0972 -0.3747 -0.1801
 1297ERGO    R219139  16.849   6.697   6.053 -0.0905 -0.3724 -0.1697
 1297ERGO    R319140  17.033   6.573   6.210 -0.0322 -0.1093 -0.0258
 1297ERGO    R419141  16.797   6.608   6.383 -0.1574 -0.2922 -0.1583
 1297ERGO    R519142  17.001   6.673   6.426 -0.2469 -0.0525 -0.0813
 1297ERGO    C119143  16.940   6.441   6.723 -0.1419  0.0015 -0.0165
 1297ERGO    C219144  17.070   6.526   7.031  0.1604  0.2228 -0.0692
 1298ERGO   ROH19145  16.189  10.079   5.880 -0.0776  0.1549 -0.0622
 1298ERGO    R119146  16.110  10.060   6.151  0.1484  0.0681 -0.0004
 1298ERGO    R219147  15.855   9.989   6.226  0.1385  0.2862  0.1856
 1298ERGO    R319148  15.985   9.799   6.372  0.0794  0.0578 -0.0521
 1298ERGO    R419149  15.728   9.835   6.509  0.1312  0.0321  0.0469
 1298ERGO    R519150  15.926   9.848   6.599  0.1575 -0.1661  0.0176
 1298ERGO    C119151  15.776   9.568   6.810  0.0713 -0.3302 -0.2570
 1298ERGO    C219152  15.750   9.286   7.131 -0.0628  0.2509  0.2924
 1299ERGO   ROH19153   6.890   9.852   5.797  0.1895 -0.1301 -0.0268
 1299ERGO    R119154   6.774   9.764   6.039  0.0926 -0.0101 -0.0300
 1299ERGO    R219155   6.863   9.541   6.175 -0.0256  0.0019  0.0637
 1299ERGO    R319156   6.883   9.716   6.383 -0.0184  0.0592  0.0160
 1299ERGO    R419157   6.788   9.466   6.504  0.2507  0.0066  0.1315
 1299ERGO    R519158   6.695   9.663   6.523  0.1120 -0.0573  0.1525
 1299ERGO    C119159   6.762   9.586   6.891  0.4183  0.0632  0.1262
 1299ERGO    C219160   6.819   9.528   7.294 -0.1043  0.1084  0.0087
 1300ERGO   ROH19161   7.665   7.668   5.629  0.0043 -0.1743 -0.0429
 1300ERGO    R119162   7.725   7.666   5.906  0.0641  0.0838 -0.0520
 1300ERGO    R219163   7.702   7.891   6.065 -0.2854  0.1411 -0.1798
 1300ERGO    R319164   7.544   7.730   6.216  0.0139 -0.0439 -0.0531
 1300ERGO    R419165   7.684   7.899   6.410 -0.1282  0.2274 -0.1720
 1300ERGO    R519166   7.676   7.681   6.409  0.1839  0.2069 -0.0978
 1300ERGO    C119167   7.525   7.752   6.752  0.2442  0.1039 -0.0487
 1300ERGO    C219168   7.509   7.862   7.084  0.0851  0.0919 -0.0306
 1301ERGO   ROH19169   8.967   3.578   5.651  0.2538 -0.0052  0.1346
 1301ERGO    R119170   8.875   3.809   5.786  0.1082  0.0447 -0.0452
 1301ERGO    R219171   8.637   3.814   5.926 -0.0282  0.0869 -0.2724
 1301ERGO    R319172   8.795   3.900   6.129 -0.2252  0.1785 -0.1547
 1301ERGO    R419173   8.546   3.818   6.259 -0.1406 -0.3213 -0.2932
 1301ERGO    R519174   8.645   4.011   6.279 -0.4498 -0.1755 -0.1081
 1301ERGO    C119175   8.642   3.901   6.644 -0.3909 -0.4730 -0.1949
 1301ERGO    C219176   8.827   3.867   6.944  0.0661  0.0235 -0.3816
 1302ERGO   ROH19177  15.354   2.005   5.661 -0.0427  0.1457 -0.0408
 1302ERGO    R119178  15.561   2.104   5.827 -0.0803  0.2683 -0.0672
 1302ERGO    R219179  15.521   2.310   6.007 -0.2616  0.0438  0.1516
 1302ERGO    R319180  15.622   2.131   6.185  0.0892  0.0079 -0.0728
 1302ERGO    R419181  15.650   2.392   6.317 -0.1903 -0.0621  0.1510
 1302ERGO    R519182  15.808   2.245   6.284 -0.0021  0.1755 -0.0820
 1302ERGO    C119183  15.820   2.272   6.665  0.1805 -0.1575 -0.0600
 1302ERGO    C219184  15.813   2.517   6.923 -0.0520  0.0550 -0.1886
 1303ERGO   ROH19185   2.080   3.811   5.565 -0.0157  0.2353 -0.0573
 1303ERGO    R119186   2.003   3.680   5.804 -0.2702  0.0875 -0.2158
 1303ERGO    R219187   2.086   3.765   6.052  0.0279 -0.4584 -0.1170
 1303ERGO    R319188   1.820   3.767   6.106  0.0331  0.1369 -0.0405
 1303ERGO    R419189   1.947   3.705   6.363 -0.0224 -0.5768 -0.1612
 1303ERGO    R519190   1.790   3.590   6.264 -0.3587 -0.0426 -0.2960
 1303ERGO    C119191   1.616   3.671   6.594 -0.0469 -0.0871 -0.1152
 1303ERGO    C219192   1.272   3.706   6.874  0.0539  0.1285  0.2250
 1304ERGO   ROH19193   3.064   0.048   6.036  0.1103 -0.0389 -0.0498
 1304ERGO    R119194   2.961   0.129   6.287  0.1613 -0.1883  0.0204
 1304ERGO    R219195   2.694   0.188   6.327  0.2313  0.1552  0.0133
 1304ERGO    R319196   2.716   0.003   6.525 -0.0893 -0.1220 -0.1974
 1304ERGO    R419197   2.553   0.217   6.641  0.2522  0.0216  0.0355
 1304ERGO    R519198   2.736   0.133   6.726  0.1113 -0.3830 -0.0410
 1304ERGO    C119199   2.493   0.061   7.011 -0.0366 -0.3166 -0.1493
 1304ERGO    C219200   2.419   0.018   7.380  0.0057 -0.1790 -0.1715
 1305ERGO   ROH19201  10.441   4.191   5.925  0.1665  0.0309  0.0225
 1305ERGO    R119202  10.387   4.017   6.141  0.2007 -0.0391 -0.0278
 1305ERGO    R219203  10.567   3.974   6.347  0.1151  0.1062  0.0617
 1305ERGO    R319204  10.355   4.045   6.503 -0.0365 -0.1117 -0.0373
 1305ERGO    R419205  10.546   3.917   6.687  0.1784  0.3399  0.1074
 1305ERGO    R519206  10.336   3.864   6.660  0.2498 -0.0378  0.1072
 1305ERGO    C119207  10.336   3.950   7.032  0.0727  0.2714  0.0411
 1305ERGO    C219208  10.372   3.910   7.347 -0.1344 -0.1472 -0.0192
 1306ERGO   ROH19209  17.732  17.044   5.527  0.2780  0.0191  0.0365
 1306ERGO    R119210  17.792  17.160   5.778  0.3087  0.0714  0.0060
 1306ERGO    R219211  17.776  17.431   5.824  0.0908  0.0624  0.0158
 1306ERGO    R319212  17.614  17.354   6.029  0.2644 -0.0879  0.0984
 1306ERGO    R419213  17.692  17.630   6.095 -0.4367  0.2100 -0.2427
 1306ERGO    R519214  17.713  17.454   6.223  0.0011  0.4177 -0.0151
 1306ERGO    C119215  17.492  17.673   6.444 -0.5809  0.1550 -0.3158
 1306ERGO    C219216  17.517  17.769   6.669  0.0481 -0.0979 -0.2708
 1307ERGO   ROH19217   7.384  12.827   6.080 -0.1790  0.1795 -0.0348
 1307ERGO    R119218   7.442  12.787   6.354 -0.0291 -0.0344 -0.0959
 1307ERGO    R219219   7.389  12.978   6.547  0.3139 -0.0866  0.0571
 1307ERGO    R319220   7.254  12.774   6.665  0.1804 -0.0003  0.0294
 1307ERGO    R419221   7.298  12.967   6.880  0.1834 -0.0257  0.0258
 1307ERGO    R519222   7.351  12.756   6.882  0.0789 -0.0326  0.0628
 1307ERGO    C119223   7.119  12.768   7.185 -0.0179  0.0909 -0.0184
 1307ERGO    C219224   7.007  12.833   7.470  0.1901  0.2937 -0.1759
 1308ERGO   ROH19225   4.689   7.335   5.686 -0.1156 -0.2672 -0.1033
 1308ERGO    R119226   4.487   7.300   5.882  0.0272 -0.3711  0.0282
 1308ERGO    R219227   4.529   7.158   6.115  0.3650 -0.0480  0.1767
 1308ERGO    R319228   4.441   7.387   6.232  0.0559 -0.0478 -0.0452
 1308ERGO    R419229   4.414   7.182   6.440  0.2473  0.0993  0.1251
 1308ERGO    R519230   4.258   7.316   6.370  0.1023 -0.1481 -0.0360
 1308ERGO    C119231   4.264   7.410   6.739 -0.1114  0.1852 -0.1132
 1308ERGO    C219232   4.253   7.389   7.092 -0.0389  0.1498 -0.3975
 1309ERGO   ROH19233  12.132   1.198   5.656  0.0319  0.2388  0.0925
 1309ERGO    R119234  11.991   1.036   5.839  0.0482  0.1707  0.0465
 1309ERGO    R219235  12.110   0.926   6.063  0.0831  0.0405 -0.0311
 1309ERGO    R319236  11.905   1.049   6.192  0.1335  0.0124  0.0735
 1309ERGO    R419237  11.955   0.803   6.346  0.0308 -0.1421 -0.1382
 1309ERGO    R519238  11.763   0.869   6.263  0.0594  0.0088 -0.0838
 1309ERGO    C119239  11.672   0.847   6.633  0.0476 -0.2747 -0.1023
 1309ERGO    C219240  11.561   0.930   6.890  0.2368 -0.4234  0.2120
 1310ERGO   ROH19241  11.528  16.463   6.169  0.0645  0.0423  0.0807
 1310ERGO    R119242  11.417  16.466   6.429 -0.0108  0.1131  0.0471
 1310ERGO    R219243  11.550  16.365   6.649 -0.1372  0.0373  0.0841
 1310ERGO    R319244  11.501  16.612   6.751 -0.0204  0.0674  0.0719
 1310ERGO    R419245  11.496  16.433   6.984  0.0288  0.0930  0.1015
 1310ERGO    R519246  11.341  16.574   6.925  0.0406  0.1333  0.1488
 1310ERGO    C119247  11.419  16.704   7.275  0.2352  0.1537  0.1003
 1310ERGO    C219248  11.471  16.563   7.562 -0.1380  0.0758 -0.1405
 1311ERGO   ROH19249   4.192  18.012   6.203 -0.1772 -0.0132  0.1745
 1311ERGO    R119250   4.177  17.893   6.460  0.1128 -0.2596  0.0852
 1311ERGO    R219251   4.394  17.771   6.581  0.4238  0.1485 -0.0207
 1311ERGO    R319252   4.336  17.942   6.784  0.0193 -0.1328  0.1104
 1311ERGO    R419253   4.498  17.732   6.908  0.5364  0.1631 -0.0557
 1311ERGO    R519254   4.301  17.800   6.973  0.3706 -0.3563  0.0103
 1311ERGO    C119255   4.503  17.870   7.289  0.2223 -0.0925  0.0470
 1311ERGO    C219256   4.458  17.880   7.573 -0.1468 -0.0344 -0.1808
 1312ERGO   ROH19257  13.911  14.086   5.840  0.0126 -0.2947  0.2614
 1312ERGO    R119258  13.969  13.990   6.100  0.0568 -0.1847  0.2929
 1312ERGO    R219259  14.032  14.158   6.310  0.0361 -0.0919  0.2252
 1312ERGO    R319260  13.828  14.026   6.433  0.0771 -0.0929  0.2919
 1312ERGO    R419261  13.994  14.128   6.652  0.0918  0.0045  0.2399
 1312ERGO    R519262  13.930  13.921   6.622  0.1247 -0.0176  0.3096
 1312ERGO    C119263  13.781  13.987   6.967  0.1626  0.0599  0.3112
 1312ERGO    C219264  13.702  13.835   7.318 -0.0694 -0.1646 -0.0384
 1313ERGO   ROH19265  14.221   0.214   6.017  0.2734  0.3346  0.1605
 1313ERGO    R119266  14.097   0.218   6.271 -0.0379 -0.0596  0.0262
 1313ERGO    R219267  14.015  -0.012   6.401  0.3851 -0.3282 -0.1467
 1313ERGO    R319268  14.168   0.086   6.603 -0.0740  0.0060  0.0574
 1313ERGO    R419269  14.011  -0.128   6.726  0.2129 -0.3078 -0.1410
 1313ERGO    R519270  14.026   0.078   6.795 -0.3048 -0.2729 -0.1251
 1313ERGO    C119271  14.152  -0.104   7.106 -0.3185  0.0176  0.0540
 1313ERGO    C219272  14.079  -0.159   7.488 -0.1719 -0.0920 -0.0839
 1314ERGO   ROH19273  15.599   4.939   6.096 -0.3088  0.1407 -0.0741
 1314ERGO    R119274  15.655   5.160   6.264 -0.2170  0.0893 -0.0378
 1314ERGO    R219275  15.468   5.267   6.437 -0.1129  0.0197  0.1140
 1314ERGO    R319276  15.663   5.225   6.622  0.0069 -0.0245 -0.0197
 1314ERGO    R419277  15.491   5.430   6.741  0.0994 -0.0224  0.1228
 1314ERGO    R519278  15.707   5.442   6.713  0.0857 -0.0380 -0.0187
 1314ERGO    C119279  15.688   5.485   7.091  0.3355 -0.0884  0.0023
 1314ERGO    C219280  15.709   5.404   7.405 -0.1210  0.1444  0.1414
 1315ERGO   ROH19281  11.899  11.275   5.392 -0.1548  0.4215  0.0408
 1315ERGO    R119282  11.915  11.384   5.653 -0.1481  0.1277  0.1650
 1315ERGO    R219283  11.709  11.364   5.834 -0.1536 -0.0387  0.1258
 1315ERGO    R319284  11.902  11.258   5.994 -0.1860 -0.2469  0.0326
 1315ERGO    R419285  11.716  11.390   6.179  0.1061  0.1087  0.1140
 1315ERGO    R519286  11.932  11.421   6.167  0.1590 -0.1979 -0.0530
 1315ERGO    C119287  11.901  11.305   6.529  0.2271 -0.0010  0.0197
 1315ERGO    C219288  11.948  11.418   6.882  0.2620  0.2606 -0.0460
 1316ERGO   ROH19289   8.308  12.586   5.948  0.1865  0.2501 -0.0778
 1316ERGO    R119290   8.393  12.520   6.210  0.0896  0.2925 -0.0352
 1316ERGO    R219291   8.394  12.703   6.416 -0.0868  0.2952 -0.0345
 1316ERGO    R319292   8.245  12.514   6.542 -0.0641  0.2368 -0.1061
 1316ERGO    R419293   8.331  12.694   6.756  0.0198  0.0835 -0.0187
 1316ERGO    R519294   8.357  12.478   6.750 -0.0067  0.0908 -0.1649
 1316ERGO    C119295   8.155  12.511   7.072  0.1033 -0.0945 -0.0767
 1316ERGO    C219296   8.130  12.330   7.424  0.0693  0.2617 -0.2589
 1317ERGO   ROH19297  10.346  15.225   5.925  0.1935  0.0500  0.2376
 1317ERGO    R119298  10.356  15.172   6.203  0.0676 -0.0119  0.2322
 1317ERGO    R219299  10.133  15.188   6.366  0.0107  0.0634  0.1602
 1317ERGO    R319300  10.203  14.934   6.432 -0.1339  0.0148  0.1238
 1317ERGO    R419301  10.025  15.021   6.648 -0.0334  0.0911  0.1587
 1317ERGO    R519302  10.226  14.939   6.670 -0.0870 -0.0313  0.1141
 1317ERGO    C119303  10.028  14.685   6.875 -0.1947  0.0617  0.1237
 1317ERGO    C219304   9.906  14.558   7.074  0.4325 -0.0346 -0.0005
 1318ERGO   ROH19305  18.502  11.088   6.145  0.3864 -0.1584 -0.0203
 1318ERGO    R119306  18.468  11.059   6.424  0.2231 -0.1221 -0.0350
 1318ERGO    R219307  18.681  11.032   6.598  0.1283  0.0210  0.1081
 1318ERGO    R319308  18.563  11.243   6.723 -0.0615 -0.0143 -0.0080
 1318ERGO    R419309  18.768  11.150   6.912  0.0690  0.3146  0.0174
 1318ERGO    R519310  18.556  11.179   6.954  0.0466  0.1281  0.0356
 1318ERGO    C119311  18.708  11.416   7.211 -0.1437  0.4525 -0.1445
 1318ERGO    C219312  18.741  11.433   7.515 -0.2565 -0.2529  0.0129
 1319ERGO   ROH19313  17.040  11.582   6.374 -0.0172  0.0035 -0.0574
 1319ERGO    R119314  17.083  11.745   6.601 -0.2319 -0.1007  0.0620
 1319ERGO    R219315  16.954  11.703   6.842 -0.0672 -0.5451  0.0853
 1319ERGO    R319316  17.207  11.699   6.940 -0.0115 -0.1613 -0.0260
 1319ERGO    R419317  17.038  11.763   7.172 -0.0257 -0.6043  0.0853
 1319ERGO    R519318  17.211  11.876   7.102 -0.2525 -0.2541  0.0817
 1319ERGO    C119319  17.325  11.793   7.456  0.0507 -0.2783 -0.0191
 1319ERGO    C219320  17.384  11.705   7.880  0.1376  0.1976  0.0915
 1320ERGO   ROH19321  14.985   6.796   5.901  0.0873 -0.4090  0.0054
 1320ERGO    R119322  15.040   6.681   6.154  0.0106 -0.3285  0.0587
 1320ERGO    R219323  15.115   6.832   6.373  0.1751 -0.2830 -0.0295
 1320ERGO    R319324  14.904   6.707   6.491  0.0724 -0.0287  0.0638
 1320ERGO    R419325  15.104   6.735   6.704  0.2196 -0.2905 -0.0301
 1320ERGO    R519326  15.005   6.550   6.642 -0.0447 -0.1675  0.0029
 1320ERGO    C119327  14.900   6.561   7.008  0.1491 -0.0560  0.0570
 1320ERGO    C219328  14.760   6.409   7.279  0.2464  0.1977  0.0398
 1321ERGO   ROH19329  11.311   6.752   5.566  0.1284 -0.1022 -0.0490
 1321ERGO    R119330  11.356   6.828   5.834  0.1868 -0.1964 -0.0346
 1321ERGO    R219331  11.166   6.960   5.986  0.3295 -0.0037 -0.0449
 1321ERGO    R319332  11.208   6.754   6.159  0.0688 -0.0711 -0.0545
 1321ERGO    R419333  11.081   6.964   6.320  0.3822  0.1402 -0.0306
 1321ERGO    R519334  11.268   6.861   6.364  0.2612 -0.1366 -0.0620
 1321ERGO    C119335  11.069   6.773   6.678  0.1682  0.1606 -0.0312
 1321ERGO    C219336  11.067   6.760   6.988 -0.2589 -0.0102  0.0466
 1322ERGO   ROH19337   8.696  10.836   5.789  0.2725 -0.0778  0.1709
 1322ERGO    R119338   8.522  10.829   6.012  0.1981  0.2877  0.1286
 1322ERGO    R219339   8.507  10.612   6.182 -0.3187  0.3025  0.1053
 1322ERGO    R319340   8.556  10.799   6.373  0.0457  0.1847  0.1373
 1322ERGO    R419341   8.392  10.598   6.508 -0.0550  0.2950  0.2020
 1322ERGO    R519342   8.353  10.811   6.499  0.1580  0.3489  0.3179
 1322ERGO    C119343   8.372  10.765   6.877  0.4408  0.1800  0.2882
 1322ERGO    C219344   8.232  10.782   7.294  0.0737 -0.2022  0.0686
 1323ERGO   ROH19345   9.955   6.337   5.715  0.0126  0.1188 -0.0159
 1323ERGO    R119346   9.968   6.183   5.953 -0.0418  0.0454 -0.0587
 1323ERGO    R219347   9.999   6.297   6.203 -0.0034 -0.0349 -0.0206
 1323ERGO    R319348   9.775   6.153   6.260 -0.0552  0.0273 -0.0704
 1323ERGO    R419349   9.891   6.217   6.521  0.0374 -0.2259 -0.0545
 1323ERGO    R519350   9.837   6.019   6.448 -0.0736 -0.1431 -0.1879
 1323ERGO    C119351   9.618   6.036   6.760  0.0127 -0.2787 -0.1209
 1323ERGO    C219352   9.546   6.238   6.955 -0.0567 -0.0929 -0.1897
 1324ERGO   ROH19353  14.113   2.257   5.938 -0.3105  0.0020  0.0754
 1324ERGO    R119354  14.122   2.230   6.220 -0.1822 -0.0241  0.0710
 1324ERGO    R219355  14.270   2.398   6.382 -0.0021 -0.1149  0.0151
 1324ERGO    R319356  14.032   2.434   6.508  0.0771  0.0073  0.1295
 1324ERGO    R419357  14.214   2.347   6.719  0.1125 -0.1060  0.0346
 1324ERGO    R519358  14.023   2.257   6.669  0.0464  0.0080  0.1189
 1324ERGO    C119359  13.959   2.350   7.034  0.2536  0.0139  0.1534
 1324ERGO    C219360  14.010   2.504   7.424 -0.0924  0.0865  0.1466
 1325ERGO   ROH19361   7.661   8.426   5.825 -0.0930 -0.1489 -0.0069
 1325ERGO    R119362   7.747   8.334   6.078 -0.1295 -0.0853  0.0270
 1325ERGO    R219363   7.845   8.505   6.274 -0.2365 -0.0314  0.0208
 1325ERGO    R319364   7.652   8.388   6.425 -0.2323 -0.0706 -0.0002
 1325ERGO    R419365   7.851   8.479   6.618 -0.3154  0.0963  0.0338
 1325ERGO    R519366   7.771   8.278   6.601 -0.2208  0.0426  0.0751
 1325ERGO    C119367   7.674   8.355   6.961 -0.3572  0.1339  0.0216
 1325ERGO    C219368   7.728   8.382   7.331 -0.1535 -0.0959  0.0645
 1326ERGO   ROH19369   5.661   1.404   6.009 -0.1013  0.2342 -0.0502
 1326ERGO    R119370   5.613   1.456   6.283  0.0518  0.1228 -0.0014
 1326ERGO    R219371   5.524   1.262   6.458 -0.0042  0.0899 -0.0673
 1326ERGO    R319372   5.742   1.337   6.602  0.1098 -0.1336 -0.1185
 1326ERGO    R419373   5.550   1.240   6.802 -0.0031  0.2068 -0.0591
 1326ERGO    R519374   5.651   1.434   6.801  0.2536  0.0762 -0.1522
 1326ERGO    C119375   5.770   1.298   7.137  0.1047  0.0652 -0.1024
 1326ERGO    C219376   5.765   1.383   7.451 -0.3032  0.1152  0.2034
 1327ERGO   ROH19377  10.897  10.863   5.466  0.1994  0.0392  0.0565
 1327ERGO    R119378  11.004  10.980   5.700  0.0346  0.1514  0.0773
 1327ERGO    R219379  10.870  11.175   5.843 -0.2604 -0.0800  0.1295
 1327ERGO    R319380  10.908  11.004   6.051  0.0122 -0.0744  0.0883
 1327ERGO    R419381  10.774  11.237   6.169 -0.1648 -0.2237  0.1858
 1327ERGO    R519382  10.961  11.146   6.236 -0.0399 -0.0474  0.0823
 1327ERGO    C119383  10.754  11.112   6.554  0.1469 -0.3021  0.1799
 1327ERGO    C219384  10.670  11.186   6.784 -0.2111  0.2325  0.0198
 1328ERGO   ROH19385   3.048   1.111   6.217 -0.0349  0.0946  0.1219
 1328ERGO    R119386   3.104   1.145   6.492 -0.0527  0.1592  0.1181
 1328ERGO    R219387   2.913   1.229   6.674 -0.1099  0.0422  0.1152
 1328ERGO    R319388   2.985   1.002   6.805  0.0527  0.1032  0.1325
 1328ERGO    R419389   2.886   1.182   7.015 -0.2468 -0.0173  0.0968
 1328ERGO    R519390   3.079   1.081   7.011 -0.1391  0.1816  0.1914
 1328ERGO    C119391   2.939   0.942   7.337 -0.1740  0.0052  0.1023
 1328ERGO    C219392   2.866   0.953   7.562 -0.0701 -0.0796  0.1325
 1329ERGO   ROH19393   2.225   9.754   6.635 -0.1554  0.0575  0.0360
 1329ERGO    R119394   2.404   9.744   6.853 -0.0881  0.2814 -0.0067
 1329ERGO    R219395   2.359   9.880   7.089 -0.2109  0.2124  0.0100
 1329ERGO    R319396   2.393   9.634   7.200  0.1377  0.2480 -0.0085
 1329ERGO    R419397   2.407   9.820   7.426  0.1241  0.2702 -0.0246
 1329ERGO    R519398   2.555   9.669   7.373  0.2433  0.4229 -0.1386
 1329ERGO    C119399   2.468   9.554   7.726  0.6464  0.3373 -0.0621
 1329ERGO    C219400   2.691   9.677   8.057  0.0143  0.0107  0.0984
 1330ERGO   ROH19401   0.229   5.658   5.573 -0.3173 -0.0078 -0.1534
 1330ERGO    R119402   0.171   5.733   5.839  0.0994  0.0594 -0.0745
 1330ERGO    R219403   0.030   5.570   6.013 -0.1008  0.3191  0.0130
 1330ERGO    R319404   0.247   5.607   6.172  0.1455 -0.1954 -0.1789
 1330ERGO    R419405   0.054   5.466   6.341 -0.1598  0.4707  0.0664
 1330ERGO    R519406   0.155   5.653   6.388  0.4302  0.2280 -0.1345
 1330ERGO    C119407   0.271   5.440   6.682  0.0371  0.0760 -0.0828
 1330ERGO    C219408   0.289   5.409   6.994 -0.2873  0.1225 -0.1300
 1331ERGO   ROH19409   3.571   0.224   6.158  0.1016  0.1503 -0.0658
 1331ERGO    R119410   3.702   0.187   6.406  0.0715 -0.0574 -0.0788
 1331ERGO    R219411   3.606   0.292   6.643  0.2667  0.1137 -0.0712
 1331ERGO    R319412   3.624   0.034   6.727 -0.1480  0.0799 -0.0658
 1331ERGO    R419413   3.603   0.192   6.974  0.1213  0.1195 -0.0700
 1331ERGO    R519414   3.757   0.046   6.926 -0.1164 -0.1355 -0.0742
 1331ERGO    C119415   3.618  -0.109   7.245 -0.3527  0.0912 -0.0642
 1331ERGO    C219416   3.418  -0.197   7.513  0.1050  0.3437 -0.0544
 1332ERGO   ROH19417  17.981  14.274   6.196  0.2962 -0.1780 -0.1542
 1332ERGO    R119418  17.996  14.145   6.448  0.1660 -0.0634 -0.0876
 1332ERGO    R219419  17.933  14.274   6.684  0.1413  0.0728 -0.1732
 1332ERGO    R319420  17.765  14.063   6.717  0.0494  0.1526 -0.1166
 1332ERGO    R419421  17.725  14.228   6.956  0.4811  0.0037  0.0840
 1332ERGO    R519422  17.774  14.016   6.952  0.3453 -0.0341 -0.1545
 1332ERGO    C119423  17.445  14.003   7.145  0.5931  0.0385  0.2870
 1332ERGO    C219424  17.193  14.163   7.265  0.0060 -0.2009 -0.1773
 1333ERGO   ROH19425  11.639   2.057   5.853  0.0271 -0.1104 -0.2680
 1333ERGO    R119426  11.568   1.851   6.032 -0.0597 -0.0900 -0.2788
 1333ERGO    R219427  11.603   1.872   6.305  0.0280 -0.1513 -0.2868
 1333ERGO    R319428  11.338   1.810   6.312 -0.0119  0.0187 -0.2221
 1333ERGO    R419429  11.413   1.847   6.593  0.1647 -0.3397 -0.2110
 1333ERGO    R519430  11.314   1.673   6.507  0.0023 -0.1832 -0.3569
 1333ERGO    C119431  11.054   1.774   6.767  0.2069 -0.2898 -0.1061
 1333ERGO    C219432  11.046   1.903   7.141  0.0473 -0.0400  0.0235
 1334ERGO   ROH19433   4.643   9.714   5.874 -0.0088 -0.1243  0.0266
 1334ERGO    R119434   4.744   9.764   6.133 -0.0406 -0.0490  0.0247
 1334ERGO    R219435   4.631   9.950   6.304 -0.1350 -0.0860  0.0015
 1334ERGO    R319436   4.620   9.739   6.474 -0.0384 -0.0731  0.0240
 1334ERGO    R419437   4.583   9.973   6.646 -0.0065 -0.0605  0.0182
 1334ERGO    R519438   4.731   9.816   6.672  0.0279 -0.0378 -0.0250
 1334ERGO    C119439   4.545   9.788   7.004  0.1589 -0.0334  0.0492
 1334ERGO    C219440   4.408   9.945   7.264 -0.1260 -0.1293  0.1281
 1335ERGO   ROH19441   6.781  14.940   6.042  0.1556  0.2484 -0.1188
 1335ERGO    R119442   6.986  14.906   6.234 -0.0624  0.0642  0.0877
 1335ERGO    R219443   7.181  15.096   6.279  0.1704 -0.1826  0.1521
 1335ERGO    R319444   7.096  15.076   6.537 -0.0969  0.0808  0.0906
 1335ERGO    R419445   7.378  15.158   6.556  0.0398 -0.4116  0.3007
 1335ERGO    R519446   7.286  14.986   6.654 -0.3552 -0.2076  0.3011
 1335ERGO    C119447   7.414  15.176   6.959 -0.2871 -0.2978  0.3294
 1335ERGO    C219448   7.685  15.318   7.001  0.0737 -0.0650 -0.2086
 1336ERGO   ROH19449  13.684  16.968   5.752 -0.2414  0.0372  0.0118
 1336ERGO    R119450  13.725  16.885   6.019 -0.1486  0.0461  0.0003
 1336ERGO    R219451  13.977  16.838   6.123 -0.1215 -0.1514 -0.1473
 1336ERGO    R319452  13.896  17.015   6.313  0.1443 -0.0483 -0.1244
 1336ERGO    R419453  13.991  16.782   6.464  0.1396 -0.0566 -0.1400
 1336ERGO    R519454  13.796  16.878   6.483  0.2106  0.0605  0.0024
 1336ERGO    C119455  13.923  16.916   6.841  0.5410  0.0958 -0.1143
 1336ERGO    C219456  13.862  16.986   7.119 -0.0296  0.0545 -0.3404
 1337ERGO   ROH19457  16.375  12.466   6.361 -0.1115  0.0756  0.1245
 1337ERGO    R119458  16.363  12.344   6.617 -0.1686  0.0310  0.1004
 1337ERGO    R219459  16.455  12.468   6.845 -0.0797 -0.0696  0.1187
 1337ERGO    R319460  16.204  12.414   6.937 -0.1071  0.0614  0.1247
 1337ERGO    R419461  16.354  12.499   7.174 -0.0287 -0.1069  0.1384
 1337ERGO    R519462  16.240  12.315   7.152 -0.1494 -0.0290  0.0912
 1337ERGO    C119463  16.060  12.467   7.452 -0.0249 -0.0057  0.1554
 1337ERGO    C219464  16.065  12.434   7.867  0.2059 -0.0543  0.5142
 1338ERGO   ROH19465  13.100   5.102   5.846 -0.1282 -0.2280 -0.0818
 1338ERGO    R119466  13.130   5.201   6.110 -0.1807 -0.1522 -0.1064
 1338ERGO    R219467  12.935   5.169   6.303 -0.1113 -0.3059 -0.0785
 1338ERGO    R319468  13.141   5.061   6.445  0.0139 -0.0764 -0.0757
 1338ERGO    R419469  12.947   5.148   6.648  0.0478  0.0324 -0.0578
 1338ERGO    R519470  13.159   5.201   6.639  0.0330  0.1306 -0.2111
 1338ERGO    C119471  13.146   5.035   6.982  0.2581  0.4448 -0.0432
 1338ERGO    C219472  13.136   4.974   7.349 -0.0195 -0.0597  0.0081
 1339ERGO   ROH19473   7.886  13.649   6.271 -0.4203  0.0323  0.0300
 1339ERGO    R119474   8.072  13.643   6.484 -0.2784  0.1360 -0.0891
 1339ERGO    R219475   8.079  13.837   6.680 -0.3107  0.0992 -0.0539
 1339ERGO    R319476   8.058  13.623   6.847 -0.0305  0.0451 -0.0818
 1339ERGO    R419477   8.186  13.831   7.009 -0.2361  0.1740 -0.0764
 1339ERGO    R519478   8.259  13.628   6.977 -0.0062  0.2593 -0.1225
 1339ERGO    C119479   8.228  13.628   7.357  0.0705  0.1667 -0.1156
 1339ERGO    C219480   8.263  13.741   7.760 -0.0205 -0.0597  0.2686
 1340ERGO   ROH19481  15.161   3.300   5.981  0.1967  0.3727  0.1906
 1340ERGO    R119482  15.129   3.166   6.228 -0.0361  0.2497  0.0971
 1340ERGO    R219483  15.207   3.278   6.469  0.0252  0.0064  0.1913
 1340ERGO    R319484  14.949   3.224   6.539 -0.0628  0.2634  0.0797
 1340ERGO    R419485  15.090   3.258   6.794 -0.1129  0.0249  0.1441
 1340ERGO    R519486  14.968   3.087   6.734 -0.2810  0.1746  0.0429
 1340ERGO    C119487  14.781   3.195   7.049 -0.2757  0.2769  0.0119
 1340ERGO    C219488  14.585   3.214   7.382 -0.3064 -0.3209  0.0375
 1341ERGO   ROH19489   6.044  10.511   5.611  0.1136  0.1857 -0.0450
 1341ERGO    R119490   6.143  10.483   5.875  0.1060  0.2824 -0.0322
 1341ERGO    R219491   6.114  10.681   6.067 -0.0187  0.2971 -0.0685
 1341ERGO    R319492   6.002  10.479   6.211  0.0796  0.2595 -0.0430
 1341ERGO    R419493   6.171  10.621   6.402 -0.0707  0.4350 -0.0340
 1341ERGO    R519494   6.175  10.408   6.359  0.0899  0.4226  0.0274
 1341ERGO    C119495   6.100  10.398   6.733 -0.0087  0.4798  0.0102
 1341ERGO    C219496   6.007  10.239   7.057  0.5819 -0.2290  0.2932
 1342ERGO   ROH19497   9.176   8.920   5.665 -0.1666 -0.1211 -0.0280
 1342ERGO    R119498   9.262   8.915   5.935 -0.1678 -0.1307 -0.0281
 1342ERGO    R219499   9.413   9.117   6.047  0.0205 -0.2374 -0.0828
 1342ERGO    R319500   9.214   9.119   6.232  0.0217 -0.0084 -0.0807
 1342ERGO    R419501   9.459   9.166   6.386  0.0373 -0.0107 -0.1157
 1342ERGO    R519502   9.309   9.012   6.423 -0.0329  0.0877 -0.0014
 1342ERGO    C119503   9.298   9.197   6.757  0.0482  0.3362 -0.1329
 1342ERGO    C219504   9.163   9.440   6.950  0.2301  0.0158 -0.1010
 1343ERGO   ROH19505  16.014  11.518   6.197 -0.3337 -0.1822  0.0576
 1343ERGO    R119506  16.002  11.381   6.444 -0.0921 -0.1714  0.0787
 1343ERGO    R219507  16.185  11.423   6.647 -0.1349  0.1516  0.0617
 1343ERGO    R319508  15.961  11.471   6.794 -0.2059 -0.1826  0.0671
 1343ERGO    R419509  16.173  11.431   6.992 -0.1298  0.2201  0.0599
 1343ERGO    R519510  15.983  11.326   6.984  0.0445 -0.0987  0.1012
 1343ERGO    C119511  15.956  11.480   7.332 -0.1939 -0.0539  0.0639
 1343ERGO    C219512  15.807  11.486   7.670 -0.0965 -0.6023 -0.0099
 1344ERGO   ROH19513   0.685   5.740   5.700  0.0239  0.2011 -0.0058
 1344ERGO    R119514   0.646   5.613   5.950 -0.0939  0.2109 -0.0184
 1344ERGO    R219515   0.830   5.438   6.057 -0.2785 -0.0143 -0.0602
 1344ERGO    R319516   0.816   5.605   6.271 -0.0666 -0.0235 -0.0376
 1344ERGO    R419517   0.804   5.335   6.386 -0.1648 -0.0251 -0.0545
 1344ERGO    R519518   0.663   5.498   6.421 -0.0511  0.0556  0.0348
 1344ERGO    C119519   0.777   5.433   6.779  0.1004 -0.0401 -0.0299
 1344ERGO    C219520   0.728   5.377   7.247  0.1578  0.0711  0.1248
 1345ERGO   ROH19521   3.529   9.638   5.883 -0.3126  0.0861  0.1196
 1345ERGO    R119522   3.545   9.651   6.165 -0.0064  0.0840  0.1059
 1345ERGO    R219523   3.444   9.453   6.329 -0.0864  0.2158  0.2212
 1345ERGO    R319524   3.696   9.453   6.430  0.0243 -0.0900 -0.0399
 1345ERGO    R419525   3.540   9.292   6.619 -0.0661  0.3905  0.3124
 1345ERGO    R519526   3.665   9.464   6.668  0.2811  0.2432 -0.0148
 1345ERGO    C119527   3.833   9.197   6.883  0.0496  0.2053  0.1204
 1345ERGO    C219528   3.960   8.943   7.074 -0.0492 -0.2194  0.2048
 1346ERGO   ROH19529   6.226   7.356   5.572 -0.0260  0.0892 -0.1285
 1346ERGO    R119530   6.238   7.176   5.790  0.0790  0.0407 -0.1744
 1346ERGO    R219531   6.457   7.161   5.958  0.0982  0.1059 -0.1956
 1346ERGO    R319532   6.270   7.200   6.152  0.0941 -0.0354 -0.1699
 1346ERGO    R419533   6.498   7.079   6.291  0.1495 -0.0098 -0.2299
 1346ERGO    R519534   6.291   7.008   6.294  0.1725 -0.0856 -0.2455
 1346ERGO    C119535   6.346   7.067   6.667  0.1755 -0.2099 -0.2258
 1346ERGO    C219536   6.265   7.004   6.940  0.2556  0.0652  0.0715
 1347ERGO   ROH19537  14.954  12.197   5.596  0.0876 -0.2452 -0.0558
 1347ERGO    R119538  14.737  12.129   5.764  0.0387 -0.1441 -0.0747
 1347ERGO    R219539  14.690  11.869   5.850 -0.0613 -0.1204 -0.0317
 1347ERGO    R319540  14.695  11.984   6.096 -0.0527 -0.0718 -0.0566
 1347ERGO    R419541  14.572  11.724   6.140 -0.1620  0.0013 -0.0122
 1347ERGO    R519542  14.491  11.916   6.199 -0.0888  0.0398 -0.0679
 1347ERGO    C119543  14.509  11.747   6.540 -0.2125  0.1179 -0.0241
 1347ERGO    C219544  14.577  11.837   6.876 -0.2005  0.2704 -0.0341
 1348ERGO   ROH19545  17.231  12.801   6.053  0.2789 -0.2503  0.1778
 1348ERGO    R119546  17.266  12.969   6.278  0.1451 -0.0926  0.0828
 1348ERGO    R219547  17.094  13.177   6.337 -0.0422 -0.2184 -0.0177
 1348ERGO    R319548  17.078  13.052   6.578  0.0955 -0.1013  0.0544
 1348ERGO    R419549  16.965  13.319   6.624 -0.2334 -0.2047 -0.1081
 1348ERGO    R519550  17.126  13.224   6.737 -0.1214  0.0536 -0.0412
 1348ERGO    C119551  16.875  13.285   7.018 -0.2156 -0.0870 -0.0930
 1348ERGO    C219552  16.805  13.234   7.353 -0.1017 -0.2509  0.3601
 1349W        W19553   0.276   9.651  11.002 -0.1321  0.0364  0.0887
 1350W        W19554  10.272  18.596   3.385 -0.1806 -0.0372  0.2605
 1351W        W19555  10.109   1.602   2.053  0.0819 -0.3501  0.0395
 1352W        W19556   5.331  15.685   2.788  0.0486 -0.3445  0.0456
 1353W        W19557  15.072  16.802  11.281 -0.1362 -0.5244  0.1779
 1354W        W19558  12.930   6.759   3.505  0.0309 -0.3960  0.0095
 1355W        W19559  18.061   7.686   4.255  0.2224  0.3208  0.1559
 1356W        W19560  17.315   4.973  14.300 -0.1070 -0.1220 -0.2751
 1357W        W19561   2.151   8.159   2.957  0.0061 -0.0248  0.1391
 1358W        W19562   9.227  16.891  13.059  0.0265  0.2490 -0.0943
 1359W        W19563   9.099   5.569  13.113 -0.0646 -0.0525 -0.2190
 1360W        W19564  11.037   6.830  10.484  0.1271 -0.2157 -0.0575
 1361W        W19565  13.315   6.890   3.159 -0.2166  0.2118  0.1308
 1362W        W19566   0.600   2.672   3.892  0.0008 -0.2296 -0.0283
 1363W        W19567   9.897  12.986   0.106  0.0583 -0.3932 -0.0510
 1364W        W19568  11.848   3.608   2.328 -0.0125 -0.1691  0.0304
 1365W        W19569  15.647   1.517   0.700  0.1143  0.1090  0.1034
 1366W        W19570  17.097   3.127   3.527  0.0948 -0.0880 -0.1898
 1367W        W19571   7.550   5.216  10.685  0.1245 -0.0493 -0.0311
 1368W        W19572  12.771  17.786   1.344 -0.3603 -0.3181  0.0234
 1369W        W19573   3.529  11.707  13.985 -0.2576 -0.0733 -0.0689
 1370W        W19574   8.306  18.618   0.805  0.3776 -0.1738  0.0546
 1371W        W19575   2.778  12.417   1.885  0.0935  0.1230 -0.0465
 1372W        W19576  11.515  16.121  14.212  0.0180  0.0792  0.1723
 1373W        W19577   8.610  15.519   2.863  0.1930  0.2174  0.1617
 1374W        W19578  18.355  15.851   4.454  0.1779 -0.0458 -0.0933
 1375W        W19579   5.869  16.873  14.948 -0.0165  0.2418 -0.1420
 1376W        W19580   4.706   3.649   0.540 -0.0829  0.1838  0.0512
 1377W        W19581  10.357   7.018   1.127 -0.3964 -0.0636 -0.2008
 1378W        W19582  16.327  12.635   4.804 -0.3672  0.1294  0.0757
 1379W        W19583   3.834   1.084  11.681  0.0863  0.2381  0.1879
 1380W        W19584   4.138   9.591   1.249 -0.0471  0.0278  0.0198
 1381W        W19585  16.121   4.767  11.036  0.0222 -0.2755 -0.1234
 1382W        W19586   8.167   7.226   2.203 -0.1366 -0.0982  0.0126
 1383W        W19587  14.240  16.158   0.550  0.2367  0.1494 -0.2210
 1384W        W19588  14.306  11.619  11.593 -0.2988  0.3764 -0.1075
 1385W        W19589   9.036  16.376  14.479  0.0019  0.1031  0.0681
 1386W        W19590   9.300   9.434   0.275  0.0519 -0.3358  0.0326
 1387W        W19591   1.880  18.478   3.676 -0.1038  0.1276 -0.1333
 1388W        W19592   7.492  15.547   3.451 -0.0122 -0.1261 -0.1237
 1389W        W19593  12.775   1.685  12.942  0.2126 -0.0008  0.4225
 1390W        W19594  12.368  15.963   2.971 -0.1039 -0.1963  0.0326
 1391W        W19595  14.489  10.796   2.717 -0.3336  0.0814  0.0015
 1392W        W19596   1.913  13.190  11.069 -0.1155  0.1293 -0.1777
 1393W        W19597  16.630   6.875  12.733 -0.1549  0.0376  0.2672
 1394W        W19598   6.793   7.964  12.898 -0.0523 -0.0189  0.0965
 1395W        W19599  12.905   9.639   4.080  0.2198 -0.1565 -0.2144
 1396W        W19600   2.993   9.896   2.818 -0.0292 -0.1147 -0.1385
 1397W        W19601  11.401  16.541  14.988 -0.0073 -0.0134  0.0418
 1398W        W19602   8.604  16.592  11.941 -0.1349  0.0070  0.2714
 1399W        W19603   9.057   5.331  11.072 -0.1194 -0.3024 -0.0312
 1400W        W19604   6.673  15.399  11.368  0.1484 -0.2786  0.1466
 1401W        W19605   8.195   4.070  12.451 -0.0057  0.0008 -0.0926
 1402W        W19606  17.716  10.175   1.684 -0.1602 -0.1295  0.0284
 1403W        W19607  11.287   5.914   0.389  0.1007  0.0159  0.3469
 1404W        W19608   9.820   3.973  13.281  0.0105  0.2336 -0.1735
 1405W        W19609  15.257  10.758  12.398 -0.3015 -0.1991 -0.2957
 1406W        W19610   7.683   3.038  14.783 -0.0936  0.0887  0.1590
 1407W        W19611  13.612  15.569   1.089  0.1972  0.1935 -0.1182
 1408W        W19612   3.602   1.684  13.758  0.0122  0.1682 -0.1004
 1409W        W19613   0.842  15.473   5.448 -0.1558 -0.0349 -0.2604
 1410W        W19614  17.412   1.028   1.754 -0.3521 -0.3054  0.2657
 1411W        W19615   9.259  16.612  14.874  0.1840 -0.2094  0.0206
 1412W        W19616  13.312   2.806   3.310 -0.0423  0.0870  0.0869
 1413W        W19617   2.307  15.478   2.219 -0.1773 -0.2778 -0.0142
 1414W        W19618   1.616   0.386   4.487  0.1969  0.5417 -0.3351
 1415W        W19619   8.622   1.127   5.555  0.3187  0.1340  0.3735
 1416W        W19620  15.357   1.409  15.445 -0.1249 -0.4050  0.0744
 1417W        W19621   7.197  17.212  12.132  0.1265 -0.0930 -0.3170
 1418W        W19622   9.775  10.367   4.776  0.0500 -0.0954 -0.0633
 1419W        W19623   6.504  10.457   2.610 -0.1060 -0.0429 -0.0283
 1420W        W19624  17.271   1.010  12.934 -0.2093 -0.1349  0.0117
 1421W        W19625  15.747   8.860  11.385  0.0360  0.1157 -0.0175
 1422W        W19626   0.689   0.968   2.447 -0.1774  0.0016 -0.0650
 1423W        W19627   0.839   3.151   0.945  0.3205 -0.0280 -0.3002
 1424W        W19628  10.792   2.045   0.818  0.2595 -0.0953  0.1437
 1425W        W19629   5.048  14.301   0.391  0.1615 -0.0157 -0.0549
 1426W        W19630  13.613  15.468   2.934  0.0401  0.0288  0.2949
 1427W        W19631  17.643  10.261  14.313 -0.0023 -0.1380  0.5099
 1428W        W19632  16.219  18.514  11.480  0.0927 -0.3043 -0.1699
 1429W        W19633   7.526   2.903   3.212 -0.1482  0.3875 -0.2945
 1430W        W19634   0.344   2.561   2.186  0.1171  0.0792 -0.4582
 1431W        W19635   6.364  16.315  15.331 -0.3329  0.0220 -0.0832
 1432W        W19636  15.400  15.180   0.679  0.2173  0.2074 -0.1822
 1433W        W19637  15.811   2.821  13.803  0.0622 -0.0356 -0.1502
 1434W        W19638  16.039  11.832  10.948  0.0050 -0.0582  0.0958
 1435W        W19639   3.074   9.267   3.247 -0.1721 -0.0637  0.0170
 1436W        W19640   5.847  14.291   4.341  0.2254  0.1114 -0.0156
 1437W        W19641  18.333  16.287   2.363 -0.2792 -0.2795 -0.3205
 1438W        W19642  11.920   7.341  12.122 -0.0953 -0.2175 -0.0424
 1439W        W19643   1.641   9.871   4.797 -0.1567  0.0226 -0.1130
 1440W        W19644   0.913  14.567   0.271  0.1661 -0.0133  0.1412
 1441W        W19645  15.110   9.322  13.196 -0.0905  0.0469  0.2088
 1442W        W19646  10.262   5.377   1.200  0.1980 -0.0331  0.0450
 1443W        W19647  12.196  16.944  15.176  0.0666 -0.2111 -0.3356
 1444W        W19648   3.703   0.890  12.679 -0.1728 -0.1018 -0.1386
 1445W        W19649  11.403   8.197   2.422  0.2667 -0.0222  0.1286
 1446W        W19650   1.850   3.589  13.750 -0.3438  0.1183 -0.1089
 1447W        W19651  11.892   7.323  12.830 -0.4939 -0.2822  0.1188
 1448W        W19652  16.938   9.171  14.634 -0.1787 -0.0047  0.0339
 1449W        W19653  14.498  16.637   3.905  0.1309 -0.4093 -0.1008
 1450W        W19654  14.023   9.834   2.657 -0.2104  0.0197 -0.2304
 1451W        W19655   4.603   5.017  14.150 -0.1294 -0.3642 -0.0961
 1452W        W19656   6.490   2.081  14.442 -0.0229 -0.2494  0.2677
 1453W        W19657   8.900  14.357  12.243 -0.1826 -0.1130  0.0034
 1454W        W19658   4.468  17.684   3.568 -0.2675 -0.2875 -0.1095
 1455W        W19659   7.514  14.394   3.601 -0.1620 -0.1761 -0.0912
 1456W        W19660  14.119  10.652  13.537  0.0689 -0.0801  0.3345
 1457W        W19661  10.656  11.552   3.953 -0.1676 -0.1944 -0.2275
 1458W        W19662  12.853  10.593  13.937 -0.1537  0.1705 -0.0667
 1459W        W19663  11.784  13.654  10.008  0.2075  0.0811  0.1222
 1460W        W19664   6.590  18.221   3.829  0.1302  0.1002 -0.1328
 1461W        W19665  17.528  14.939   4.904 -0.0543 -0.1641  0.2192
 1462W        W19666  15.041   8.032  12.788 -0.0957 -0.0858  0.1415
 1463W        W19667   0.637   3.181  13.169  0.0044  0.0598  0.2162
 1464W        W19668  10.833   3.265  12.298  0.1773  0.1941  0.1014
 1465W        W19669  14.344   4.822  12.573 -0.0073  0.0357 -0.0999
 1466W        W19670  14.643   1.423   2.731  0.1474 -0.0417  0.4288
 1467W        W19671  16.566   6.237   0.375  0.2587  0.1667  0.0956
 1468W        W19672  13.163   8.798   3.637 -0.3817  0.0362 -0.1363
 1469W        W19673   9.734   4.201  11.166 -0.0234 -0.0739  0.1794
 1470W        W19674  16.907  14.800   1.127  0.1875  0.0700 -0.3719
 1471W        W19675   9.808   1.863  12.510  0.3466 -0.0630 -0.2614
 1472W        W19676   4.754  15.050  14.462  0.1004 -0.0529 -0.2780
 1473W        W19677   3.083  15.734   5.113  0.4534  0.2468  0.2391
 1474W        W19678   9.540   1.894  12.137  0.2041 -0.2740 -0.0850
 1475W        W19679  14.553  17.717  13.348 -0.1828 -0.1069  0.2642
 1476W        W19680   2.986  12.246   4.632  0.0429 -0.0236  0.1368
 1477W        W19681   4.837   1.750   1.981  0.0543  0.0457 -0.2486
 1478W        W19682   8.293   6.219  14.953  0.0960  0.0602  0.0862
 1479W        W19683  10.440   9.498  14.065 -0.0418  0.0346 -0.0010
 1480W        W19684   6.381   4.147   3.820  0.3882 -0.3203 -0.1519
 1481W        W19685   7.597  17.447   3.458 -0.1098 -0.3327  0.3850
 1482W        W19686   2.990   3.637  15.022  0.0251 -0.0930  0.0319
 1483W        W19687  15.190  12.069   2.556 -0.3313 -0.1653 -0.4971
 1484W        W19688  12.732   5.231   2.310  0.1087 -0.1507  0.0042
 1485W        W19689  12.098  16.981   2.899  0.0788  0.1006  0.2584
 1486W        W19690  17.226   0.485   2.073  0.4807 -0.3511 -0.3186
 1487W        W19691  13.484   4.582   4.193 -0.0038  0.0167 -0.0392
 1488W        W19692  13.915  15.260   2.635 -0.0682  0.0128 -0.1067
 1489W        W19693  12.107   1.650  13.386 -0.0166  0.3533  0.0205
 1490W        W19694  10.321   3.667  14.425  0.1234  0.0147  0.0754
 1491W        W19695   8.404   4.834   2.449  0.0004  0.2691  0.0652
 1492W        W19696  17.226  16.756  11.281  0.1394  0.1447  0.1148
 1493W        W19697  10.605  11.418  12.797  0.1959  0.0392  0.0998
 1494W        W19698   0.092   9.413  15.290  0.0072  0.2792  0.0296
 1495W        W19699   7.199  15.591   1.934 -0.1716 -0.0101 -0.1748
 1496W        W19700   5.102  16.838   1.945 -0.1699 -0.2783  0.2803
 1497W        W19701  17.126   8.767  14.335 -0.1041  0.0942 -0.0983
 1498W        W19702  12.847  12.459   2.679 -0.1831  0.0764 -0.2039
 1499W        W19703   6.026   3.614   1.840 -0.1707 -0.2861  0.0583
 1500W        W19704   7.525  12.389   3.873 -0.1649  0.0455  0.1760
 1501W        W19705   5.395  18.243  13.024  0.0950 -0.0399  0.0621
 1502W        W19706  13.755   5.493  15.111 -0.3669 -0.0652  0.1053
 1503W        W19707  11.180  10.137   0.430  0.2359  0.2433  0.2538
 1504W        W19708  15.328  11.933   1.396 -0.3284  0.0652 -0.1202
 1505W        W19709   9.234  18.184   1.483 -0.0621  0.2477 -0.0593
 1506W        W19710   0.249   0.139   4.703 -0.3575 -0.1707  0.0523
 1507W        W19711  12.967  16.275  14.586 -0.0094  0.3073  0.1456
 1508W        W19712   2.842   6.685   4.019 -0.2525 -0.0644  0.1513
 1509W        W19713  16.577  15.949  11.985 -0.2168  0.1702  0.0683
 1510W        W19714  16.322   0.124  14.683 -0.2627 -0.1676  0.3362
 1511W        W19715  11.746   2.232  12.358  0.0789 -0.3530 -0.0837
 1512W        W19716  16.582  12.765  12.454  0.3388 -0.1567 -0.4127
 1513W        W19717  14.533   0.574   0.332 -0.2691 -0.0219  0.2119
 1514W        W19718   9.328  14.243  11.944 -0.2085  0.1075  0.2457
 1515W        W19719   4.928  16.130   2.656 -0.0611 -0.1770 -0.4486
 1516W        W19720   2.944  14.045   4.680 -0.2459  0.0246 -0.2054
 1517W        W19721  10.668  15.962   1.230 -0.1151  0.3000 -0.1478
 1518W        W19722   8.534   9.380  13.390 -0.1898  0.3960  0.0522
 1519W        W19723  18.588   3.869   3.445 -0.2509  0.0091  0.3727
 1520W        W19724   5.288  18.138   0.486  0.1474  0.2728  0.0302
 1521W        W19725  13.788  12.709  11.394 -0.0558  0.2205 -0.0910
 1522W        W19726   6.830   4.381   2.933 -0.1359 -0.1532 -0.3142
 1523W        W19727   4.358  16.053  11.624  0.1292 -0.2324 -0.1108
 1524W        W19728   3.388   5.440  15.407 -0.0183  0.4520 -0.0475
 1525W        W19729   7.762   2.871   1.062 -0.1368 -0.0575  0.0084
 1526W        W19730  11.518   3.639   3.928 -0.0555 -0.3010  0.0381
 1527W        W19731   3.262  14.680  15.085 -0.0149  0.1367  0.0653
 1528W        W19732  15.818   2.038   0.783 -0.2248  0.3494 -0.0674
 1529W        W19733   9.566  10.297  14.245 -0.2034  0.1566 -0.2127
 1530W        W19734   1.656  13.407  14.865 -0.3053  0.2219  0.2080
 1531W        W19735  17.513  18.385   0.278 -0.1959  0.1683 -0.0562
 1532W        W19736  12.027   7.941   3.564 -0.0720  0.2039 -0.1972
 1533W        W19737  12.177   7.236  11.694 -0.1806  0.3647 -0.1384
 1534W        W19738   7.692  11.570  15.019 -0.0477  0.0268  0.1690
 1535W        W19739   4.946  17.139   0.752  0.1242  0.2719 -0.0136
 1536W        W19740   5.595  18.564  13.392 -0.2551 -0.2849  0.2936
 1537W        W19741  12.318  17.807   1.243 -0.0811 -0.0724  0.2941
 1538W        W19742  17.388  12.804   1.041  0.4031  0.1356  0.4149
 1539W        W19743   0.356  11.466   1.261  0.1561 -0.0591  0.3465
 1540W        W19744  11.435  13.443  11.958 -0.1518  0.0506  0.1239
 1541W        W19745   3.750   7.902   4.240 -0.0537 -0.1286  0.0857
 1542W        W19746   6.308  16.607  13.119 -0.0800  0.1200  0.1120
 1543W        W19747  14.237   9.725  10.251  0.3259 -0.0348 -0.0716
 1544W        W19748   5.999  10.654  11.039 -0.2278 -0.0592 -0.0717
 1545W        W19749   0.769  11.499   3.512  0.3131 -0.1545 -0.1959
 1546W        W19750   6.011  18.033  11.473  0.2149 -0.2338  0.3214
 1547W        W19751  14.491   9.565   3.841 -0.2392  0.1663  0.0641
 1548W        W19752  15.957  15.052   0.850 -0.1157  0.2921 -0.0354
 1549W        W19753  15.027  17.135  15.406 -0.1747  0.0675  0.2539
 1550W        W19754   6.928  14.096   1.083 -0.0778  0.0216 -0.2657
 1551W        W19755   3.373   7.218  11.582  0.2956  0.0818  0.1226
 1552W        W19756  13.079   6.961  14.587 -0.1225  0.0758  0.0951
 1553W        W19757   0.024   1.893  12.229  0.1486  0.2762  0.4296
 1554W        W19758  12.334  16.513   1.152  0.1533  0.1719  0.0537
 1555W        W19759  10.732  13.560   4.552 -0.0768 -0.1137  0.0725
 1556W        W19760  14.688  17.056   2.447 -0.0726  0.2642  0.0723
 1557W        W19761   7.745   3.714  14.114  0.0622  0.1145  0.4158
 1558W        W19762  11.797  16.983  11.666 -0.1270  0.1118 -0.0242
 1559W        W19763  14.853   4.349   4.936  0.1117  0.2694 -0.2738
 1560W        W19764   9.856   7.213   1.171  0.0314 -0.1222  0.2831
 1561W        W19765  11.319   2.525  11.799  0.5955 -0.1200  0.1506
 1562W        W19766  11.149   0.455   4.195 -0.1078 -0.0058  0.0019
 1563W        W19767   5.876  17.583  14.090  0.1705 -0.3079  0.1463
 1564W        W19768   5.474  16.079  11.494  0.0746 -0.1156 -0.0646
 1565W        W19769   3.723   0.718  13.922  0.0218  0.1759 -0.2696
 1566W        W19770   8.883   7.163  13.100 -0.3348  0.0786  0.1156
 1567W        W19771  15.483  13.933   3.061  0.0263  0.1228  0.2275
 1568W        W19772  14.246  15.311  13.728  0.0152  0.0181 -0.2220
 1569W        W19773  15.665  17.033   4.041  0.2278 -0.2265  0.2844
 1570W        W19774   1.455   2.804  14.889  0.2219 -0.0785 -0.0023
 1571W        W19775  16.278   8.391   1.768  0.2753 -0.0332  0.0929
 1572W        W19776  17.143  10.809   3.399 -0.1625 -0.1055  0.0961
 1573W        W19777  16.695  14.217   3.623 -0.1003  0.0702  0.3460
 1574W        W19778   2.256  15.681  11.334  0.0808 -0.3871  0.2276
 1575W        W19779   6.458   6.233   3.804 -0.1503  0.1610 -0.1199
 1576W        W19780   0.199   0.069   9.984  0.2380  0.0514  0.2153
 1577W        W19781   3.462   5.001  11.946  0.2901  0.0644 -0.1625
 1578W        W19782  17.941   2.301   1.273 -0.1363 -0.1539  0.1626
 1579W        W19783   2.039   3.494  14.816  0.2651 -0.2685 -0.1058
 1580W        W19784   0.009  16.005  15.241 -0.2800 -0.5774  0.2512
 1581W        W19785  10.846   7.443   0.459  0.1529  0.2865  0.2764
 1582W        W19786  15.044   3.802  12.046 -0.2794 -0.2361 -0.2989
 1583W        W19787  11.226  12.992   2.740 -0.2632 -0.0853 -0.1648
 1584W        W19788  14.403   7.564  10.665 -0.1763  0.1760 -0.1138
 1585W        W19789   3.944   8.309  13.252  0.1057  0.1816 -0.2840
 1586W        W19790   9.859   8.170  12.432 -0.2023  0.0528  0.2392
 1587W        W19791   9.551   0.332   0.099  0.3950  0.3236 -0.2085
 1588W        W19792  12.384  15.650  15.224 -0.0427 -0.2858 -0.1321
 1589W        W19793   0.322  18.212  11.895 -0.0441 -0.0551 -0.0503
 1590W        W19794   0.239   8.465   4.113  0.0404  0.0800 -0.2468
 1591W        W19795   9.534  11.539  12.634 -0.1801 -0.1847  0.2085
 1592W        W19796   2.629   8.115  10.882 -0.3649 -0.0152  0.2449
 1593W        W19797   0.685   7.680   2.718  0.0502  0.2484 -0.1571
 1594W        W19798   2.086   6.035  13.377  0.1561  0.2777 -0.0738
 1595W        W19799   9.324   9.000   0.079  0.3095 -0.2400 -0.1441
 1596W        W19800  15.995  11.619   4.297  0.0223  0.1647  0.2077
 1597W        W19801  15.312  13.645   1.414 -0.1571  0.0236  0.0998
 1598W        W19802   8.408   3.514   1.415 -0.1056  0.1019  0.1028
 1599W        W19803   8.926   4.150   2.764  0.1909  0.1538  0.2739
 1600W        W19804  16.301  12.695  13.222 -0.0759 -0.1316 -0.0994
 1601W        W19805  10.556   8.781  14.505 -0.2325 -0.1076 -0.2971
 1602W        W19806   7.032  12.620  13.304  0.0870 -0.5512  0.1326
 1603W        W19807   8.619   1.114   0.740  0.2492 -0.0391 -0.0676
 1604W        W19808   8.593   2.913   0.303 -0.3294  0.1398 -0.0849
 1605W        W19809  15.203   4.311   5.426  0.2555  0.0577 -0.2599
 1606W        W19810  16.684   5.073   4.263 -0.3099 -0.1090  0.0123
 1607W        W19811   9.071   0.301   2.763  0.0827  0.0575  0.2178
 1608W        W19812   6.684   6.211  12.559  0.1561 -0.1844  0.3041
 1609W        W19813  16.986  17.425  11.149  0.0043 -0.3741 -0.1915
 1610W        W19814  18.038   3.495   1.098 -0.1314  0.0802  0.0854
 1611W        W19815   6.785   5.133  14.761 -0.2257  0.0410  0.0698
 1612W        W19816   1.661   0.504  12.562  0.2371  0.1349  0.2585
 1613W        W19817   9.805  11.684   4.116 -0.1270 -0.0293  0.1357
 1614W        W19818   2.130  10.184  13.397  0.0880 -0.3060 -0.0469
 1615W        W19819  13.178   3.661   3.225  0.1170 -0.0115  0.1047
 1616W        W19820  14.912   5.277  11.444 -0.1264 -0.1334  0.1098
 1617W        W19821   0.788   0.308  11.294  0.2218 -0.0820  0.0387
 1618W        W19822  12.263  13.277  14.377  0.1132  0.3949  0.1197
 1619W        W19823  15.024  16.619   4.658 -0.1045 -0.0940  0.2973
 1620W        W19824   6.704   1.237  15.011 -0.0044  0.1218 -0.0287
 1621W        W19825   6.847  16.935  11.818 -0.0747  0.1629 -0.1815
 1622W        W19826  16.737   3.721  14.267  0.1651  0.1160 -0.1085
 1623W        W19827   3.251  11.958   2.244 -0.1238 -0.0302  0.3169
 1624W        W19828   0.214   6.119   0.638 -0.1455 -0.1493  0.2910
 1625W        W19829  14.042  18.546  14.267 -0.3029  0.0932 -0.1902
 1626W        W19830  14.400   0.067  12.347 -0.2379 -0.6620 -0.0387
 1627W        W19831  12.435   7.331  11.238 -0.3291  0.0483 -0.2025
 1628W        W19832   8.202  13.479  10.344 -0.4110 -0.4067 -0.0971
 1629W        W19833   5.945   3.139   4.459  0.1220  0.1137  0.2558
 1630W        W19834  14.762   2.482  13.893 -0.1532  0.1045  0.0666
 1631W        W19835   1.537  17.114  10.969 -0.0207  0.1490  0.1568
 1632W        W19836   0.775   9.028   2.155  0.0007  0.1463  0.0871
 1633W        W19837  11.686   3.202  14.408 -0.0992 -0.3323  0.0627
 1634W        W19838  12.568  11.122   2.265 -0.0243 -0.1966 -0.0693
 1635W        W19839   4.162   3.902   3.580 -0.1462  0.2768 -0.0360
 1636W        W19840  15.649   9.970   3.973  0.1035 -0.1244 -0.0666
 1637W        W19841   7.240  12.587   2.049  0.1353  0.0191  0.2973
 1638W        W19842  11.068  16.757  15.333 -0.1558 -0.0037 -0.0386
 1639W        W19843   5.960   5.490  14.466  0.2744 -0.1972 -0.0556
 1640W        W19844   2.989   6.089  10.889 -0.0025  0.0818  0.1273
 1641W        W19845  13.932  10.259  15.316 -0.1128 -0.1018 -0.1600
 1642W        W19846   6.025   7.634   0.324 -0.2943 -0.1684 -0.0874
 1643W        W19847  17.519   2.691   2.281 -0.1768  0.2089  0.1298
 1644W        W19848  14.437   5.163  10.149 -0.2711 -0.0281 -0.4324
 1645W        W19849  13.281  17.542   0.111  0.1010 -0.0132  0.0456
 1646W        W19850   4.158   8.354   3.549 -0.0286 -0.0439 -0.3165
 1647W        W19851  15.900   5.556   3.897  0.2249  0.0471  0.2729
 1648W        W19852   3.616  14.885   3.235 -0.0568 -0.0270  0.1912
 1649W        W19853   0.077  13.495  12.017 -0.0002  0.1352 -0.1284
 1650W        W19854  17.749   2.438   2.638  0.1438  0.1029  0.0263
 1651W        W19855   1.933  10.180  12.352  0.2594  0.0574  0.3108
 1652W        W19856  15.909  10.000  14.293  0.0061  0.2603  0.5189
 1653W        W19857   0.660   3.625   0.869 -0.2176  0.3066 -0.2368
 1654W        W19858   6.046   7.358  15.303 -0.0035 -0.0013  0.1258
 1655W        W19859  14.539   3.090  10.890 -0.2575  0.0132 -0.1436
 1656W        W19860   0.809  13.776   2.951  0.0238 -0.2095 -0.2796
 1657W        W19861  11.783  17.126  14.415 -0.0254  0.1476  0.0713
 1658W        W19862  14.687   7.469  13.928  0.0946  0.1165  0.0687
 1659W        W19863  11.222   8.330   3.898  0.0521  0.0141  0.0970
 1660W        W19864   1.050  18.490   1.543 -0.0694  0.1845  0.1409
 1661W        W19865   7.457   3.402   2.270 -0.2154  0.1684 -0.0403
 1662W        W19866   8.804  10.038  12.903 -0.0532  0.3511 -0.0092
 1663W        W19867  17.081   2.594   2.485  0.1709 -0.2488  0.1155
 1664W        W19868   8.690   9.910   2.756 -0.0008 -0.1390 -0.6530
 1665W        W19869   5.931  11.516   4.371  0.2540 -0.1469 -0.1394
 1666W        W19870   4.727   8.187   5.203 -0.0427 -0.1496 -0.0268
 1667W        W19871   1.188  17.262   2.210 -0.1748  0.3441 -0.2379
 1668W        W19872   4.331  16.067  13.968  0.0985  0.0448  0.0445
 1669W        W19873   1.857   5.891   2.763  0.0584  0.0112 -0.2479
 1670W        W19874   1.177   3.670   1.019 -0.0303 -0.3065  0.0981
 1671W        W19875   6.215   6.061   0.809  0.0020  0.2196  0.2291
 1672W        W19876  15.320   2.956  12.509 -0.0992  0.1640 -0.0035
 1673W        W19877  10.190  14.774  13.525  0.1423  0.0041  0.0336
 1674W        W19878   6.154  14.615   4.688  0.3379 -0.1202  0.1067
 1675W        W19879  14.922  17.984   4.481  0.1011  0.0246  0.0287
 1676W        W19880   1.693  11.003   4.653 -0.0346 -0.0886  0.1436
 1677W        W19881   5.647   7.120  12.713  0.0253 -0.1025 -0.0803
 1678W        W19882   3.074  12.655   3.821 -0.2261 -0.1965  0.0833
 1679W        W19883   7.340   6.576   2.121  0.0788 -0.0679  0.2340
 1680W        W19884  13.721   1.666   2.309  0.1518  0.0232 -0.0774
 1681W        W19885   8.783   9.996  15.423 -0.0589 -0.3431  0.1409
 1682W        W19886  14.317  10.494  14.991 -0.2025  0.3164  0.1321
 1683W        W19887   7.376   5.437  15.370 -0.1865  0.0200  0.0674
 1684W        W19888  13.402   1.965  12.322  0.0340 -0.0125 -0.1980
 1685W        W19889  16.228  17.760   3.896 -0.0912  0.2361  0.1331
 1686W        W19890   3.385   2.760  10.448  0.1734 -0.1538  0.1244
 1687W        W19891   8.651  15.951   1.367 -0.0754  0.2621 -0.1838
 1688W        W19892   6.064  14.818  12.993 -0.2311  0.2080  0.2173
 1689W        W19893  10.444   2.695  11.921  0.1363 -0.1009  0.3264
 1690W        W19894  11.196   4.903  13.909  0.0979 -0.2520 -0.1401
 1691W        W19895  12.174   8.929   1.548  0.0042 -0.2065 -0.3689
 1692W        W19896   7.565   0.090  11.146  0.1446 -0.0305 -0.1189
 1693W        W19897   7.264  13.608   3.037  0.1393  0.0519 -0.1304
 1694W        W19898   7.437   6.019  12.738  0.1325  0.2571 -0.0183
 1695W        W19899   9.713   4.479   0.239 -0.2870 -0.0374  0.0181
 1696W        W19900   7.353  10.410  10.124 -0.0078  0.0863 -0.0360
 1697W        W19901   3.461  17.294   2.195 -0.0324  0.1444 -0.3918
 1698W        W19902  17.683  13.598  14.748 -0.1228 -0.1925 -0.1062
 1699W        W19903   0.905  17.193   5.539 -0.0149  0.2245  0.0872
 1700W        W19904   8.531  12.901  10.925 -0.0130  0.0539 -0.2357
 1701W        W19905   1.405  14.047  13.887 -0.3171  0.0295  0.2174
 1702W        W19906   5.408   8.621   1.286  0.2865 -0.0172  0.1742
 1703W        W19907   6.580   5.776  13.255 -0.4365  0.1882 -0.5985
 1704W        W19908   2.942  15.971   4.615 -0.1280 -0.2564  0.5385
 1705W        W19909   7.837   6.336   2.045 -0.2511  0.0194 -0.2919
 1706W        W19910   4.767  12.039  10.887  0.0453 -0.1881  0.0857
 1707W        W19911  10.842   4.146  13.077 -0.1096 -0.1930 -0.0771
 1708W        W19912  15.134  13.080  15.237 -0.1607  0.2117 -0.0063
 1709W        W19913  14.637   7.984  10.824  0.0644 -0.1526  0.0534
 1710W        W19914   5.446   0.374   5.011 -0.3888 -0.2796  0.3511
 1711W        W19915   6.101   4.406   1.220 -0.0132  0.1205 -0.0776
 1712W        W19916   6.654  10.032  12.165 -0.0836  0.0625  0.0057
 1713W        W19917  18.270   2.645  11.384 -0.0461  0.0309 -0.2621
 1714W        W19918   3.932  17.816  11.664  0.0910 -0.0014  0.1659
 1715W        W19919  18.234   8.515   3.505  0.1580  0.0158 -0.0103
 1716W        W19920  18.352   9.542   2.221 -0.0030 -0.1388  0.0082
 1717W        W19921   2.592  11.335   1.705 -0.0939  0.3305  0.1937
 1718W        W19922   6.053  13.573   2.832 -0.2713 -0.3622 -0.1942
 1719W        W19923   0.755   8.352   3.044  0.4876  0.3712 -0.1754
 1720W        W19924   3.748   9.179  13.434 -0.0024  0.0746 -0.0771
 1721W        W19925   9.774   6.587   0.546  0.2817  0.0577 -0.0513
 1722W        W19926  16.167  10.436  14.482 -0.2415  0.0366  0.3286
 1723W        W19927   5.576  10.624   5.341 -0.0315  0.0337 -0.2043
 1724W        W19928  14.905  15.205   3.156 -0.1365  0.0672 -0.4645
 1725W        W19929   7.415   7.980  14.813  0.0811  0.2762 -0.0014
 1726W        W19930  11.011  12.293  12.371 -0.0676 -0.3384 -0.2634
 1727W        W19931  14.730  12.683  14.356 -0.0140  0.3550 -0.1095
 1728W        W19932  15.323   7.988   1.404  0.4757 -0.0839  0.4603
 1729W        W19933  13.085  10.863  14.888  0.0007 -0.2237 -0.0204
 1730W        W19934  17.440   1.416  12.632  0.1899 -0.0210  0.3703
 1731W        W19935  12.504   8.952  14.199 -0.0893 -0.2493  0.0210
 1732W        W19936  10.290  11.188  12.005  0.0651  0.2147 -0.2556
 1733W        W19937  13.661  12.030   4.439  0.0791  0.1646 -0.0229
 1734W        W19938   5.009   1.945   3.686  0.0540  0.1600 -0.2150
 1735W        W19939   9.252   5.243  13.590 -0.4289 -0.2595 -0.2276
 1736W        W19940   1.094  12.901  10.837  0.1416 -0.0496  0.2502
 1737W        W19941  15.555   1.363  10.651  0.0317  0.1739  0.0943
 1738W        W19942   2.140  10.195  11.412  0.1781 -0.2012  0.2644
 1739W        W19943  13.209  16.456   0.538  0.0592 -0.2499  0.1540
 1740W        W19944  11.343  14.028  11.411 -0.1485 -0.1468 -0.4711
 1741W        W19945   2.439  12.660   5.448 -0.0825  0.2581  0.0058
 1742W        W19946   8.480   6.290  13.463 -0.2770  0.4066  0.1861
 1743W        W19947   5.907  17.024  11.887 -0.3036  0.0683  0.1209
 1744W        W19948  18.502   2.891  10.992 -0.0748 -0.1511  0.0274
 1745W        W19949  14.204  13.432  11.691 -0.1948 -0.1174  0.0969
 1746W        W19950   1.138   6.769   0.350  0.0701  0.2158 -0.0648
 1747W        W19951  15.401  10.607   5.598 -0.2067 -0.1032  0.1643
 1748W        W19952   8.189  17.007  12.338 -0.3283 -0.2086  0.4573
 1749W        W19953   2.307  10.853  14.826 -0.3813  0.2097  0.0620
 1750W        W19954   6.178   5.151   2.119 -0.4034  0.0118 -0.3674
 1751W        W19955   0.049  17.763   3.106 -0.0069  0.6790  0.0831
 1752W        W19956  12.854   7.781   2.382 -0.0382  0.1047  0.1398
 1753W        W19957   9.562   6.451   3.539  0.1661  0.0228 -0.3010
 1754W        W19958   8.970  14.605  11.807 -0.1692 -0.1134  0.0477
 1755W        W19959   3.864   8.580   0.663 -0.2192  0.0655 -0.3161
 1756W        W19960  12.267   7.020   3.876  0.1095  0.3945  0.1672
 1757W        W19961  10.927   5.646   3.221 -0.1958  0.0396 -0.0834
 1758W        W19962  15.288  14.734  14.401 -0.0054  0.1274  0.0296
 1759W        W19963  11.223  11.286   3.472  0.0497 -0.0135 -0.1396
 1760W        W19964   1.690  14.225  10.966 -0.4693  0.1753 -0.2102
 1761W        W19965  14.509   9.883   2.436  0.0229  0.2029  0.2183
 1762W        W19966   0.400   2.242   4.211  0.0692  0.1664 -0.0132
 1763W        W19967  13.656   4.658  13.361 -0.2657  0.0713 -0.0374
 1764W        W19968  16.901   5.935   1.205  0.1612 -0.0028  0.0055
 1765W        W19969  17.160   4.533   2.516  0.1519  0.1253 -0.1883
 1766W        W19970   0.964   1.349  11.089  0.0609  0.1788 -0.0853
 1767W        W19971   8.698  15.947   0.475  0.4172  0.0973 -0.1695
 1768W        W19972  16.955  17.466   0.046  0.1020  0.1417  0.0211
 1769W        W19973   2.656   3.211  11.015 -0.1208 -0.1165  0.1234
 1770W        W19974  18.584   5.296   1.586  0.1852  0.1238 -0.2817
 1771W        W19975   0.331   2.268   0.815  0.0489  0.0321 -0.0700
 1772W        W19976   1.026  11.573   1.117  0.0218 -0.2963  0.0495
 1773W        W19977   0.877  17.709  14.859 -0.2204  0.1997 -0.1241
 1774W        W19978  17.448   0.848   9.785  0.3385  0.0753 -0.0295
 1775W        W19979  10.358   2.510  14.926 -0.2252  0.1601  0.1836
 1776W        W19980  17.493   2.587  10.988 -0.2221  0.0342 -0.0080
 1777W        W19981   7.812   9.792  11.097 -0.0446  0.2441  0.1878
 1778W        W19982   5.392   5.947  10.628 -0.2501  0.2866  0.0299
 1779W        W19983   4.619   1.641   3.502  0.0663  0.4056  0.3062
 1780W        W19984  13.337   6.471  13.466 -0.0137  0.2019  0.1249
 1781W        W19985  12.753   5.308  11.762 -0.0356 -0.0806 -0.0981
 1782W        W19986  10.500   3.720  11.049  0.2394  0.0124  0.2030
 1783W        W19987  15.434  14.679  11.519  0.2462  0.0816  0.0074
 1784W        W19988   4.458  14.737   4.487 -0.2474 -0.0390  0.0203
 1785W        W19989   5.451  14.568   4.466  0.2267  0.0014  0.2968
 1786W        W19990   9.728   6.917  11.785 -0.2072 -0.3451  0.0166
 1787W        W19991  13.660   6.418  13.828  0.0885  0.2313 -0.1169
 1788W        W19992  16.191  17.649   4.567 -0.0023 -0.1474  0.0988
 1789W        W19993  11.411   7.467  12.756 -0.3733  0.1018 -0.2383
 1790W        W19994  14.010   7.369   0.430  0.2954  0.2098  0.0983
 1791W        W19995   2.495   6.567   3.185  0.1774 -0.2717  0.0971
 1792W        W19996   8.022  10.745   0.323 -0.4725 -0.1236  0.0784
 1793W        W19997  16.027  13.443  13.525 -0.0669 -0.2328  0.0947
 1794W        W19998  11.753   8.070  13.251  0.1167 -0.1224  0.0945
 1795W        W19999  15.360  16.210   4.818 -0.1413 -0.0802 -0.2099
 1796W        W20000  15.498   1.525  12.457  0.0528 -0.0340 -0.4111
 1797W        W20001   2.974   3.455  12.695 -0.0362  0.0363  0.0263
 1798W        W20002   8.474  12.936  15.098 -0.1694  0.1082 -0.0987
 1799W        W20003  10.895   2.400   1.468 -0.2709  0.1033  0.1397
 1800W        W20004   7.512  15.187   2.674 -0.0216  0.2111  0.0821
 1801W        W20005  11.570   0.155  15.225  0.5456  0.3493 -0.1145
 1802W        W20006   0.332  13.950  14.474  0.0440 -0.4770 -0.0053
 1803W        W20007  12.960  15.199   5.623 -0.0653  0.1374  0.1349
 1804W        W20008   6.339   3.052   3.536 -0.1314 -0.1323 -0.0584
 1805W        W20009   8.508  17.230  12.642  0.0715  0.0815 -0.0687
 1806W        W20010  11.255  17.373   1.092 -0.1129  0.3978  0.0068
 1807W        W20011   1.391  13.227  11.038  0.4161 -0.1892 -0.0837
 1808W        W20012   0.041   2.429  15.319  0.0687  0.1032 -0.1748
 1809W        W20013   3.859   0.909   5.082  0.0160 -0.1370 -0.1203
 1810W        W20014   8.244  10.117  12.874 -0.4047  0.2944 -0.2336
 1811W        W20015   7.688   1.408  15.147 -0.0988  0.2619 -0.2134
 1812W        W20016   5.844  14.813  12.071 -0.1366 -0.0235 -0.1207
 1813W        W20017   1.949   4.396  11.377  0.1061 -0.2034  0.0505
 1814W        W20018  13.062  11.437  14.233 -0.0083  0.0393 -0.0357
 1815W        W20019   3.294  14.092   3.656  0.1731 -0.3418 -0.0640
 1816W        W20020  14.840   8.986  14.426 -0.0645  0.0230 -0.0651
 1817W        W20021   2.390  12.107   3.098 -0.0230 -0.0014  0.0027
 1818W        W20022   5.565  15.232  11.871 -0.1230 -0.1359 -0.1589
 1819W        W20023  18.268   8.970   3.714 -0.3801 -0.0366  0.2841
 1820W        W20024   3.585  14.480   2.760 -0.1744  0.5235 -0.2393
 1821W        W20025   0.545  11.572   0.278 -0.0407 -0.0631  0.1676
 1822W        W20026   4.945   0.896   4.871 -0.1371 -0.2408 -0.5053
 1823W        W20027  13.295   7.698  11.384 -0.3512 -0.1798  0.1357
 1824W        W20028  11.361   5.555  14.631 -0.0817 -0.1390  0.0412
 1825W        W20029   4.951  13.229  10.582 -0.0872 -0.0494  0.2405
 1826W        W20030   6.504   7.035  15.096  0.2611 -0.2530  0.1469
 1827W        W20031   5.779   7.522  14.898 -0.2708  0.0927 -0.0750
 1828W        W20032  14.240   2.196  14.540 -0.1878 -0.1940 -0.1171
 1829W        W20033  12.646  13.961   4.048 -0.2044 -0.2138 -0.1318
 1830W        W20034   5.935  12.882   0.222 -0.1696  0.0540 -0.1449
 1831W        W20035   8.873  14.560   3.332 -0.0320 -0.2080  0.0579
 1832W        W20036  13.858   0.333  14.160  0.0848  0.0627  0.2817
 1833W        W20037  17.066  13.272   1.685 -0.1071 -0.3571  0.4402
 1834W        W20038   5.116   8.267  14.116 -0.3078  0.1676  0.0728
 1835W        W20039   0.455   5.637  11.969  0.0640  0.3798  0.0803
 1836W        W20040  16.344  14.530   3.972 -0.1802  0.1971  0.1375
 1837W        W20041   1.372   0.592   3.936 -0.0901  0.0336 -0.3070
 1838W        W20042   9.148   0.605   0.313  0.0107  0.0962 -0.2327
 1839W        W20043  12.552   5.371  12.823 -0.0222 -0.2146  0.0009
 1840W        W20044   1.249  12.585   2.738  0.0460  0.0702  0.1596
 1841W        W20045   1.086  11.962   1.741 -0.1615  0.0498 -0.3536
 1842W        W20046   3.807  13.684  14.089  0.3500  0.0318  0.0994
 1843W        W20047  16.270  10.818  15.348 -0.2434  0.2873 -0.0879
 1844W        W20048  17.921   8.100  14.533 -0.2855 -0.0504  0.1567
 1845W        W20049  12.531  17.949  15.275  0.3204 -0.0834  0.4764
 1846W        W20050  17.299   9.476   4.370  0.0467 -0.0588  0.1606
 1847W        W20051  14.237  16.237   2.497 -0.2438  0.2654 -0.1727
 1848W        W20052   5.425   8.750  15.292  0.1308  0.2059 -0.1569
 1849W        W20053   4.648  16.596  12.578 -0.1747 -0.1240  0.2918
 1850W        W20054   7.334  15.747   3.032  0.1782  0.1060  0.2448
 1851W        W20055  10.093  14.895  12.217  0.1817  0.2767  0.1653
 1852W        W20056  10.199  10.276   4.381  0.2481  0.1638 -0.3269
 1853W        W20057   2.201   3.489   3.029  0.3109  0.0424  0.1004
 1854W        W20058  13.686  17.791   2.802  0.1306 -0.1091  0.0026
 1855W        W20059  10.418   7.575   0.034  0.0674  0.2556  0.0693
 1856W        W20060  13.927  10.023  14.351  0.2549 -0.1261  0.1029
 1857W        W20061   6.943   6.705  14.828  0.2081  0.0487  0.0209
 1858W        W20062  12.688  13.256  11.618 -0.1064 -0.1582 -0.1536
 1859W        W20063   1.121  12.596   0.407 -0.3672  0.0673 -0.0578
 1860W        W20064   2.415  16.733   1.341  0.1834 -0.0723 -0.0643
 1861W        W20065  11.026   1.711  12.052 -0.0749 -0.3868  0.1668
 1862W        W20066  13.786  17.539  10.125 -0.1906  0.0629 -0.0605
 1863W        W20067   3.755  13.860  10.846  0.1428 -0.0117  0.4751
 1864W        W20068   8.831   8.340   0.684 -0.1666 -0.2080 -0.1928
 1865W        W20069   7.204   8.426  11.751  0.3348  0.0479  0.3344
 1866W        W20070  16.802   1.210   1.698  0.3765 -0.0614 -0.3590
 1867W        W20071   9.605   5.242   2.601 -0.2068  0.0500  0.2364
 1868W        W20072   7.850  11.029  10.658 -0.0690 -0.1703  0.2661
 1869W        W20073  16.340   8.613  13.131 -0.0536  0.0911  0.2418
 1870W        W20074  14.469  10.596  11.412 -0.3586 -0.0462  0.0187
 1871W        W20075   9.298  14.905   2.458  0.1734  0.2226 -0.2271
 1872W        W20076  10.504  14.807  14.022 -0.1710 -0.0772  0.1316
 1873W        W20077   8.764  14.138   1.709  0.3502  0.0452 -0.1593
 1874W        W20078  11.934   8.404   3.179  0.1478  0.2898  0.0315
 1875W        W20079  16.323  17.321  11.090 -0.1924  0.1812  0.3864
 1876W        W20080   4.602   8.700  13.063  0.1831 -0.1325  0.1774
 1877W        W20081   9.535  12.650  15.407  0.1367  0.0857  0.1038
 1878W        W20082   6.770  11.527   4.046 -0.0568 -0.0729 -0.0273
 1879W        W20083   7.146   0.112   4.891 -0.1793 -0.2101 -0.1780
 1880W        W20084  12.112  15.305   1.943 -0.1410 -0.2402 -0.1556
 1881W        W20085  16.479   9.271   1.010  0.0634  0.0143 -0.3251
 1882W        W20086  14.795   1.309  12.071 -0.0047 -0.1515 -0.0145
 1883W        W20087   0.212   6.392   3.242 -0.2231  0.2064  0.0830
 1884W        W20088   1.175  16.920   0.348  0.1757 -0.0636 -0.1530
 1885W        W20089   7.488   4.434   2.816 -0.0317 -0.1538  0.1299
 1886W        W20090   2.376   4.645   4.414  0.0706 -0.1833  0.4549
 1887W        W20091  18.167   5.400   3.607  0.0373  0.1394  0.2053
 1888W        W20092   2.158  10.622  13.098 -0.2341 -0.1007 -0.2547
 1889W        W20093  10.686  17.161   2.166  0.0974  0.4107 -0.1641
 1890W        W20094   1.517   2.115  11.257  0.1015 -0.1292 -0.2601
 1891W        W20095  18.538   3.837  13.394  0.3059 -0.2842 -0.5777
 1892W        W20096   3.414   2.574  11.368  0.0260 -0.0131 -0.0129
 1893W        W20097   7.045   0.411   0.006  0.0195 -0.0065 -0.1760
 1894W        W20098   6.761  17.380   1.640  0.0187  0.1524 -0.2050
 1895W        W20099   1.225   7.268  12.567 -0.0748 -0.2184  0.0443
 1896W        W20100   8.123  18.000  13.301 -0.0875 -0.0416  0.0830
 1897W        W20101  12.129   3.739  11.194 -0.3465  0.0073 -0.0190
 1898W        W20102  16.927  16.402   2.537 -0.1899  0.2140 -0.2116
 1899W        W20103  15.449   9.701  11.484  0.4229 -0.1662  0.0201
 1900W        W20104   5.106  17.188   1.531 -0.2564  0.1340 -0.2230
 1901W        W20105   8.905  16.980   2.069 -0.0044  0.0716 -0.1435
 1902W        W20106   9.629  18.552   1.460  0.1503  0.1037 -0.1509
 1903W        W20107  14.073  17.746   9.748  0.1322 -0.0133  0.1279
 1904W        W20108   9.005  13.989   0.212  0.2237  0.0993 -0.0916
 1905W        W20109  14.603   5.955   0.055 -0.2333  0.0879  0.1704
 1906W        W20110  15.558   1.308   5.068  0.0107 -0.1053 -0.2356
 1907W        W20111   9.180   3.358  13.033  0.4003 -0.0235  0.3195
 1908W        W20112  10.836  10.448   1.155 -0.0136  0.0840 -0.2645
 1909W        W20113  18.360   7.887   2.335 -0.0747 -0.1820  0.0764
 1910W        W20114   8.304  14.968   4.038 -0.1840  0.1101  0.2651
 1911W        W20115   9.039   6.698  12.816  0.0555 -0.0758  0.2728
 1912W        W20116   9.180   0.441  14.640 -0.1846  0.0728  0.0189
 1913W        W20117   1.097   8.967   2.513  0.0620  0.3422  0.1736
 1914W        W20118   1.103  17.868   3.088 -0.4305 -0.2316 -0.0599
 1915W        W20119  10.289   0.848   3.113  0.3053  0.0670 -0.3587
 1916W        W20120   3.278   6.241   0.046  0.1669  0.1499 -0.0719
 1917W        W20121  15.688  11.008   0.626  0.0065  0.1348 -0.0867
 1918W        W20122  17.168   3.167   1.142  0.0001 -0.0452 -0.0672
 1919W        W20123   6.079  17.046  12.866  0.2611 -0.2174  0.0179
 1920W        W20124  14.544  13.919   2.970  0.0555  0.1508 -0.0489
 1921W        W20125   0.557   8.454  13.042 -0.1082  0.3705  0.1551
 1922W        W20126   5.865  11.606  12.225  0.3673  0.1281  0.2993
 1923W        W20127   8.818  17.715   0.170 -0.1125 -0.0663  0.1309
 1924W        W20128  16.053   9.179  10.822 -0.2264 -0.0374 -0.2481
 1925W        W20129  14.310  12.118   2.427 -0.0408  0.1435 -0.1286
 1926W        W20130  17.213  10.933  15.048 -0.0465  0.2291 -0.1151
 1927W        W20131  11.089  16.235  12.331 -0.0887  0.0959 -0.2623
 1928W        W20132   3.614  17.885   2.621  0.0173 -0.1136  0.0156
 1929W        W20133  17.685   0.599   3.590  0.1724  0.0720 -0.1093
 1930W        W20134  13.360  13.403   0.595  0.0810 -0.0829  0.0909
 1931W        W20135   8.681  14.765   4.475 -0.1264  0.2230  0.1598
 1932W        W20136   5.142   3.981   2.190 -0.1546  0.3092 -0.0802
 1933W        W20137  10.544   9.554   1.107 -0.1316  0.0794  0.0921
 1934W        W20138   7.687  13.383   1.914 -0.0023 -0.2522 -0.2629
 1935W        W20139   1.111  16.735  14.989 -0.2913  0.0907 -0.0148
 1936W        W20140  15.549  10.612   1.589  0.2787 -0.1004  0.0751
 1937W        W20141  12.731   3.807   2.547 -0.3512 -0.1310 -0.0622
 1938W        W20142   4.818  11.039  10.635 -0.3264  0.2277 -0.0411
 1939W        W20143  14.135   7.824   3.419  0.1010  0.0669 -0.0665
 1940W        W20144   8.140   7.742   2.351  0.1560 -0.0823  0.4199
 1941W        W20145  15.513   8.065   0.895  0.2556  0.0019  0.1197
 1942W        W20146   8.598   0.419   3.447  0.2478 -0.5094  0.0267
 1943W        W20147  10.395   0.393  13.966 -0.2034 -0.2161  0.1675
 1944W        W20148  10.924   7.295   3.802 -0.0383 -0.0292  0.0203
 1945W        W20149   7.228   5.323  14.881  0.1423 -0.0308 -0.0805
 1946W        W20150   4.088  18.596  12.811 -0.0277 -0.2651  0.0981
 1947W        W20151   8.143  17.341  11.660  0.0387 -0.3942 -0.1700
 1948W        W20152   4.129  10.823   2.685 -0.0479  0.0534  0.0366
 1949W        W20153   3.059   2.097   0.977 -0.1832  0.0226 -0.4408
 1950W        W20154  13.297   2.305  13.476  0.0167  0.1878 -0.1894
 1951W        W20155  10.009  17.161   0.620  0.2604 -0.0522 -0.0973
 1952W        W20156  12.341  15.868  11.145  0.0952 -0.0213 -0.0426
 1953W        W20157  15.328   5.264  11.060  0.2839  0.3150  0.1307
 1954W        W20158  10.344   6.904   3.731 -0.1439  0.0767  0.1591
 1955W        W20159   7.612   5.632   0.879 -0.1864  0.0825  0.1850
 1956W        W20160   6.193  12.944   3.772  0.1686 -0.1619  0.1555
 1957W        W20161   0.043   0.070  11.005  0.2561 -0.2196 -0.2099
 1958W        W20162   0.362   6.135  11.888 -0.0579 -0.1613 -0.1247
 1959W        W20163   4.927  12.270   3.015 -0.0875 -0.1192 -0.0597
 1960W        W20164   2.634   4.953  11.335 -0.2384 -0.3146 -0.1765
 1961W        W20165  12.550   3.943   1.289 -0.1337 -0.3868  0.1775
 1962W        W20166  10.820   5.547  14.635  0.2415 -0.0941 -0.2970
 1963W        W20167   5.235   4.032   1.163 -0.1250 -0.0855  0.1623
 1964W        W20168  14.518   7.428   0.370 -0.2804 -0.1276  0.1940
 1965W        W20169  18.162  14.376   2.776 -0.3574 -0.0750 -0.0278
 1966W        W20170   4.919  17.385   3.509 -0.1077  0.0597  0.0284
 1967W        W20171  14.753  13.542   1.537  0.2905  0.2240  0.1528
 1968W        W20172   7.696  12.128  13.636 -0.0016  0.0370  0.1634
 1969W        W20173   6.616  15.327   3.624 -0.1109 -0.1297  0.3552
 1970W        W20174   7.648  14.329  12.297  0.2051 -0.2437  0.1128
 1971W        W20175  15.172   5.801   0.083  0.2305  0.2950  0.0582
 1972W        W20176   1.998  12.671  13.334 -0.2049  0.0382 -0.0608
 1973W        W20177  15.143  15.959  13.214 -0.1319  0.0641 -0.1838
 1974W        W20178   9.102  11.398   3.455 -0.1196 -0.0571  0.1015
 1975W        W20179   0.631  14.776   3.454  0.0194 -0.0558  0.1091
 1976W        W20180  14.637  16.917   4.528 -0.0537  0.0079  0.0753
 1977W        W20181  14.742   4.465   0.818  0.0789 -0.0962 -0.0602
 1978W        W20182  16.241   8.843   4.455  0.4536  0.0220  0.1470
 1979W        W20183  11.900   1.066  13.990  0.3146 -0.3671 -0.1712
 1980W        W20184   3.126  17.105   1.189 -0.0967  0.0768  0.4848
 1981W        W20185  11.331  14.804  11.746 -0.1316  0.0180  0.0694
 1982W        W20186   8.413  13.346   4.815  0.0892  0.1898  0.0822
 1983W        W20187  15.275   7.850  13.173 -0.1178  0.0510  0.0042
 1984W        W20188  12.073  10.364  12.474  0.0522 -0.1819  0.1926
 1985W        W20189  12.151   3.208   3.105 -0.0577  0.0281  0.1824
 1986W        W20190   2.876  15.292  12.663 -0.2689 -0.1046 -0.1368
 1987W        W20191  12.428  15.298   4.611 -0.2703  0.1123 -0.0022
 1988W        W20192   7.212   0.589   0.721  0.1841 -0.0628 -0.1433
 1989W        W20193   2.016  10.432   0.981  0.1346 -0.0679  0.2390
 1990W        W20194  14.563  16.498  12.794 -0.0888  0.0452 -0.0889
 1991W        W20195   6.207   5.915  12.894 -0.1171 -0.0886  0.1662
 1992W        W20196   8.265   1.009  10.104  0.0612  0.0692 -0.1434
 1993W        W20197  10.327  12.802   0.233  0.1161  0.3877  0.4069
 1994W        W20198   9.463   4.337  13.127  0.0460 -0.0605 -0.0690
 1995W        W20199  11.643  12.183  14.697 -0.1468  0.1123  0.0286
 1996W        W20200  14.789  15.294  14.597 -0.0598  0.2246 -0.1056
 1997W        W20201  10.609   7.951   2.254  0.2689 -0.1301 -0.1107
 1998W        W20202   2.490   5.640  13.372 -0.1041 -0.0849  0.1784
 1999W        W20203   1.715   2.532  12.467 -0.1099 -0.1208 -0.1904
 2000W        W20204  10.408   7.657  13.166  0.4757  0.0964  0.1498
 2001W        W20205   0.712  17.013   3.605 -0.0046  0.0572 -0.3137
 2002W        W20206   9.063   9.415  10.691 -0.2525 -0.0829  0.0896
 2003W        W20207  12.044   8.870   0.713  0.0832  0.1521  0.1339
 2004W        W20208  17.209   9.800   3.141  0.2133 -0.1404  0.0061
 2005W        W20209  10.280   4.337  11.212  0.0156  0.3016 -0.0151
 2006W        W20210  17.772  14.666   2.768 -0.2577  0.0559  0.0502
 2007W        W20211  16.559   1.677   0.529  0.0539 -0.2767 -0.2418
 2008W        W20212   4.035  10.139  13.428  0.1084 -0.0957  0.1381
 2009W        W20213   7.341  17.884   5.033  0.1454  0.4194 -0.1947
 2010W        W20214  18.214   8.251  15.074 -0.1007  0.0948 -0.0630
 2011W        W20215   5.229   9.101  12.724  0.1531  0.1181 -0.0484
 2012W        W20216  17.785   8.482   3.798 -0.1912  0.3873 -0.0229
 2013W        W20217  11.112   9.104   0.422 -0.0872 -0.2228 -0.0473
 2014W        W20218  16.194   8.272   2.269  0.1141 -0.0501 -0.4193
 2015W        W20219  15.320  10.640  10.472  0.3625 -0.2276 -0.0217
 2016W        W20220   4.899  10.565  15.359  0.0066 -0.0542  0.1771
 2017W        W20221   5.141  18.171  15.391  0.1418 -0.3211  0.0777
 2018W        W20222  17.502  17.107   2.923  0.2554  0.0706  0.0887
 2019W        W20223  17.696  14.952  11.287 -0.3877 -0.4715 -0.0718
 2020W        W20224   5.623  11.187   3.415  0.0972  0.3019  0.1652
 2021W        W20225  13.537  16.364   0.197 -0.0528 -0.0230 -0.0421
 2022W        W20226  17.190   7.351   1.839 -0.2435  0.2677 -0.0233
 2023W        W20227   6.756  17.660  12.343  0.0505  0.1191  0.1701
 2024W        W20228  16.657  13.081  15.411  0.1886 -0.1401  0.1508
 2025W        W20229   6.000  12.728   2.598  0.2550 -0.1797  0.3494
 2026W        W20230  14.522  13.042  12.390  0.1422 -0.3570  0.0523
 2027W        W20231   2.089  17.949   0.693 -0.0250  0.2013 -0.2363
 2028W        W20232   9.942  15.427   2.638 -0.1553 -0.1985 -0.0224
 2029W        W20233   8.529  13.975  13.455 -0.1210  0.0859  0.1045
 2030W        W20234   5.679   5.432   2.031 -0.1809 -0.2180  0.0956
 2031W        W20235   3.343   4.200   0.480  0.1744  0.0324 -0.3735
 2032W        W20236   7.081  18.269  14.765 -0.3545 -0.1116 -0.1322
 2033W        W20237  18.188   6.934   2.459  0.0425 -0.1866 -0.3427
 2034W        W20238  17.061  16.683   3.706 -0.3223  0.0090 -0.0863
 2035W        W20239   6.259  15.062  11.135  0.0548  0.1883  0.1022
 2036W        W20240   6.893  14.688  13.381  0.1481  0.3079  0.1360
 2037W        W20241   0.933  17.436  12.886  0.2494  0.1081 -0.1061
 2038W        W20242  10.815   1.155  14.190 -0.2012 -0.2096 -0.0010
 2039W        W20243   5.776  17.458  12.162  0.2354  0.0105 -0.0683
 2040W        W20244   1.341  12.322  13.992 -0.3875 -0.1156 -0.1419
 2041W        W20245   1.678  15.530  13.102  0.2652  0.0615 -0.2284
 2042W        W20246  12.512   0.302  13.691 -0.1475 -0.2969  0.0489
 2043W        W20247   2.968   8.856  10.506 -0.1361  0.2553 -0.1145
 2044W        W20248   2.504  17.741  11.133 -0.4997 -0.4383 -0.1844
 2045W        W20249   6.404  16.084  13.204 -0.2916 -0.0336 -0.1310
 2046W        W20250  12.878  10.277  14.938  0.0777  0.0724  0.4268
 2047W        W20251  10.525  15.379   2.519  0.1254 -0.3608 -0.1734
 2048W        W20252   4.699   9.615  12.024 -0.1164  0.1950 -0.1496
 2049W        W20253   9.745  10.516   4.292  0.1691 -0.1282 -0.0307
 2050W        W20254   4.666   5.308  14.569 -0.1749 -0.2109 -0.0948
 2051W        W20255  16.338   4.747   3.557 -0.1092 -0.1032  0.1544
 2052W        W20256   5.622  12.064   1.220  0.0709  0.1011  0.0728
 2053W        W20257  17.847   9.004  12.930 -0.1579 -0.1669  0.2004
 2054W        W20258  14.087   0.231   1.372 -0.3105 -0.0947 -0.0075
 2055W        W20259   0.573  17.492   4.673  0.1654 -0.2359  0.0249
 2056W        W20260   5.577   2.234  12.065  0.1729  0.1885 -0.0149
 2057W        W20261   2.519  17.591   3.789 -0.0395  0.1890 -0.1644
 2058W        W20262  13.486   2.123  11.415  0.1696  0.1202  0.0928
 2059W        W20263   9.713   4.633  14.875  0.3337  0.0290 -0.1584
 2060W        W20264  15.231   7.643   4.977  0.2078 -0.2458 -0.3511
 2061W        W20265   9.112  18.082  12.563 -0.0986  0.1328  0.0008
 2062W        W20266  16.347  18.134  11.081 -0.0844  0.0687 -0.2319
 2063W        W20267  18.390  10.291   0.091 -0.1206  0.1137 -0.0017
 2064W        W20268  11.014  17.157   3.733 -0.0118  0.1306 -0.1346
 2065W        W20269  15.967   3.110   0.877 -0.0572 -0.1003 -0.0280
 2066W        W20270   4.521  12.979  14.491  0.3783 -0.2867 -0.0504
 2067W        W20271   5.093   3.910   2.721  0.0315 -0.1007 -0.2878
 2068W        W20272   0.212   2.333  13.493 -0.1512 -0.0820 -0.0968
 2069W        W20273  13.749   5.000   4.337 -0.0739 -0.3482  0.0718
 2070W        W20274   2.959  14.358  12.564  0.0649 -0.1427  0.0521
 2071W        W20275  12.827  13.703  15.268  0.3359  0.0639  0.2773
 2072W        W20276   8.835   2.502   2.915 -0.0227  0.2014 -0.0117
 2073W        W20277   9.956   1.625   5.457 -0.0779  0.0534  0.0775
 2074W        W20278  14.711   3.308   1.619  0.2713 -0.2683 -0.0333
 2075W        W20279   2.055   7.709  14.418 -0.1492 -0.1272 -0.2333
 2076W        W20280  11.659  10.883  11.287  0.1070 -0.0937  0.1715
 2077W        W20281   5.132   2.937   1.055 -0.2629  0.1398 -0.2075
 2078W        W20282   0.443  10.968  13.268 -0.1968  0.4038  0.1013
 2079W        W20283   0.772   9.207  14.496  0.1397 -0.1191 -0.2332
 2080W        W20284  12.674  13.406  14.894  0.0965 -0.1254  0.0516
 2081W        W20285  13.085   1.091  12.723 -0.0792 -0.1695  0.0312
 2082W        W20286   9.113   7.433   3.548 -0.5261  0.2664  0.2931
 2083W        W20287   8.015   3.719   2.213  0.2071 -0.1760  0.2683
 2084W        W20288  10.143  11.670  11.884  0.1003 -0.1085  0.2549
 2085W        W20289   1.066  12.777  15.057 -0.0377 -0.4584 -0.2456
 2086W        W20290  17.672   6.735  14.452 -0.0249  0.1809 -0.1109
 2087W        W20291   6.238  13.564   3.795 -0.1309  0.1229 -0.1734
 2088W        W20292   6.782   2.840   3.455 -0.0619  0.1851  0.0781
 2089W        W20293  18.316   1.034  14.551 -0.0815  0.0867  0.2083
 2090W        W20294  13.875  12.267   1.837  0.1107  0.0049  0.2383
 2091W        W20295  14.598   8.057  11.355 -0.0365  0.1826 -0.1830
 2092W        W20296   3.844   5.929  12.154  0.3089  0.0099 -0.3514
 2093W        W20297  13.736  17.407  11.270 -0.0672  0.0583 -0.0090
 2094W        W20298   9.117   9.039  11.540 -0.1641 -0.2654 -0.0370
 2095W        W20299   1.396   9.301   4.503  0.0699  0.0394  0.1279
 2096W        W20300   8.798  18.435  10.695  0.0034 -0.1311 -0.0102
 2097W        W20301   8.666   0.592  14.016 -0.2484 -0.0584 -0.3252
 2098W        W20302  14.292   0.125  15.151 -0.0745 -0.0779 -0.0677
 2099W        W20303  13.115  10.141  13.934 -0.2638 -0.1315  0.1155
 2100W        W20304  18.387  15.479   1.724 -0.1217  0.0083 -0.2484
 2101W        W20305  15.584  12.176   1.794 -0.0598 -0.0891  0.1352
 2102W        W20306  16.566   9.733   1.201 -0.1070 -0.0644 -0.0384
 2103W        W20307  16.367  15.545   4.324  0.2330  0.0094 -0.3887
 2104W        W20308  11.940   7.277   2.942 -0.1912  0.0795 -0.1535
 2105W        W20309   0.046  12.472   0.698 -0.1752 -0.0554  0.2000
 2106W        W20310   6.697  13.891  14.797  0.3086 -0.2370 -0.0209
 2107W        W20311   4.587   4.595   0.926 -0.0190  0.0633 -0.1700
 2108W        W20312   4.975   9.751  13.736 -0.1446 -0.0242 -0.0740
 2109W        W20313  14.188   3.786   2.890 -0.1345 -0.1362  0.2882
 2110W        W20314   8.003   4.672  10.781  0.2313  0.1021 -0.0535
 2111W        W20315   8.841  16.024  10.598  0.0007 -0.0474  0.1246
 2112W        W20316   6.736  16.040   3.600 -0.1819  0.1195  0.1215
 2113W        W20317  12.894  11.569   3.079 -0.0091  0.0463 -0.2428
 2114W        W20318   9.636   1.551  12.915  0.0466 -0.1369 -0.0516
 2115W        W20319  12.448   0.697  12.009  0.1698 -0.1090 -0.0647
 2116W        W20320   4.426  11.512   0.467  0.0072 -0.3462  0.0638
 2117W        W20321  17.031  17.895  13.761  0.0764  0.1349  0.2490
 2118W        W20322  18.092   5.838   3.373 -0.1674  0.3751 -0.1373
 2119W        W20323  15.806  14.025   4.406 -0.3419 -0.1440 -0.0431
 2120W        W20324  17.681  14.260  14.277  0.1113  0.0423  0.1099
 2121W        W20325  13.506   3.544   4.100  0.0621  0.4566  0.0174
 2122W        W20326   9.637  12.361  14.560 -0.1016 -0.0045  0.1155
 2123W        W20327  12.861  16.683   3.170 -0.0056  0.0194  0.1243
 2124W        W20328   4.380   1.620   0.218 -0.0887  0.1354  0.1205
 2125W        W20329  17.992   7.549  12.771  0.0171  0.2037  0.0099
 2126W        W20330   4.177  11.674   2.038 -0.2274 -0.0183 -0.2801
 2127W        W20331   1.689   9.264  12.436 -0.1577  0.1719 -0.0977
 2128W        W20332   6.043   4.197  10.796  0.1360  0.0768  0.2259
 2129W        W20333  10.597  11.548  11.843 -0.0520 -0.0908  0.2868
 2130W        W20334  17.264   8.425   3.841  0.0320  0.0427  0.0519
 2131W        W20335  13.523   5.608   0.509 -0.2080  0.2519  0.0560
 2132W        W20336  17.245  12.494  11.473  0.0312 -0.2069 -0.1561
 2133W        W20337  16.424   3.066   4.177  0.3157  0.3758  0.1158
 2134W        W20338  10.386   3.716   4.554  0.0513  0.1785 -0.0429
 2135W        W20339  15.027   7.381   0.243  0.2927 -0.2114 -0.0074
 2136W        W20340   1.396  13.859   0.525  0.1991 -0.1684 -0.2594
 2137W        W20341  14.080  11.317  12.402 -0.0947  0.1084  0.2105
 2138W        W20342  13.796   0.041  12.543  0.2709 -0.0398 -0.4078
 2139W        W20343  10.969   1.100   1.215 -0.1810 -0.1807  0.0223
 2140W        W20344   2.678  10.637   2.802  0.2743  0.0065  0.0176
 2141W        W20345  13.793  16.376  11.782 -0.3392  0.0704 -0.0110
 2142W        W20346  18.276  15.749   5.303  0.0607  0.0053  0.0647
 2143W        W20347   7.521   3.197   2.754 -0.2424  0.0729 -0.0262
 2144W        W20348  12.655  18.281   2.331  0.3445  0.1424 -0.0212
 2145W        W20349   5.153   7.172   4.166  0.0690  0.0557 -0.1907
 2146W        W20350   3.415   7.423  10.351 -0.1806 -0.0217  0.2072
 2147W        W20351  11.511   6.439   3.775  0.2623 -0.2445  0.1381
 2148W        W20352   2.629   9.195   2.408  0.1131  0.2239  0.1969
 2149W        W20353  10.340   8.008  11.532  0.0192  0.0222 -0.0530
 2150W        W20354  10.997  13.040  12.749  0.0640  0.3502 -0.1901
 2151W        W20355  16.178   2.808  11.928 -0.3570 -0.0274 -0.0511
 2152W        W20356  16.153   9.531  14.308 -0.0625  0.2281 -0.0014
 2153W        W20357   9.994   0.876   0.579  0.2493  0.2011  0.0280
 2154W        W20358  11.741  14.930   0.082  0.1301  0.0885  0.0118
 2155W        W20359   8.561   0.242   4.615 -0.0514  0.1127 -0.2380
 2156W        W20360  11.542   1.033   1.444  0.1626 -0.0952 -0.1732
 2157W        W20361  14.356   8.465  11.562  0.0736 -0.1069  0.2130
 2158W        W20362  15.070   9.088   2.097 -0.1266 -0.1769 -0.2733
 2159W        W20363   5.294   6.859   0.854  0.0613 -0.0172  0.1899
 2160W        W20364  16.079  17.555   1.737 -0.0147  0.1473 -0.1592
 2161W        W20365  15.458   5.744  12.291  0.1298  0.0359  0.1887
 2162W        W20366   5.717   6.403  14.078 -0.1484 -0.0751 -0.0914
 2163W        W20367   0.156  11.173   0.154 -0.0092 -0.2846  0.0547
 2164W        W20368  10.009   0.398   1.423  0.0545 -0.4125  0.1124
 2165W        W20369   2.031   8.505   0.226  0.0202 -0.0865  0.1388
 2166W        W20370   5.063  17.765   2.601 -0.1571 -0.0509  0.0998
 2167W        W20371   7.761   9.623   1.265  0.0792  0.2372 -0.2084
 2168W        W20372   6.886  12.126  10.878 -0.1280  0.2963  0.1138
 2169W        W20373  14.474   8.391   3.195  0.2920 -0.1558  0.1243
 2170W        W20374  16.349  18.578   2.968  0.0449  0.4900 -0.1624
 2171W        W20375  11.356   1.594   1.401 -0.0176  0.0911 -0.2694
 2172W        W20376  16.027   6.294   2.133  0.1316  0.1736 -0.3289
 2173W        W20377   7.298  14.525  15.134 -0.2686 -0.0812  0.1296
 2174W        W20378  17.374  16.061   1.260 -0.0850  0.1765  0.1142
 2175W        W20379  11.832   6.086   1.543  0.2413  0.1501 -0.2011
 2176W        W20380   2.448  12.035  15.246  0.0381  0.1008 -0.0941
 2177W        W20381   6.928   0.423  11.429 -0.0592 -0.0782 -0.1064
 2178W        W20382  12.090  18.447   1.479  0.0295 -0.1277 -0.0745
 2179W        W20383  14.290   8.206   0.131 -0.2195  0.0632 -0.0800
 2180W        W20384  16.351   4.466  12.382  0.0457 -0.1670 -0.1560
 2181W        W20385  10.594   4.744  15.062 -0.2191 -0.4702 -0.2750
 2182W        W20386  12.504   1.983  13.797 -0.0459 -0.1826 -0.0115
 2183W        W20387   5.796   6.331  11.528  0.0887 -0.0237  0.0086
 2184W        W20388   1.014  15.355   0.575 -0.0231 -0.4602  0.3200
 2185W        W20389  13.809   5.134   3.337  0.0558 -0.0438 -0.0494
 2186W        W20390  15.457   6.280   0.026  0.3392  0.3710 -0.0654
 2187W        W20391   3.922  17.634   1.360 -0.0703 -0.0372  0.2786
 2188W        W20392   3.176  18.496  13.859  0.0145 -0.0215 -0.0050
 2189W        W20393   0.554   5.220   2.712  0.0686  0.0170  0.0196
 2190W        W20394  17.569   0.166   0.588  0.1532  0.0768 -0.2638
 2191W        W20395   4.187   7.817  13.213 -0.0817  0.2643  0.2899
 2192W        W20396   6.070  12.639   1.636 -0.1212 -0.1635  0.0351
 2193W        W20397   2.897   0.255  12.894  0.0955  0.0024 -0.2339
 2194W        W20398   0.494  10.496  12.270  0.1884 -0.0648 -0.0199
 2195W        W20399  12.671   2.547  11.266  0.2174  0.1073 -0.1867
 2196W        W20400  12.426  12.586  13.383 -0.0134  0.0261  0.1655
 2197W        W20401   2.060   8.121   1.868 -0.1770 -0.0186  0.1331
 2198W        W20402  17.003   6.370   0.952 -0.0072  0.0274 -0.0169
 2199W        W20403   3.576   6.028  14.844 -0.2284 -0.0595 -0.2029
 2200W        W20404   9.337   3.062   1.625  0.0167 -0.1833 -0.2147
 2201W        W20405  18.259   6.363   3.251  0.0569  0.1331  0.1360
 2202W        W20406   9.976  12.515   0.456  0.1707 -0.0292 -0.0197
 2203W        W20407  10.506  17.940   0.338  0.4136 -0.0410 -0.0763
 2204W        W20408  11.218   1.964  12.543  0.0662 -0.2585  0.2693
 2205W        W20409   6.980   9.509  10.949 -0.0191 -0.0015 -0.1248
 2206W        W20410  18.341   4.922  14.311  0.2490 -0.0304  0.0899
 2207W        W20411  15.027   1.212  11.492 -0.1797 -0.1747 -0.1673
 2208W        W20412  16.024   6.981   4.393  0.0392 -0.1294  0.0442
 2209W        W20413   1.323  17.971   1.666 -0.1155 -0.0826  0.1633
 2210W        W20414  10.375   4.779  12.874 -0.1126 -0.4207  0.2965
 2211W        W20415  13.715   1.757   1.795 -0.0296 -0.4857 -0.0753
 2212W        W20416   5.853  12.945  15.201  0.1058  0.0736  0.1130
 2213W        W20417   2.040  16.961  13.775 -0.2010 -0.1543 -0.0526
 2214W        W20418   9.981   5.316  12.813 -0.1751  0.3089 -0.1148
 2215W        W20419   7.916   4.304   0.373  0.0548  0.0560  0.1013
 2216W        W20420  14.985   9.906  11.725 -0.2088 -0.1290  0.0672
 2217W        W20421  17.741  18.314   5.576  0.0140  0.1657 -0.1159
 2218W        W20422   3.805   6.729   1.037  0.3766  0.1318 -0.3230
 2219W        W20423   8.197   2.997   4.303 -0.0666  0.1258 -0.2165
 2220W        W20424   4.198   6.883   4.196  0.0155 -0.4190 -0.1586
 2221W        W20425  11.906  16.513  13.945  0.0073  0.3180  0.3017
 2222W        W20426   3.855  15.808   1.860  0.0070 -0.1294  0.1766
 2223W        W20427  10.657   2.930  14.925 -0.0099  0.1709  0.1227
 2224W        W20428  16.719  13.821  11.565 -0.4093  0.0766  0.3402
 2225W        W20429   4.605  14.981   1.924 -0.1147 -0.0467  0.1633
 2226W        W20430   9.563   9.058   0.594 -0.0218 -0.0139 -0.1945
 2227W        W20431  14.425   9.127  15.396  0.1059  0.0204 -0.1872
 2228W        W20432   2.990   4.484  14.370  0.1057 -0.1282  0.1298
 2229W        W20433   7.556  15.263   4.563 -0.1195 -0.0597  0.2516
 2230W        W20434  18.265  14.105   0.071  0.2029 -0.3030 -0.0213
 2231W        W20435  14.205   9.996   0.697 -0.1317 -0.1197  0.0562
 2232W        W20436   6.214  17.103   0.354 -0.3047  0.1033 -0.0585
 2233W        W20437  10.549  12.988  11.695  0.0188 -0.3138 -0.0550
 2234W        W20438  14.289   2.671  15.243 -0.0489 -0.0703  0.1716
 2235W        W20439   8.934  15.375  14.698  0.0483  0.3304  0.1204
 2236W        W20440   3.966   7.588   0.543  0.0967  0.1893 -0.0286
 2237W        W20441  11.473   0.676  12.217  0.0106  0.0046  0.0454
 2238W        W20442   4.589  10.183   0.377  0.3040 -0.1093 -0.0217
 2239W        W20443  15.047   7.450  13.551 -0.0925 -0.1311  0.1333
 2240W        W20444  18.144  17.129   4.102  0.0413 -0.1798 -0.3160
 2241W        W20445   1.328  11.748   3.767  0.0775 -0.2071 -0.1780
 2242W        W20446   6.630  14.476  15.312  0.0652 -0.1345  0.0544
 2243W        W20447  17.350  12.351   2.796  0.1777 -0.1594  0.0550
 2244W        W20448   1.142  14.470   3.605 -0.1201  0.1934  0.0997
 2245W        W20449  17.863   0.069  13.191 -0.1527 -0.0428  0.2742
 2246W        W20450   2.243  18.168   2.641  0.0916 -0.0261 -0.1935
 2247W        W20451   4.697  17.879  14.766 -0.2274  0.0993  0.0750
 2248W        W20452   0.976  18.255   2.005 -0.0594  0.0089 -0.1037
 2249W        W20453  13.666   9.155  11.125  0.0971  0.1704 -0.0414
 2250W        W20454  14.822   2.706   3.735  0.1247  0.1298 -0.1617
 2251W        W20455  14.649  11.215  15.436  0.2851 -0.2682 -0.0654
 2252W        W20456  14.774  11.709  10.666 -0.1304 -0.0673  0.1845
 2253W        W20457  15.883   0.092   3.975 -0.1404 -0.1116 -0.0140
 2254W        W20458  12.114   2.756   2.822 -0.1834 -0.1180 -0.2492
 2255W        W20459   6.113  12.131  13.493  0.0133 -0.1980 -0.3654
 2256W        W20460  17.286   2.274   2.835 -0.1672  0.2478 -0.0821
 2257W        W20461   1.012   0.294   3.822 -0.1160  0.2810 -0.2303
 2258W        W20462   7.730   0.296  14.951 -0.0892 -0.0743  0.1991
 2259W        W20463  16.000  16.564   2.328  0.1689 -0.0126  0.1919
 2260W        W20464   1.709   9.694  12.178 -0.0065 -0.0612  0.3447
 2261W        W20465  15.224  17.045  14.813 -0.2211 -0.3720 -0.0435
 2262W        W20466   1.158  15.784   0.798  0.0818 -0.0694 -0.0273
 2263W        W20467  17.494   7.930  12.260  0.1458  0.1704  0.1869
 2264W        W20468  14.346   6.938   3.701 -0.1479  0.1609 -0.1226
 2265W        W20469   9.073   1.393  11.825 -0.0467 -0.0120  0.3187
 2266W        W20470   1.969   1.164  14.788 -0.2256  0.4226  0.0956
 2267W        W20471  11.532   4.876  13.528  0.2494 -0.1375 -0.0140
 2268W        W20472   8.269   1.057  12.861  0.0551 -0.0520  0.1070
 2269W        W20473  14.077   0.112   3.889 -0.0668  0.1124  0.0044
 2270W        W20474  14.992   3.824   0.063  0.0673  0.0336 -0.0393
 2271W        W20475  16.868   0.451   1.177 -0.1434  0.1849 -0.2675
 2272W        W20476  12.806  14.196   3.657 -0.2086 -0.0346  0.0522
 2273W        W20477  13.688  11.530  10.614  0.1829  0.2744 -0.2056
 2274W        W20478   0.652  16.713  12.215  0.0306 -0.1294  0.0873
 2275W        W20479  12.685   9.053  12.739 -0.4519  0.0351  0.3493
 2276W        W20480   1.630   8.574  11.633 -0.1222  0.1240 -0.0049
 2277W        W20481   9.762  15.408  12.415  0.0763 -0.0839 -0.0129
 2278W        W20482   1.019   9.870  12.538 -0.1942 -0.1313  0.0696
 2279W        W20483   1.565  17.247  11.457 -0.0905 -0.0588 -0.0668
 2280W        W20484  11.450   8.798  11.812  0.2059  0.0194  0.2488
 2281W        W20485   3.536  15.314   3.461  0.0873 -0.2477 -0.0321
 2282W        W20486   1.628   0.545   0.932 -0.1290 -0.0651  0.2317
 2283W        W20487  10.506   5.047  11.772  0.3070 -0.0692 -0.0926
 2284W        W20488  16.136  13.985  14.596  0.0017  0.0340  0.1662
 2285W        W20489  16.032  18.553   2.171  0.0367  0.1516 -0.1614
 2286W        W20490  13.135   2.018   0.143 -0.0941 -0.0354  0.0862
 2287W        W20491   4.501   1.472  13.298 -0.0178 -0.0091  0.1310
 2288W        W20492  10.486  11.938  14.048  0.1958 -0.0777  0.1126
 2289W        W20493   3.628  13.559   4.285 -0.0660  0.2894 -0.0756
 2290W        W20494   8.934   9.571   3.612 -0.2027  0.4115 -0.2196
 2291W        W20495  16.770   7.073   2.690 -0.0757 -0.2335  0.0705
 2292W        W20496  16.933  18.381   1.918  0.3712  0.0661 -0.1582
 2293W        W20497  15.288   4.215   0.695 -0.2963  0.1465  0.0071
 2294W        W20498  17.110   3.413  12.485  0.5145  0.1130  0.0616
 2295W        W20499  13.190  10.934  13.021  0.2527 -0.2347 -0.2947
 2296W        W20500   5.626   6.554  12.687 -0.0533 -0.2337 -0.1798
 2297W        W20501   1.471   2.287  12.874  0.0011 -0.3137 -0.0206
 2298W        W20502  11.522   2.444  12.731  0.2706 -0.2501 -0.2100
 2299W        W20503  14.445  15.195  11.626 -0.0082 -0.2844  0.2521
 2300W        W20504  18.329  13.365  11.090 -0.0656  0.1337 -0.0054
 2301W        W20505  11.226  15.028   0.420  0.4141 -0.1327  0.2811
 2302W        W20506  11.429   7.583  12.055 -0.3394 -0.0403 -0.1030
 2303W        W20507   3.100  17.811   2.657  0.1655 -0.0151 -0.1154
 2304W        W20508  10.287  16.310   2.172 -0.3029  0.1840  0.1670
 2305W        W20509  15.384  13.988   0.056  0.0545  0.0094 -0.2208
 2306W        W20510   2.569   9.583  13.407  0.0235 -0.1757  0.0144
 2307W        W20511  12.239   4.876  12.345 -0.0657 -0.0755  0.0536
 2308W        W20512  11.938   9.117  12.910 -0.0464 -0.0155  0.1022
 2309W        W20513  16.905   5.611   3.059  0.1093  0.0354  0.2588
 2310W        W20514  17.608  10.643   2.559  0.1117  0.0465  0.2500
 2311W        W20515  12.007  12.574  12.043 -0.1012 -0.0336 -0.0400
 2312W        W20516   5.955  15.800   5.687  0.0005 -0.0438 -0.1749
 2313W        W20517   6.883  11.641  11.749 -0.0850  0.1225  0.0322
 2314W        W20518  12.812  11.922   2.772  0.2677 -0.3436 -0.0370
 2315W        W20519   0.436   8.985   3.685  0.2007  0.0115 -0.0779
 2316W        W20520  17.073   5.894   4.027  0.4206  0.0268  0.2783
 2317W        W20521  18.372  15.016  11.868  0.1716  0.0792  0.2556
 2318W        W20522   7.214   4.494   0.499  0.0195  0.2451 -0.1715
 2319W        W20523   3.530  12.050  10.935  0.0729  0.2904  0.1866
 2320W        W20524   7.591   4.443   0.797 -0.1545 -0.1977 -0.0725
 2321W        W20525   8.224  13.863   4.854 -0.0474 -0.4128 -0.0009
 2322W        W20526  12.316   0.166   4.553  0.1698  0.0031 -0.1485
 2323W        W20527  13.974   9.945   0.284 -0.2427  0.1125 -0.3043
 2324W        W20528   4.992   5.787  10.868 -0.0165 -0.0291  0.0029
 2325W        W20529   8.703   8.634  13.124 -0.0645  0.2116  0.1246
 2326W        W20530  12.917  10.078   1.387 -0.1358  0.0242  0.1242
 2327W        W20531   6.289   8.145   4.277  0.0007 -0.4157  0.0969
 2328W        W20532   0.915  18.369   1.055 -0.1612 -0.0621  0.0218
 2329W        W20533   6.796  15.459   1.665 -0.0410 -0.0716  0.0772
 2330W        W20534   8.486   4.723  13.785 -0.0598  0.0327  0.0059
 2331W        W20535   8.307   5.543  13.002 -0.0717  0.0550  0.1115
 2332W        W20536  16.315  13.693  12.379  0.1126 -0.1269 -0.5605
 2333W        W20537  13.336  13.033  14.669  0.0103 -0.2741  0.1426
 2334W        W20538  12.876   4.980  13.019  0.3558  0.3567 -0.1311
 2335W        W20539   0.241   6.102  14.846 -0.0578 -0.3161 -0.0636
 2336W        W20540   3.183   5.887   9.527 -0.0281 -0.1298  0.1518
 2337W        W20541   5.966   9.832  14.979 -0.1749 -0.0016 -0.1716
 2338W        W20542   5.526   8.333  10.083  0.2975  0.0715  0.1637
 2339W        W20543   2.195   9.983   2.237 -0.1046 -0.1448  0.1359
 2340W        W20544   7.790   8.910  13.882  0.3959 -0.0091  0.1593
 2341W        W20545   5.070  11.880   0.412 -0.3129  0.0756  0.1746
 2342W        W20546   8.856   7.725  13.169 -0.0924  0.1336  0.1477
 2343W        W20547  14.513  13.995   0.938 -0.3598 -0.0823 -0.0602
 2344W        W20548  13.239  12.135  14.440 -0.0712  0.1754 -0.1747
 2345W        W20549   8.912   4.684  11.409 -0.0274 -0.2544  0.3891
 2346W        W20550   9.289   7.974  13.088  0.2174  0.0713 -0.1091
 2347W        W20551   8.930   9.850   4.075 -0.1766  0.2705  0.1900
 2348W        W20552  16.274  18.136  12.874  0.2513 -0.1818 -0.2184
 2349W        W20553  17.560   5.502  13.693 -0.3030  0.1649  0.1362
 2350W        W20554  14.918  17.772  12.963  0.1181  0.2828 -0.0893
 2351W        W20555  12.083   6.237  13.269  0.0659 -0.1243  0.2555
 2352W        W20556   7.046  13.666  15.095 -0.1081 -0.1272  0.1299
 2353W        W20557   5.098   5.529  14.992 -0.1646 -0.1978  0.0168
 2354W        W20558   8.662  14.543  14.699  0.1044  0.1657 -0.1735
 2355W        W20559   0.720   1.495   0.942  0.1320  0.0221  0.4530
 2356W        W20560   9.687   8.528  14.974  0.1515 -0.0903  0.0892
 2357W        W20561   0.639  17.750  13.154  0.0387 -0.0733  0.1230
 2358W        W20562  15.603  13.717  13.690  0.1023  0.1578  0.1815
 2359W        W20563   1.182   4.189  13.577  0.1352  0.1373 -0.4308
 2360W        W20564  16.357  16.293   1.214 -0.0281 -0.0871  0.0511
 2361W        W20565  10.296  14.724  11.333  0.2381 -0.1883 -0.1508
 2362W        W20566  10.336   7.104   3.266  0.2628  0.2987  0.0745
 2363W        W20567  14.968   0.011   1.366 -0.1553 -0.1444  0.1375
 2364W        W20568  13.573  14.044   1.264  0.1088 -0.0122 -0.0369
 2365W        W20569   0.166  13.202  14.079 -0.0450  0.1501  0.0030
 2366W        W20570  13.245  17.572   1.200  0.0776  0.0355 -0.1128
 2367W        W20571  11.788   4.653   9.904 -0.1854  0.1738  0.2969
 2368W        W20572   4.187  14.876   1.447  0.2427  0.0772 -0.1924
 2369W        W20573  16.040   7.987  14.716  0.2128  0.1125 -0.1091
 2370W        W20574  16.906   6.667   2.429  0.1079 -0.3061 -0.0130
 2371W        W20575  17.541  16.651   3.222 -0.3781 -0.0978 -0.0115
 2372W        W20576  18.607  11.582  14.582 -0.1362  0.1166  0.0659
 2373W        W20577  18.553   0.965  12.512 -0.0794  0.0493 -0.0947
 2374W        W20578  15.951   2.944   4.266  0.3020 -0.2846 -0.2873
 2375W        W20579   4.034  12.831  14.269  0.0667  0.1452 -0.2496
 2376W        W20580  10.294  16.012   3.524 -0.0551 -0.2193  0.0307
 2377W        W20581   4.831  14.484  13.993 -0.0101 -0.2170 -0.1700
 2378W        W20582  16.325  14.479  12.888  0.0293 -0.1535 -0.0612
 2379W        W20583   3.307  14.596  13.195  0.0266  0.1315 -0.1486
 2380W        W20584  14.011   6.379  11.793  0.1343 -0.2222  0.0517
 2381W        W20585   7.653  11.881  10.941 -0.1220  0.0341  0.0825
 2382W        W20586  15.785   4.702  15.232 -0.3456 -0.0499 -0.0234
 2383W        W20587   1.211   9.078  13.121 -0.3010  0.0237 -0.1670
 2384W        W20588  12.352  18.355  11.492 -0.0384 -0.0744  0.0643
 2385W        W20589   1.422   9.843   1.612 -0.4215 -0.2121 -0.2902
 2386W        W20590  18.436   2.735  13.356  0.6167  0.0842  0.2623
 2387W        W20591  17.989   5.752  11.532 -0.2926 -0.0235 -0.0938
 2388W        W20592  12.314  15.155   1.516  0.1596 -0.1793  0.0800
 2389W        W20593  17.493  13.962  15.298  0.0087 -0.0352  0.0132
 2390W        W20594   4.867  16.775   1.283 -0.1819  0.3219  0.0430
 2391W        W20595  14.301  15.856  15.440  0.1478 -0.1714  0.0695
 2392W        W20596   8.736   8.155  13.818  0.0810  0.1283 -0.2069
 2393W        W20597   0.712   3.505  14.828  0.3990 -0.1451 -0.2676
 2394W        W20598  10.065  13.525  15.239  0.1088 -0.0788  0.0820
 2395W        W20599  17.459  13.274  12.586 -0.0801 -0.0716 -0.2092
 2396W        W20600  16.953  12.498  14.205  0.2237 -0.2176  0.1480
 2397W        W20601   0.446  13.466   2.330 -0.2699 -0.1348 -0.0886
 2398W        W20602  14.850   8.936  11.884 -0.1520  0.0473  0.0298
 2399W        W20603  14.120  10.284  11.368  0.3333 -0.0948  0.1232
 2400W        W20604   3.303  18.357  13.223 -0.0297 -0.5951 -0.0387
 2401W        W20605   7.176  17.166   3.422 -0.1659  0.1362  0.0170
 2402W        W20606   4.741  11.781  12.963 -0.0686  0.0862  0.2162
 2403W        W20607   6.100   4.074   3.355 -0.1889  0.2480 -0.2170
 2404W        W20608   5.949   6.795  10.679  0.0194 -0.1594 -0.0308
 2405W        W20609  15.245   5.186   0.835  0.0113  0.1159 -0.0072
 2406W        W20610  12.732   2.854   4.438 -0.2046  0.2883 -0.1713
 2407W        W20611  16.452  10.335   3.784  0.1345 -0.0916 -0.0006
 2408W        W20612   0.989  11.040  14.571  0.0558 -0.0451 -0.3662
 2409W        W20613   9.672  14.873  12.568  0.1135  0.2532  0.1114
 2410W        W20614  14.468  17.220  11.848 -0.3047  0.2799 -0.1099
 2411W        W20615  13.708   1.331   1.537 -0.1667  0.1750 -0.2693
 2412W        W20616  13.592  12.111  15.296  0.4425  0.0686  0.0091
 2413W        W20617   0.843  18.080   3.488 -0.3255  0.0902 -0.0751
 2414W        W20618   2.039   0.456  11.680 -0.0475  0.1016 -0.0876
 2415W        W20619   7.586   4.617   3.782 -0.0059  0.0260  0.0150
 2416W        W20620   7.460   3.582  15.440 -0.2524  0.1349 -0.1852
 2417W        W20621  14.040  14.278   0.078 -0.1202  0.1528  0.3790
 2418W        W20622   7.587  16.568   3.434 -0.1185 -0.2377  0.0790
 2419W        W20623   6.105   1.184   2.244  0.1958 -0.1999 -0.2116
 2420W        W20624   8.561   8.656   3.580 -0.0107 -0.0665  0.0784
 2421W        W20625  11.861   1.440   2.292  0.4578  0.1455  0.0894
 2422W        W20626  11.714   3.081  11.872 -0.2325 -0.1379  0.1806
 2423W        W20627  13.434  14.579  12.063  0.3487  0.1904  0.2607
 2424W        W20628  13.963  11.496   3.062 -0.1470 -0.2145 -0.1717
 2425W        W20629  15.106  10.111  14.938  0.0922  0.1183  0.0785
 2426W        W20630  15.588   2.076  14.813 -0.2102 -0.2043 -0.2040
 2427W        W20631  17.621   9.139   4.368 -0.1927 -0.2507 -0.0914
 2428W        W20632  18.419  15.266   0.846  0.0226  0.3181 -0.2512
 2429W        W20633   1.661  13.414   0.322  0.4477  0.1028 -0.1819
 2430W        W20634   1.134  10.963   0.980 -0.0638  0.4041  0.0178
 2431W        W20635   6.315  17.402   4.530  0.2219 -0.0515  0.0016
 2432W        W20636   0.939  16.580   2.777 -0.0444 -0.0099 -0.2010
 2433W        W20637  13.946  11.686  12.989  0.1333 -0.1219  0.1664
 2434W        W20638  11.018   6.669  13.359  0.0532  0.0926 -0.3826
 2435W        W20639  15.152   4.651  13.299 -0.2418  0.0402 -0.0998
 2436W        W20640   3.675   4.197  12.021 -0.2845  0.1603  0.3641
 2437W        W20641   3.422  10.737   1.702  0.1499 -0.0161  0.1830
 2438W        W20642   7.307   7.038   3.000 -0.2559 -0.3640 -0.1758
 2439W        W20643  16.732   1.480   1.333  0.1736 -0.0883 -0.1257
 2440W        W20644  16.423   3.622  13.649 -0.1336  0.1044 -0.2386
 2441W        W20645   7.770   6.244  13.121  0.1547  0.0172  0.0281
 2442W        W20646   1.979   5.648   1.128  0.1852 -0.0271 -0.0769
 2443W        W20647   0.868   4.826   2.569 -0.4277 -0.1672 -0.1512
 2444W        W20648  11.268   2.641   2.624 -0.2665 -0.1321  0.1234
 2445W        W20649  17.367  14.221   2.532  0.0449  0.1558 -0.0498
 2446W        W20650   6.346   4.179   1.594  0.0681  0.2050 -0.0681
 2447W        W20651   4.668   4.272  13.328  0.2803 -0.0544  0.0548
 2448W        W20652  15.495   6.560   0.407  0.0973  0.0123 -0.4088
 2449W        W20653  17.038  13.589   2.930  0.3170 -0.0119  0.1996
 2450W        W20654   4.924  13.218   3.837  0.1834  0.1281  0.3382
 2451W        W20655  12.808  16.253   2.797 -0.3864 -0.0628  0.0315
 2452W        W20656  16.173  14.789   3.263 -0.0950 -0.2634  0.2827
 2453W        W20657   5.292   3.317   1.341  0.0007 -0.0090 -0.1172
 2454W        W20658  15.658  13.150   3.841  0.2318  0.0871 -0.1382
 2455W        W20659  15.645   4.705  12.792  0.0411  0.2391 -0.4866
 2456W        W20660  12.773   8.273   1.121 -0.4089  0.1579 -0.0239
 2457W        W20661   7.251  16.773  14.690  0.2767 -0.1884 -0.1195
 2458W        W20662   7.566  15.094   0.575  0.0223  0.2507  0.1734
 2459W        W20663  18.020   9.031  13.797 -0.3847 -0.1401  0.1319
 2460W        W20664  13.165  11.412   1.143  0.2610  0.1280  0.1432
 2461W        W20665  12.455   4.979   3.381 -0.2902 -0.1654  0.1378
 2462W        W20666  13.109  15.451  12.841 -0.1689 -0.3095 -0.2597
 2463W        W20667   6.076   6.908  12.888  0.1517 -0.1547  0.1614
 2464W        W20668  11.983   0.360   2.668  0.1985 -0.0937 -0.1174
 2465W        W20669   4.435   8.592   3.135 -0.0113 -0.0272 -0.2541
 2466W        W20670   1.917   5.711   5.259  0.2611  0.0603  0.3077
 2467W        W20671   6.208   2.979  14.292 -0.0175 -0.0083 -0.2693
 2468W        W20672  11.366   3.976   3.615  0.0175 -0.2473 -0.1087
 2469W        W20673  17.434   3.780  15.345  0.0489  0.2435  0.2510
 2470W        W20674   8.517   4.928   3.803  0.0585  0.1415 -0.1180
 2471W        W20675   9.731  12.702   1.993  0.4995 -0.2014  0.0147
 2472W        W20676   8.581  18.213  13.188 -0.2765  0.1029 -0.0622
 2473W        W20677   2.587   4.678  13.650 -0.1456  0.0156  0.3231
 2474W        W20678   4.671  10.318  14.995 -0.0313 -0.0457 -0.1347
 2475W        W20679   7.062  10.986   0.106  0.1015 -0.0429  0.1183
 2476W        W20680   8.287   8.852  13.989  0.0728  0.3662  0.0182
 2477W        W20681  16.148   6.515   1.644 -0.1099  0.5124 -0.1893
 2478W        W20682   4.353  11.604  13.143  0.3864 -0.0318 -0.2428
 2479W        W20683  12.037   9.091   0.133 -0.1057 -0.0797 -0.0891
 2480W        W20684   6.882   8.706  13.362 -0.1163 -0.2380 -0.1341
 2481W        W20685  12.973   3.748   0.920  0.0528  0.3614  0.0705
 2482W        W20686  14.737  10.927   2.105  0.1573  0.3685 -0.0032
 2483W        W20687  14.844  12.104   1.879 -0.0727 -0.0137  0.0825
 2484W        W20688  14.176   8.071   2.906  0.3629 -0.2270 -0.1054
 2485W        W20689   3.093   6.816   3.096 -0.1122 -0.0626 -0.0142
 2486W        W20690  10.172   7.385   2.826 -0.2181  0.1751  0.2113
 2487W        W20691   4.020  14.333   2.233  0.2047  0.3985 -0.1502
 2488W        W20692   1.438   2.574   3.316 -0.0528  0.3203 -0.1486
 2489W        W20693   3.019   3.121  14.953  0.2001 -0.1175  0.1071
 2490W        W20694  11.853   7.738   4.905 -0.0655  0.1916 -0.3390
 2491W        W20695   6.410  11.783   0.690  0.1098 -0.2793 -0.2602
 2492W        W20696   4.882   6.569   5.299  0.3618  0.0340  0.2846
 2493W        W20697   1.147   9.360   4.100  0.5472  0.0775  0.0716
 2494W        W20698   2.277  16.512  13.929 -0.1441  0.0514  0.1727
 2495W        W20699   0.247   4.249  14.243  0.1537  0.1621  0.0783
 2496W        W20700   1.858   7.696   2.109  0.2349 -0.0746  0.0731
 2497W        W20701  14.915   4.693  14.841  0.1219  0.0780  0.0766
 2498W        W20702   2.797   9.397   0.959  0.2268 -0.1028  0.2241
 2499W        W20703   6.105   0.436   3.026  0.2414 -0.0772 -0.1060
 2500W        W20704  16.673   9.357   0.180 -0.1013  0.3153  0.5068
 2501W        W20705  13.739  17.657  13.733 -0.3345  0.2068  0.1164
 2502W        W20706   8.037  15.717   3.656  0.1226 -0.3542 -0.0349
 2503W        W20707  15.419  10.703   2.929 -0.0132 -0.0967 -0.1243
 2504W        W20708  16.274   8.334  13.732  0.0556 -0.1412 -0.1813
 2505W        W20709   6.163  15.747   3.305  0.3128 -0.2074 -0.0989
 2506W        W20710  17.071  14.769   3.338  0.0361 -0.0684 -0.0603
 2507W        W20711   4.561   5.657  15.051  0.3707 -0.1499 -0.0634
 2508W        W20712   4.386  17.211   3.439 -0.1658  0.1850 -0.1718
 2509W        W20713  10.424   0.850  15.237 -0.1045 -0.1940 -0.1172
 2510W        W20714  13.393   7.350  10.973 -0.3031 -0.0729 -0.1565
 2511W        W20715  17.022   8.543  11.521  0.1718 -0.1504 -0.1044
 2512W        W20716  13.160   8.753  12.877  0.0427 -0.2333  0.0991
 2513W        W20717  14.958   4.159   1.114 -0.0528 -0.1964  0.2487
 2514W        W20718   8.073  16.928   1.125  0.1484  0.0623  0.1990
 2515W        W20719  16.262   5.782  11.824  0.0311  0.2152 -0.0204
 2516W        W20720  14.494   6.384  10.864 -0.1460 -0.3571 -0.1209
 2517W        W20721  16.365   2.028   0.037  0.4556  0.1067 -0.1045
 2518W        W20722  14.065   7.856  14.977 -0.0823 -0.1410 -0.1762
 2519W        W20723  10.250   1.829   4.568  0.3145  0.0634  0.1251
 2520W        W20724  16.867   3.077  11.959  0.2267  0.0928  0.2280
 2521W        W20725  13.388   2.922  15.232  0.2115  0.2358  0.1947
 2522W        W20726   9.536   8.326  10.247  0.4157 -0.1454 -0.1392
 2523W        W20727  18.293   1.704  15.102  0.1155 -0.0910 -0.2763
 2524W        W20728  12.324   5.762  13.419  0.2444  0.0364 -0.0925
 2525W        W20729   1.711   2.483  13.941 -0.1999  0.0558  0.3139
 2526W        W20730   1.744  17.390   2.711  0.2983 -0.1942  0.2038
 2527W        W20731   6.966  14.218   3.627 -0.0755  0.4344  0.1251
 2528W        W20732   9.357   4.670  13.517 -0.2243 -0.1288  0.1705
 2529W        W20733   9.566  16.434  14.489  0.0177 -0.0285 -0.2055
 2530W        W20734   8.368   7.424   4.053  0.2160 -0.0706  0.1390
 2531W        W20735   4.898  13.065  11.856 -0.0183 -0.0287 -0.1530
 2532W        W20736   7.788   6.894   2.077  0.1245  0.0943  0.0411
 2533W        W20737  14.844   3.294  10.469  0.1189 -0.2360 -0.2748
 2534W        W20738   2.848   7.442   5.243 -0.1730  0.1318 -0.1030
 2535W        W20739   3.654   3.334  11.232 -0.0493  0.1597  0.2673
 2536W        W20740  13.415   5.442  13.970 -0.2101  0.0573  0.1989
 2537W        W20741  17.672   4.852   3.428 -0.1287  0.2729  0.0990
 2538W        W20742   6.087   2.669  12.039  0.2427  0.0725 -0.1426
 2539W        W20743   1.215  14.750   5.947  0.0615 -0.2352  0.2708
 2540W        W20744   0.476   8.949  11.927 -0.1916  0.0878 -0.3783
 2541W        W20745  10.093   5.040   1.588 -0.1443  0.0972  0.1649
 2542W        W20746   8.970  17.879   5.193 -0.1654  0.2322 -0.1590
 2543W        W20747  11.891   2.758   5.481  0.0882  0.0876 -0.3956
 2544W        W20748   8.927   9.679  13.298  0.0437  0.0029  0.0943
 2545W        W20749   0.646  13.009  15.092 -0.1255 -0.2808 -0.3414
 2546W        W20750   9.985  13.948  11.047  0.1072  0.1195  0.0480
 2547W        W20751   2.708   6.978  14.227 -0.3586 -0.2215  0.0359
 2548W        W20752   8.930  15.837   3.821  0.1122  0.2461  0.1974
 2549W        W20753   4.849  12.632   3.445  0.0738  0.2755  0.4438
 2550W        W20754  16.673   1.817   3.602  0.0236 -0.0105 -0.2121
 2551W        W20755  17.271   9.761   4.999  0.1215 -0.3718  0.1016
 2552W        W20756  11.593   5.066  14.662  0.1692 -0.1978 -0.0492
 2553W        W20757   0.845  11.500   2.972  0.2526  0.2519 -0.0622
 2554W        W20758   3.727   4.655  11.699 -0.0403 -0.2590 -0.0840
 2555W        W20759   2.106   0.176  14.502  0.3801  0.1516  0.1974
 2556W        W20760   0.615   6.089  10.728  0.2298 -0.1994  0.1543
 2557W        W20761   4.559  11.621   4.524 -0.0770  0.0871  0.0657
 2558W        W20762   9.134   4.518   1.204  0.0214 -0.1251  0.0955
 2559W        W20763   4.145  13.071  12.412  0.0145 -0.1265 -0.0995
 2560W        W20764   8.954  16.083   5.572  0.0322 -0.1261 -0.0920
 2561W        W20765  16.901   2.158  14.383 -0.2701  0.3207  0.0232
 2562W        W20766   4.936  15.394  11.027 -0.0528 -0.1237 -0.1677
 2563W        W20767   4.328   4.404  15.376 -0.0381  0.1181 -0.2460
 2564W        W20768   7.547   3.556  11.145 -0.1740  0.1628 -0.1984
 2565W        W20769   2.391  17.044  14.852 -0.1469  0.1847 -0.3595
 2566W        W20770   9.812  17.212  12.999 -0.1772 -0.1604  0.1636
 2567W        W20771  13.572  15.427   0.046  0.2519  0.0518  0.1489
 2568W        W20772  17.420   7.167  14.718 -0.3861 -0.0159 -0.1191
 2569W        W20773   1.185  14.084  10.076  0.0450 -0.1559 -0.0086
 2570W        W20774  15.360  10.652  11.871 -0.1870 -0.2674 -0.2533
 2571W        W20775  12.054  15.326  13.865 -0.1626 -0.2746 -0.1650
 2572W        W20776   7.594  12.800  15.056 -0.5037 -0.1277  0.1749
 2573W        W20777   8.836   1.253   2.250 -0.0204  0.2861 -0.0814
 2574W        W20778  13.991   2.354  14.096 -0.0715 -0.0390 -0.1891
 2575W        W20779   9.080   0.711  12.958  0.0354  0.0620 -0.2269
 2576W        W20780   2.768  13.363  12.515  0.0952 -0.0963  0.0914
 2577W        W20781   2.510   3.870   2.671 -0.3631 -0.1501 -0.1745
 2578W        W20782   1.336   3.020   3.595  0.1390  0.3104 -0.0024
 2579W        W20783   6.814  11.519   0.677  0.1686  0.1942 -0.2373
 2580W        W20784  13.751  14.084   4.243 -0.4080 -0.0787 -0.1530
 2581W        W20785  14.386   7.276   4.225 -0.1595  0.0093 -0.0183
 2582W        W20786   2.970  14.322   3.368 -0.0705 -0.2096  0.0535
 2583W        W20787   9.184   1.267  12.682 -0.0986  0.1247  0.1770
 2584W        W20788   9.049   6.727  10.648 -0.4155 -0.2314 -0.0246
 2585W        W20789   6.405   2.509  11.202 -0.0697 -0.0175  0.0563
 2586W        W20790  17.218   3.267   3.068  0.1490  0.0683 -0.1736
 2587W        W20791   0.256  13.879  12.252  0.3566 -0.1748  0.0841
 2588W        W20792   3.957  17.777   4.912  0.1795 -0.1170 -0.0721
 2589W        W20793   5.374  10.466  11.725  0.1899 -0.1225  0.3290
 2590W        W20794  16.349  12.207  12.323 -0.1164 -0.0290 -0.0531
 2591W        W20795  10.693   5.566   1.719  0.2324  0.0017 -0.2647
 2592W        W20796   9.556   3.620  14.019 -0.0612 -0.2015  0.1067
 2593W        W20797  10.580  13.381  11.265  0.4598 -0.0159  0.0337
 2594W        W20798   8.853   8.672   1.792  0.0497 -0.1239  0.1641
 2595W        W20799   7.676   7.921   1.050 -0.1202  0.1873 -0.0824
 2596W        W20800   4.220   2.844  11.196 -0.0189  0.2410 -0.0108
 2597W        W20801   2.178  11.290   2.459  0.2741 -0.1992  0.0500
 2598W        W20802   0.320  12.699  11.527  0.0519 -0.0594  0.1999
 2599W        W20803  15.966   9.615  13.782  0.1726  0.3527 -0.1520
 2600W        W20804   8.569   7.858   0.828  0.0138  0.0952 -0.0641
 2601W        W20805  11.977  18.125   1.860 -0.3537  0.1645 -0.1650
 2602W        W20806  10.610  13.217   0.206 -0.1594  0.1225 -0.0449
 2603W        W20807  17.687   0.605   1.854 -0.0697 -0.0031  0.2253
 2604W        W20808   7.655  10.771   9.852 -0.2097  0.0082 -0.0024
 2605W        W20809  12.712   5.245   1.352 -0.0073  0.0095  0.0636
 2606W        W20810  16.927  10.623   5.668  0.0345 -0.1080  0.1274
 2607W        W20811  16.973   5.515  12.785 -0.1312 -0.1154 -0.2815
 2608W        W20812   3.546   3.820  13.776 -0.2484  0.3629 -0.0351
 2609W        W20813  13.370  10.100   2.179  0.2213  0.2762 -0.1416
 2610W        W20814   4.705   4.104   2.491 -0.1056 -0.0343  0.3616
 2611W        W20815  12.890   9.151   3.970 -0.1955  0.4047 -0.2470
 2612W        W20816   4.857   9.882  12.412 -0.0213 -0.1212 -0.0967
 2613W        W20817   5.153  11.782  14.528  0.1722 -0.2985  0.0548
 2614W        W20818  15.409   6.079  12.818  0.0398  0.0161 -0.2624
 2615W        W20819   1.343  16.811  11.845 -0.0710 -0.0257 -0.5152
 2616W        W20820  11.788  15.438  14.267  0.2454 -0.0355 -0.1262
 2617W        W20821  10.167  15.828   3.030 -0.0981 -0.1726  0.1343
 2618W        W20822   5.905  10.633  11.657 -0.1685  0.0739 -0.0075
 2619W        W20823   0.502   2.724   3.127  0.0316 -0.5084 -0.2209
 2620W        W20824  15.983   6.853  13.762 -0.1941 -0.1835  0.3493
 2621W        W20825   7.246   7.663   0.455 -0.3192 -0.0159  0.3162
 2622W        W20826  10.730  16.278  14.554 -0.3385  0.1062  0.0725
 2623W        W20827  10.383   7.539   1.314 -0.0524  0.1126 -0.1163
 2624W        W20828   4.221  13.323   2.732  0.0124  0.1717  0.1143
 2625W        W20829   4.110   0.226   2.587 -0.1002 -0.2150 -0.0843
 2626W        W20830  11.197   5.472   1.920 -0.1519  0.1319  0.0680
 2627W        W20831   4.877  16.328   1.725 -0.1550  0.1352  0.0010
 2628W        W20832   5.707  15.201   3.871 -0.1457 -0.0359  0.6255
 2629W        W20833   4.305  16.818   1.089  0.1248 -0.1324  0.1753
 2630W        W20834   0.249  10.703  11.119  0.0978 -0.4077  0.1174
 2631W        W20835   6.321   7.163   4.248 -0.0085 -0.0514 -0.5119
 2632W        W20836  13.584   1.472   3.673  0.1685 -0.0017  0.0507
 2633W        W20837   1.053  18.238   4.408 -0.0339 -0.2012 -0.0776
 2634W        W20838   3.390  11.896   0.226 -0.0709  0.1215 -0.1652
 2635W        W20839   7.938   3.788   1.261 -0.5755 -0.0818 -0.2931
 2636W        W20840   7.824  16.475  14.814 -0.1292  0.1042  0.1845
 2637W        W20841  11.950   8.057  11.314 -0.1170 -0.0070 -0.0218
 2638W        W20842   0.484  18.282   2.231 -0.0370 -0.0160 -0.2279
 2639W        W20843   0.005  18.314   1.382  0.3165 -0.0815 -0.1287
 2640W        W20844   5.641  10.502  14.444 -0.1090  0.2692  0.1346
 2641W        W20845  18.549   8.198   2.734  0.0666 -0.3864  0.1350
 2642W        W20846   0.983  14.045   4.423  0.0690  0.1122 -0.0103
 2643W        W20847  11.496   7.321  14.061  0.1550  0.1854  0.2549
 2644W        W20848  14.730   9.127   3.660 -0.2355  0.1885  0.1025
 2645W        W20849   3.016  17.200  11.268 -0.0000  0.1664 -0.0616
 2646W        W20850   8.610  14.171  11.155 -0.1084 -0.1887 -0.1620
 2647W        W20851  11.893   0.845  12.554  0.1275  0.1576  0.3070
 2648W        W20852   7.746  18.299   0.035  0.1927  0.1503  0.1007
 2649W        W20853  10.883   8.792   0.848  0.1688 -0.1663  0.3619
 2650W        W20854   5.355  18.505   4.928  0.0539 -0.3054 -0.1295
 2651W        W20855   1.645   2.017  14.688  0.0023 -0.0423 -0.1425
 2652W        W20856   7.252   7.921   3.273  0.1754  0.1363 -0.1169
 2653W        W20857   6.812  14.193  11.481 -0.0831 -0.0182 -0.0293
 2654W        W20858   4.908   8.411   0.033 -0.1583 -0.1968 -0.0282
 2655W        W20859   3.285   8.017   1.449  0.3247 -0.0030 -0.0504
 2656W        W20860  15.394   8.731   3.942 -0.3475  0.1825  0.0015
 2657W        W20861   5.437   9.595  13.912  0.2812 -0.1448 -0.0670
 2658W        W20862  10.923  15.854  14.628 -0.2332 -0.1472 -0.1251
 2659W        W20863  14.093   2.884  11.319  0.0957  0.1896 -0.1862
 2660W        W20864   4.323   4.954  14.597  0.1535 -0.2326 -0.1144
 2661W        W20865  11.871   4.822  15.294 -0.0713  0.1476 -0.0120
 2662W        W20866  14.390  14.123  11.466  0.0591 -0.2206 -0.2184
 2663W        W20867   5.456  13.037   3.210  0.0801 -0.1251 -0.2130
 2664W        W20868  11.911   7.775   0.888 -0.2074 -0.1974 -0.4441
 2665W        W20869   9.828   6.306  12.998 -0.1417 -0.2763  0.1580
 2666W        W20870  16.701  13.258  14.135 -0.0505  0.0760  0.2752
 2667W        W20871  12.633  14.234  14.459  0.1878  0.0967  0.0293
 2668W        W20872   9.729   2.829  11.983 -0.4718  0.0877 -0.0362
 2669W        W20873  13.306  15.041  12.568  0.0428  0.2989  0.1946
 2670W        W20874  12.443   1.503  14.532 -0.1372  0.0833 -0.3938
 2671W        W20875  18.494   7.853  12.646 -0.1345 -0.3467  0.1108
 2672W        W20876  17.031   9.804   0.913  0.0742 -0.0337  0.1902
 2673W        W20877   2.645   2.102   4.055  0.0766 -0.0671  0.2439
 2674W        W20878   3.257   1.575  12.935  0.2161  0.0597 -0.0387
 2675W        W20879   2.871   0.783   2.298 -0.0066  0.1961  0.1592
 2676W        W20880  14.465   8.615  15.239 -0.1822  0.2205  0.0606
 2677W        W20881  11.046  16.159  14.100 -0.3036 -0.1087  0.2341
 2678W        W20882  12.180   1.425  11.432  0.1196  0.2159 -0.0853
 2679W        W20883   2.484   0.478   1.731 -0.2159 -0.5287  0.0849
 2680W        W20884  11.850  15.771  11.224  0.2114 -0.1341 -0.0457
 2681W        W20885  15.601  10.172  11.907  0.0862  0.2955  0.0963
 2682W        W20886   6.377  11.037  11.445  0.1651  0.2092  0.0252
 2683W        W20887   4.549   2.138  13.904  0.2008  0.2845  0.1665
 2684W        W20888  12.271   9.986   0.187  0.1052  0.1263 -0.0291
 2685W        W20889  18.332  13.217   0.671 -0.0163  0.0243  0.0047
 2686W        W20890  17.944   3.275  15.059 -0.0394  0.0788 -0.1367
 2687W        W20891  12.728  18.203  12.878 -0.0650 -0.1855  0.1206
 2688W        W20892   8.402  12.121  12.330  0.2815 -0.3265 -0.0539
 2689W        W20893  16.788  14.246   4.182  0.0685 -0.1159  0.0343
 2690W        W20894  10.099   7.289  12.944 -0.1903 -0.3858 -0.0034
 2691W        W20895   8.528   8.593   2.228  0.0125 -0.1447  0.1192
 2692W        W20896  11.518   0.205  11.344  0.1079 -0.3333  0.5340
 2693W        W20897  16.655   4.280   3.432  0.3433  0.1996 -0.1461
 2694W        W20898   4.873   6.518  11.353  0.0917  0.1393 -0.1078
 2695W        W20899   5.989   2.000   2.780  0.0066 -0.1646  0.0163
 2696W        W20900  13.455   6.105   1.103 -0.1668 -0.1459 -0.0632
 2697W        W20901  16.758   5.519  11.470  0.0537  0.3360 -0.1440
 2698W        W20902   2.687   5.189   0.320  0.1352  0.1355  0.0335
 2699W        W20903  17.606  17.954  11.910 -0.2883  0.0643 -0.1941
 2700W        W20904   6.544  13.443  14.552  0.1050  0.1175  0.3665
 2701W        W20905   7.702  11.149  11.606  0.2707 -0.5091  0.1525
 2702W        W20906  11.892   4.232   0.083  0.3147 -0.0255 -0.0806
 2703W        W20907   8.175   0.816  11.782  0.5772  0.0929  0.1125
 2704W        W20908  17.039  13.298   0.409 -0.1791  0.1381 -0.1100
 2705W        W20909   3.716  15.963   2.959  0.0641  0.1552  0.1912
 2706W        W20910  17.416  10.928   1.550  0.1139 -0.4835  0.1544
 2707W        W20911   2.004   2.999   2.826  0.1153  0.0445 -0.2028
 2708W        W20912   3.264  17.852   4.095 -0.1003 -0.0416 -0.0245
 2709W        W20913   4.938  10.911  14.892  0.1435  0.1190 -0.1241
 2710W        W20914  10.240  13.354  11.712  0.2047 -0.0149  0.3990
 2711W        W20915  16.811   8.870   0.924  0.1800  0.0324 -0.1259
 2712W        W20916  17.103   0.077  12.141 -0.1617 -0.0674  0.1968
 2713W        W20917   6.114  17.090  12.379  0.0547 -0.2983 -0.0329
 2714W        W20918   3.113   1.485  11.101 -0.3299  0.0256  0.1831
 2715W        W20919   9.651   0.200   1.890 -0.1919  0.0839  0.0807
 2716W        W20920   2.011  12.351   3.415  0.0502 -0.0253  0.1268
 2717W        W20921   3.356   1.866   2.267 -0.1495 -0.2485  0.3086
 2718W        W20922  10.115   0.763   1.107 -0.0431 -0.1910 -0.0404
 2719W        W20923   7.570   6.947   3.441  0.1616  0.0093 -0.2702
 2720W        W20924  17.067   5.459   2.601  0.0923  0.1171  0.0128
 2721W        W20925  13.528  15.030   2.052  0.2642 -0.1138  0.1421
 2722W        W20926   6.254   7.173   2.930  0.1069 -0.1398  0.2127
 2723W        W20927   0.106   5.593   4.238  0.1605  0.0384 -0.1321
 2724W        W20928   5.662   3.051  15.131  0.0005  0.4476 -0.0956
 2725W        W20929   4.992  17.716  15.439 -0.3041  0.0096 -0.0928
 2726W        W20930  13.269  15.788   3.028 -0.2864 -0.0713  0.1493
 2727W        W20931   0.510   9.303   0.084 -0.2687  0.1747 -0.2449
 2728W        W20932  13.503  12.579   0.005  0.0324 -0.1092 -0.1297
 2729W        W20933   3.984   2.387  14.103 -0.1649  0.1435  0.0594
 2730W        W20934   3.405   6.048   1.746 -0.2696 -0.4896  0.0883
 2731W        W20935  17.852   2.595  11.881 -0.2560 -0.0834 -0.2515
 2732W        W20936  17.220   4.243   1.498  0.0585 -0.0407 -0.2880
 2733W        W20937  14.208  11.332  12.858  0.0717 -0.1372  0.0928
 2734W        W20938  15.387   8.074   3.508  0.1607  0.0625  0.2366
 2735W        W20939  14.773   1.612  11.349 -0.0146  0.0957  0.2686
 2736W        W20940   9.016   1.072   0.352 -0.0047 -0.2534 -0.1221
 2737W        W20941   2.727   8.938  12.537  0.2922  0.2131  0.1269
 2738W        W20942   3.954  16.968  11.244  0.3822  0.2607 -0.0997
 2739W        W20943   1.956  15.821   4.611  0.3034  0.3389  0.2102
 2740W        W20944   1.647   1.229   2.790 -0.0659  0.3390  0.0907
 2741W        W20945   2.006   0.897  12.663  0.0260  0.1726  0.0478
 2742W        W20946   1.984   9.915   2.750  0.4080 -0.2252  0.1533
 2743W        W20947   4.101  11.502   4.741  0.0553 -0.1187 -0.2059
 2744W        W20948   4.385   2.616  10.682  0.2864 -0.2549  0.3359
 2745W        W20949   0.862  17.423   1.709 -0.1522  0.0433 -0.0428
 2746W        W20950   4.365   6.329  14.246  0.1804  0.1561 -0.0859
 2747W        W20951  15.270   2.916   0.562 -0.1662 -0.0221 -0.0336
 2748W        W20952  13.895   7.514  10.773 -0.2282  0.3364 -0.1044
 2749W        W20953  11.698   4.445  13.269  0.0572  0.1785 -0.3114
 2750W        W20954   9.839   9.966  14.501  0.1668 -0.1028  0.2624
 2751W        W20955  16.201  14.011   0.922  0.3646  0.0574  0.4043
 2752W        W20956   4.909   9.955  13.249  0.1458 -0.0538 -0.3738
 2753W        W20957   9.325   7.670  14.372  0.0882  0.3078 -0.0817
 2754W        W20958  16.674  14.483  13.813  0.0342  0.1366 -0.0049
 2755W        W20959   4.529  14.408   0.461 -0.0642  0.1686  0.1486
 2756W        W20960  13.565   0.355   4.498  0.2565 -0.1961 -0.1281
 2757W        W20961  12.801   3.045  14.771  0.0596 -0.3480 -0.0436
 2758W        W20962  13.065  16.194  12.190  0.3429 -0.0150  0.2684
 2759W        W20963  13.362   8.648   2.581  0.0900  0.0505 -0.2473
 2760W        W20964  10.281   5.488   0.032  0.0907  0.0764 -0.0408
 2761W        W20965   5.586   8.949   4.191  0.1121  0.0654 -0.0280
 2762W        W20966   8.120  13.817   2.195  0.1689  0.1590  0.1859
 2763W        W20967   7.932   3.004  14.305  0.3265  0.2484  0.3029
 2764W        W20968  13.301   4.508  10.918  0.4025  0.1532 -0.1810
 2765W        W20969   5.656   9.786  11.153  0.0834  0.0616  0.0004
 2766W        W20970   1.637   5.062   0.104 -0.0191  0.0515 -0.1592
 2767W        W20971  18.073   5.644   1.212  0.1941  0.0506 -0.1046
 2768W        W20972   8.596   9.108   1.813  0.2894  0.2749  0.0222
 2769W        W20973   6.159  10.760  14.643  0.0271 -0.1572  0.3523
 2770W        W20974   2.447   2.773  11.279 -0.1792  0.0301 -0.0300
 2771W        W20975   2.698  13.517  11.139 -0.2224 -0.1359  0.2097
 2772W        W20976   0.925   4.729   3.180  0.0683 -0.3120  0.0342
 2773W        W20977  13.686  16.095   2.881 -0.1107 -0.0411 -0.0923
 2774W        W20978  12.810   7.800   4.747  0.2119  0.2510  0.0080
 2775W        W20979   8.367   3.765   0.936  0.1072  0.1725  0.2905
 2776W        W20980   1.839   8.100  14.095 -0.1097  0.1594 -0.2619
 2777W        W20981  12.904   4.653   1.439 -0.1719  0.1016 -0.0684
 2778W        W20982   0.762   7.593  14.228  0.1473  0.0196 -0.1302
 2779W        W20983   9.193  10.082  14.500  0.0465  0.0551 -0.3583
 2780W        W20984  12.162  12.205   3.436 -0.1651 -0.1581 -0.1542
 2781W        W20985   4.848   3.010  13.184  0.0389  0.1685  0.0530
 2782W        W20986  18.213   1.268   4.730  0.0572 -0.0321 -0.1070
 2783W        W20987   2.567   2.947   2.716  0.1848 -0.0342 -0.1766
 2784W        W20988  13.163  11.957  13.707 -0.2478  0.0390  0.0439
 2785W        W20989  15.483  17.310  15.266  0.0413 -0.1743  0.0467
 2786W        W20990  17.587   9.685  15.211  0.0198 -0.0096  0.0596
 2787W        W20991  16.089  12.280  14.843 -0.0257 -0.0046 -0.0594
 2788W        W20992  18.021   4.157  10.973 -0.1248 -0.0859  0.0949
 2789W        W20993   6.532  17.895  11.926  0.0542  0.0915  0.1710
 2790W        W20994   8.768  11.737  12.250 -0.1898 -0.0129 -0.0948
 2791W        W20995  16.141   8.978  10.360 -0.1388 -0.1310  0.0270
 2792W        W20996   0.735   7.111  10.943  0.3887  0.1485  0.1814
 2793W        W20997  12.780  17.871  12.259 -0.0098  0.1301 -0.0773
 2794W        W20998   0.969  14.173   1.963  0.3055  0.0347 -0.2895
 2795W        W20999   8.387  14.804  12.422 -0.1987  0.0279 -0.1581
 2796W        W21000  10.720  15.702  13.928 -0.0776  0.5055 -0.0502
 2797W        W21001  17.784   1.634  13.987  0.1073  0.0544 -0.1598
 2798W        W21002   2.581   4.014  13.280 -0.2563 -0.3394  0.0745
 2799W        W21003   4.950   7.143  11.149  0.1601  0.0682  0.0808
 2800W        W21004   4.529  16.637   4.868 -0.2757 -0.0932 -0.6529
 2801W        W21005   1.892  16.481   1.782 -0.4522 -0.0567  0.0776
 2802W        W21006   3.253   7.462   4.247 -0.1202 -0.1739 -0.0122
 2803W        W21007   8.628  10.503   4.603  0.0413 -0.1178 -0.2575
 2804W        W21008  12.799  10.523   1.506  0.4730  0.1327 -0.0555
 2805W        W21009  10.193   3.052   1.735 -0.1904 -0.0095 -0.0267
 2806W        W21010   8.680   5.707   1.253 -0.1157  0.1976 -0.2771
 2807W        W21011   5.757   9.925   0.186 -0.0522 -0.3279 -0.4536
 2808W        W21012  13.356   5.909  12.276 -0.3472  0.3797 -0.1864
 2809W        W21013   7.463   5.384   2.425 -0.2607 -0.0823  0.1662
 2810W        W21014  10.208   7.866   2.842  0.0653 -0.1395 -0.0398
 2811W        W21015  14.650   2.998   0.125 -0.1336  0.0967  0.1033
 2812W        W21016   8.140  14.421   5.548  0.1740 -0.1575  0.0572
 2813W        W21017   5.331   1.826   4.551  0.0003  0.1624 -0.1009
 2814W        W21018  18.077   4.721   4.217  0.1494  0.1647  0.1131
 2815W        W21019   9.286   3.114   3.249 -0.1200  0.0020 -0.1679
 2816W        W21020   9.842   0.426   0.950  0.3025  0.1741 -0.1520
 2817W        W21021  13.699   2.730  12.128  0.3166  0.0248  0.0836
 2818W        W21022  14.947   8.611   3.279 -0.1654  0.0494 -0.0293
 2819W        W21023   8.911  12.078   1.500  0.1258 -0.0361 -0.0236
 2820W        W21024   2.527   3.944   3.158 -0.1074 -0.0909  0.0349
 2821W        W21025   4.724  13.383   2.492 -0.0026  0.1700  0.0414
 2822W        W21026   9.226   5.975  13.776 -0.2677  0.2028  0.0612
 2823W        W21027  11.106  16.268   3.110 -0.0184 -0.1695 -0.0970
 2824W        W21028   8.458  18.349   3.088  0.1221 -0.0506  0.3536
 2825W        W21029  13.936   8.273   4.506  0.1305  0.1310  0.2104
 2826W        W21030   8.752  18.271  12.192  0.3106  0.2862  0.0852
 2827W        W21031   6.999   4.985  10.802  0.1549 -0.0661 -0.1302
 2828W        W21032  17.775  14.778  14.363  0.0468  0.0607  0.0452
 2829W        W21033   4.261  18.226  12.460 -0.1634  0.0687  0.0098
 2830W        W21034   9.753   1.324   3.650 -0.1549 -0.0528  0.0556
 2831W        W21035  13.094  13.291  12.560 -0.0676  0.0050  0.0794
 2832W        W21036   2.705  12.942  13.027 -0.0052  0.0975  0.0190
 2833W        W21037  11.965  10.405   3.370  0.0586  0.1825 -0.1783
 2834W        W21038  15.325   3.483  15.366  0.0289 -0.3146 -0.1328
 2835W        W21039   7.809   1.376   3.974  0.1935 -0.3616  0.2391
 2836W        W21040   5.851   6.675  11.153 -0.3317  0.3390 -0.0987
 2837W        W21041   3.416   8.819  11.336 -0.1605  0.0728  0.0928
 2838W        W21042   5.473  14.637   1.584 -0.6408 -0.4048 -0.1100
 2839W        W21043  17.546   6.485   0.645 -0.0044 -0.0336  0.2594
 2840W        W21044   1.276   8.508   1.639  0.0365  0.1870  0.1089
 2841W        W21045  17.515   8.862  11.337  0.0409 -0.2054  0.1117
 2842W        W21046   0.032  15.223   4.106  0.1692 -0.0050  0.1366
 2843W        W21047   0.385  10.403   1.290 -0.2055  0.0508  0.2144
 2844W        W21048   4.280   1.063   1.834 -0.2811  0.0951  0.0517
 2845W        W21049   9.657  14.422   3.723 -0.2835 -0.2134  0.0741
 2846W        W21050  15.576   0.281  15.275 -0.2464  0.2607 -0.0889
 2847W        W21051  14.779  15.225   1.286  0.0360 -0.1005  0.3263
 2848W        W21052  13.217   1.000   2.590 -0.1429  0.1293 -0.1104
 2849W        W21053   6.146  11.016  15.059 -0.1459 -0.0368  0.1234
 2850W        W21054   9.597  12.114  13.398  0.2244  0.1609  0.1707
 2851W        W21055  12.142   9.908  13.834 -0.3593 -0.0665  0.2205
 2852W        W21056   3.457   1.685   1.722 -0.1192  0.1336 -0.0859
 2853W        W21057   8.436  10.235   1.111 -0.2617  0.0105  0.1389
 2854W        W21058   7.817   0.640   1.431  0.1673  0.0363 -0.1353
 2855W        W21059   9.053   0.766   3.112 -0.1035  0.0480  0.0707
 2856W        W21060   2.628  17.857   0.768  0.0737 -0.4445 -0.2131
 2857W        W21061  13.931  14.953  10.829 -0.0874  0.1872  0.1660
 2858W        W21062  14.023   4.406  13.501  0.0400  0.4824 -0.3046
 2859W        W21063  10.400  14.469  14.353 -0.1640  0.0226  0.0102
 2860W        W21064   7.257   9.380  13.399 -0.1600 -0.0638 -0.3286
 2861W        W21065  17.875   8.616   0.804  0.3448  0.0534 -0.0669
 2862W        W21066   1.214   6.296   4.040  0.0495 -0.0084 -0.3375
 2863W        W21067  17.355   9.440  14.739 -0.0665 -0.1977  0.1136
 2864W        W21068   6.770   6.403   9.697  0.1970  0.1526  0.2042
 2865W        W21069   9.153  16.079  10.155  0.3374 -0.0374 -0.0490
 2866W        W21070  12.967   5.667  13.622 -0.0474  0.0672 -0.2372
 2867W        W21071   1.128   4.393   0.487 -0.1337  0.1976 -0.5368
 2868W        W21072   4.400   2.572   1.641  0.1369  0.3882  0.1075
 2869W        W21073  17.612  15.318   6.051  0.0098 -0.2310 -0.1211
 2870W        W21074  16.535   1.545  15.085  0.1998  0.2629 -0.1170
 2871W        W21075   1.725  14.184   2.318  0.0598  0.1977 -0.0623
 2872W        W21076  10.955   3.140  13.023 -0.3536 -0.2146 -0.1723
 2873W        W21077  10.217   8.609  12.433 -0.0212 -0.0459  0.0662
 2874W        W21078  10.451   5.139   0.353  0.0080 -0.2341 -0.0926
 2875W        W21079  12.921   6.280   0.529 -0.2586 -0.0085  0.0061
 2876W        W21080   6.643   3.276  12.441 -0.0665 -0.1503  0.3146
 2877W        W21081  13.056   8.968  14.306  0.0565 -0.0482 -0.2353
 2878W        W21082  17.489   7.479   2.711  0.0908 -0.1103  0.3473
 2879W        W21083  10.053  10.791  12.153 -0.1724  0.1548  0.2802
 2880W        W21084  14.452  10.031  15.124 -0.0091 -0.0865  0.3015
 2881W        W21085  12.361  13.167  12.039  0.1217  0.1294 -0.0636
 2882W        W21086  12.765   4.715   4.442  0.0122  0.2199 -0.0423
 2883W        W21087  15.462   0.689   2.130 -0.2881 -0.0538  0.0030
 2884W        W21088  10.472   4.204  12.121 -0.0646 -0.2275 -0.0487
 2885W        W21089   6.735   4.553   1.682  0.0808 -0.0581  0.0991
 2886W        W21090  14.874   3.497  11.655 -0.1757  0.0097 -0.1690
 2887W        W21091  15.358  14.238  11.844  0.2594  0.0242 -0.0654
 2888W        W21092   0.526  17.666   3.490 -0.3117  0.2622 -0.0136
 2889W        W21093   7.400   8.922   1.334 -0.1813  0.0961  0.0196
 2890W        W21094  13.942  15.687   5.449  0.0157  0.1855 -0.5714
 2891W        W21095   6.142  10.301   0.107 -0.0332  0.0441  0.0404
 2892W        W21096   4.404  12.495   4.046  0.2232  0.0158  0.2177
 2893W        W21097   3.264   1.557   1.260 -0.0009  0.0123  0.2697
 2894W        W21098   6.745  16.348  12.984  0.0062  0.0319  0.0992
 2895W        W21099   6.100   6.315  14.505 -0.1746  0.1103  0.1026
 2896W        W21100  10.735  13.944   2.517 -0.2755 -0.2751  0.0823
 2897W        W21101  17.924  12.868  12.673 -0.2480  0.1750 -0.3223
 2898W        W21102  11.468  13.280   2.416 -0.1549 -0.2139  0.2862
 2899W        W21103  13.139   5.035   2.617  0.3305 -0.2177 -0.1555
 2900W        W21104  12.973  17.152   0.026  0.0786  0.0284 -0.2043
 2901W        W21105   1.250   4.898   3.581  0.3041  0.0150 -0.1644
 2902W        W21106  14.366  12.899   0.443  0.2643 -0.0351  0.1642
 2903W        W21107   1.860  10.246  11.889 -0.2151 -0.0146  0.1419
 2904W        W21108  11.428  10.578  10.348  0.1449 -0.0135  0.2362
 2905W        W21109  10.901  17.535  14.045 -0.1157  0.1412  0.1583
 2906W        W21110   6.459  17.180  10.483  0.0145  0.1336 -0.2135
 2907W        W21111  17.442  18.544  10.208  0.0434 -0.2678 -0.1805
 2908W        W21112  12.752  17.026   2.071 -0.0543 -0.0537 -0.0779
 2909W        W21113  10.403   6.622  14.970  0.3697 -0.0997 -0.3485
 2910W        W21114   8.674  13.666  10.770 -0.0993  0.1620  0.0043
 2911W        W21115   8.247   7.103   2.671 -0.2431 -0.0431  0.0184
 2912W        W21116   8.437  17.143   4.849 -0.0066 -0.0197 -0.1185
 2913W        W21117  18.436   5.728  13.012 -0.4533  0.2712 -0.0878
 2914W        W21118   7.180   6.020   3.720 -0.2849 -0.2592  0.2337
 2915W        W21119  15.413  15.955  14.869  0.0587 -0.2594 -0.1566
 2916W        W21120  13.866   0.662  13.140 -0.0669  0.2238  0.1063
 2917W        W21121   1.211   0.037   2.274 -0.0906  0.2607  0.0106
 2918W        W21122   3.189  17.573   0.823  0.1024 -0.2085  0.1111
 2919W        W21123   7.075  12.137   3.198  0.0745  0.0424 -0.2042
 2920W        W21124   9.832  11.058  15.098 -0.0143  0.0672  0.0299
 2921W        W21125  15.662   6.407   0.917  0.0088  0.2440 -0.1927
 2922W        W21126   6.482  11.227   4.342  0.2332 -0.0086  0.1671
 2923W        W21127  17.385   6.088  11.005 -0.0044  0.2662 -0.0114
 2924W        W21128  11.751   1.755   0.477  0.0070 -0.0369  0.0138
 2925W        W21129   4.089  15.094  13.144  0.0497  0.1809 -0.0266
 2926W        W21130  17.817   1.143   3.501  0.0049 -0.2855 -0.2342
 2927W        W21131   4.295  11.531   1.404 -0.0320  0.1828  0.1086
 2928W        W21132  13.608   5.717  14.336  0.0088  0.1453  0.0294
 2929W        W21133  15.370  17.576  13.948 -0.0382 -0.0381 -0.0305
 2930W        W21134   4.943   3.002  12.522 -0.1267 -0.0594  0.4055
 2931W        W21135  14.906   9.795   4.394 -0.1693  0.0053  0.1689
 2932W        W21136  16.941  17.565  14.559 -0.0407 -0.1394 -0.1111
 2933W        W21137  14.532  15.858  12.183 -0.1236 -0.0406  0.0879
 2934W        W21138  10.702   5.162  15.349 -0.0873 -0.0066  0.0127
 2935W        W21139   0.815   6.594   3.885 -0.0282  0.1332  0.1809
 2936W        W21140   7.532   5.751  12.310  0.0559  0.2073  0.1360
 2937W        W21141  14.323   0.909   1.092 -0.1491  0.2143  0.2849
 2938W        W21142   4.408   2.410   0.033 -0.0863 -0.2193  0.0420
 2939W        W21143  15.537   2.814  14.263  0.1880 -0.1511 -0.0811
 2940W        W21144   3.995   9.735   3.470  0.1583  0.2052 -0.1434
 2941W        W21145   2.864   2.025  11.685  0.0136  0.0865 -0.2865
 2942W        W21146  13.437  15.139   2.533  0.0743 -0.3978 -0.0938
 2943W        W21147  15.839  13.026   2.163 -0.1135  0.1481  0.0549
 2944W        W21148   6.886   9.696   3.746 -0.1378  0.2769 -0.1721
 2945W        W21149  10.244   0.653  11.237  0.3763  0.1918  0.1346
 2946W        W21150   7.266  16.067   2.668 -0.2834  0.0819  0.1308
 2947W        W21151   5.886   4.387   2.950  0.0365  0.3817 -0.0681
 2948W        W21152  15.241   8.016  14.418  0.1056 -0.0447 -0.3050
 2949W        W21153  17.351   9.543   2.062 -0.1901 -0.0823  0.0030
 2950W        W21154  17.058  15.840  15.063 -0.3627 -0.1368 -0.1282
 2951W        W21155  14.996   4.922  11.942  0.0780  0.0337 -0.2261
 2952W        W21156   2.543   8.115  13.332 -0.0248  0.0771  0.0396
 2953W        W21157   2.673  10.995  15.219  0.1424 -0.0596 -0.0958
 2954W        W21158   2.208   6.836   0.750  0.0874 -0.1925 -0.2567
 2955W        W21159  14.978  16.339  10.116  0.0196  0.0116  0.0468
 2956W        W21160   7.806  14.790   0.901 -0.0627 -0.1464  0.3649
 2957W        W21161  17.932  12.301   4.957 -0.0947  0.2634  0.1408
 2958W        W21162   8.190   7.011  14.942 -0.0213  0.1253 -0.0109
 2959W        W21163  13.379  10.409   3.766 -0.1534  0.1546 -0.2536
 2960W        W21164  11.038   4.921   2.650  0.0054 -0.0304  0.2258
 2961W        W21165   1.048  12.657  12.211 -0.2748  0.0334  0.0052
 2962W        W21166  16.712   1.097   4.169  0.1993 -0.2887  0.0028
 2963W        W21167  17.741  18.572  11.332  0.0933 -0.1503 -0.0006
 2964W        W21168  17.100   6.196   2.315  0.3667 -0.1507 -0.1798
 2965W        W21169  11.991  11.282   1.513  0.3016 -0.0440  0.1403
 2966W        W21170   5.838  17.176  13.361 -0.0565  0.2277  0.1502
 2967W        W21171  12.506  12.824  13.935 -0.0841 -0.0210 -0.3035
 2968W        W21172  15.723   1.809   1.231 -0.1295 -0.1915  0.2223
 2969W        W21173  10.145  17.736  13.310 -0.1544 -0.0175 -0.1557
 2970W        W21174   1.965  10.418   0.253  0.1247 -0.3136  0.2487
 2971W        W21175   6.336  10.055   1.387  0.1224 -0.0499 -0.1610
 2972W        W21176   7.312  14.345   2.710 -0.2189 -0.1361 -0.1596
 2973W        W21177  13.630   1.966  14.925 -0.3003  0.0246  0.3549
 2974W        W21178   3.028   1.518   0.356  0.1503 -0.0463 -0.2993
 2975W        W21179  15.156   8.684  12.260 -0.1420 -0.0501 -0.1702
 2976W        W21180   8.822   1.120  13.172 -0.2775  0.0278 -0.4688
 2977W        W21181  17.346   4.650   3.076  0.1831 -0.0727 -0.0324
 2978W        W21182   0.251   7.432   0.574 -0.0539  0.0400 -0.3265
 2979W        W21183   4.344   3.186   1.308  0.1347  0.1620  0.1560
 2980W        W21184   1.286  15.157  12.922  0.1721 -0.3954 -0.0526
 2981W        W21185   3.169  17.669  14.689 -0.0793  0.1677 -0.3657
 2982W        W21186   1.846  12.287   0.026 -0.3886  0.1086  0.2032
 2983W        W21187   6.383   4.907  13.842 -0.2332  0.0508 -0.0930
 2984W        W21188  17.000   7.198  15.102 -0.2651  0.1617 -0.0211
 2985W        W21189  17.236   0.393   4.257 -0.1494  0.1217 -0.1860
 2986W        W21190  10.185  13.130   3.360 -0.3758 -0.0890  0.1634
 2987W        W21191  12.355   5.892   0.018  0.0807 -0.2079 -0.1312
 2988W        W21192   4.244   5.874   4.105 -0.0503  0.2928  0.0256
 2989W        W21193   0.052   0.020   4.173  0.2141 -0.0599 -0.1688
 2990W        W21194   8.676   5.817  12.818 -0.2122  0.1733 -0.0790
 2991W        W21195  11.858   1.168  12.179  0.0137  0.0449  0.0209
 2992W        W21196   0.564   0.083   4.204  0.1740 -0.1680  0.2765
 2993W        W21197  13.139  13.381  14.991  0.0394  0.0806  0.0601
 2994W        W21198  11.045   6.176  12.726 -0.1906 -0.1637  0.0035
 2995W        W21199   2.051  16.310   2.560 -0.2093  0.3129  0.2361
 2996W        W21200   1.662  12.917   4.296 -0.1278  0.2213  0.0885
 2997W        W21201  14.408   5.689   1.959  0.0135  0.3678 -0.0627
 2998W        W21202   5.745  16.499   3.609 -0.0690 -0.2256 -0.3384
 2999W        W21203  10.952  11.388  11.418 -0.2009 -0.0397 -0.0774
 3000W        W21204  13.036  10.351   0.042  0.1737 -0.2397  0.1455
 3001W        W21205   8.955   6.222   4.923  0.1207 -0.1253 -0.1103
 3002W        W21206  14.848  18.114  13.306 -0.1488  0.1108 -0.4059
 3003W        W21207   9.215  12.681  12.106 -0.4344 -0.2499  0.0785
 3004W        W21208   5.590  14.169   4.741 -0.0546 -0.0445 -0.0861
 3005W        W21209   8.736  17.991  15.169  0.1669 -0.1299  0.1689
 3006W        W21210  11.849   3.349  14.910 -0.1673  0.0274  0.1217
 3007W        W21211   7.159  14.323   3.196  0.4681 -0.2933  0.2073
 3008W        W21212  16.815   5.785   2.190 -0.0872 -0.0105  0.2375
 3009W        W21213  12.149  14.697  10.858 -0.3290  0.1191  0.2636
 3010W        W21214  13.288   4.177   4.557 -0.1326  0.2502 -0.2496
 3011W        W21215  15.579  15.141  14.435  0.1643 -0.1547 -0.4458
 3012W        W21216  18.390   3.160   2.274 -0.2436  0.3504  0.0286
 3013W        W21217   4.724   1.376   1.631  0.1115  0.1167  0.0482
 3014W        W21218  17.627   2.189  14.076 -0.0949 -0.0149 -0.0517
 3015W        W21219   0.181  13.505  12.557  0.2796 -0.1591 -0.1722
 3016W        W21220  12.333   7.235   4.315 -0.2096  0.2156 -0.0261
 3017W        W21221   3.412   5.393   2.705 -0.1203 -0.1328 -0.0290
 3018W        W21222  10.780   3.525   5.376 -0.2478  0.1299  0.3421
 3019W        W21223  15.420  10.672  13.192  0.4508  0.1008  0.2081
 3020W        W21224   5.935   4.915  11.731 -0.2733 -0.1518  0.2600
 3021W        W21225   3.798   5.177  14.645 -0.1883 -0.1141 -0.0081
 3022W        W21226  14.086   6.669  15.302  0.2469  0.0643 -0.0677
 3023W        W21227   1.750  10.939   2.497 -0.1559  0.0880  0.1640
 3024W        W21228   1.999  16.518   0.309 -0.0186  0.1976  0.0784
 3025W        W21229  10.501  15.933  10.119  0.0010 -0.0825  0.1044
 3026W        W21230   8.949   0.947   3.999  0.1725 -0.1181  0.1125
 3027W        W21231  13.492   9.102  14.128 -0.1045 -0.1831  0.0604
 3028W        W21232  13.264  11.471  13.711  0.0106  0.0098 -0.1448
 3029W        W21233  16.927  16.522   1.929  0.0387 -0.0913 -0.1517
 3030W        W21234   2.421   9.570   0.576  0.2077 -0.1607  0.1036
 3031W        W21235  15.053   7.027  13.955 -0.0264 -0.1442 -0.1526
 3032W        W21236  10.669  17.619  13.085 -0.4032 -0.0313 -0.0394
 3033W        W21237  10.497  14.136   1.052 -0.0128 -0.2084  0.1120
 3034W        W21238   0.734   6.192  14.660  0.0164  0.1985  0.3054
 3035W        W21239  12.083   4.118  14.038  0.0612 -0.0886  0.1105
 3036W        W21240  15.645   4.408   3.501 -0.0549  0.0178 -0.1871
 3037W        W21241  17.158  16.114   3.778  0.0520  0.1990  0.2064
 3038W        W21242   8.862   8.391   3.872  0.2518  0.3682 -0.0085
 3039W        W21243   6.135   5.189  13.452 -0.1488 -0.4762  0.2449
 3040W        W21244   7.665  15.669   1.366  0.5099 -0.3454  0.0089
 3041W        W21245   1.333  18.056   1.118 -0.0096  0.1329  0.4455
 3042W        W21246  15.496  11.082  12.853  0.2181 -0.1879 -0.1385
 3043W        W21247  10.191   4.399  12.529 -0.1993 -0.0724  0.1273
 3044W        W21248   3.438  16.709  14.640  0.0109 -0.2260 -0.2533
 3045W        W21249   9.039   8.580   3.135 -0.0266 -0.3057 -0.1608
 3046W        W21250   4.872  12.722   3.969 -0.2549  0.0329  0.3674
 3047W        W21251   9.513  10.985  11.416  0.3665  0.0492  0.0972
 3048W        W21252  17.021  11.721   5.104 -0.3239  0.0402 -0.2998
 3049W        W21253  13.733   5.318   1.551  0.0619 -0.4958 -0.1938
 3050W        W21254   5.159   4.586  11.377  0.0879 -0.0021  0.0358
 3051W        W21255   2.700   5.949   0.336  0.0985  0.0028  0.0113
 3052W        W21256   6.665   8.313  11.988 -0.2603  0.2271  0.1459
 3053W        W21257  13.883   7.866   1.011 -0.0154  0.0231  0.1806
 3054W        W21258  17.543  16.783   2.541  0.1937 -0.0104 -0.0643
 3055W        W21259   0.342  12.990  11.048  0.2351 -0.0443 -0.0469
 3056W        W21260  12.839   4.320  14.406 -0.1047  0.1850 -0.1696
 3057W        W21261   3.887   3.732  12.896 -0.2318  0.1406  0.2873
 3058W        W21262   7.990  18.139   0.563 -0.1491  0.0441 -0.1418
 3059W        W21263   0.967   9.567  14.197  0.1240  0.0344 -0.0876
 3060W        W21264   1.587   8.005   4.405  0.2011  0.0593 -0.0067
 3061W        W21265  14.801   1.170  12.916 -0.2690  0.2195  0.0487
 3062W        W21266   7.404  11.070  15.110  0.1870 -0.0065  0.2039
 3063W        W21267   8.927   1.719   1.213  0.1995  0.1596  0.1013
 3064W        W21268   2.943  13.914   3.077  0.0849 -0.1290 -0.1258
 3065W        W21269  17.298   2.383  15.401  0.0818 -0.1619  0.0512
 3066W        W21270   2.793  16.546  11.940 -0.2157 -0.0784  0.0903
 3067W        W21271   8.669   3.969  12.366 -0.0769 -0.0533  0.1883
 3068W        W21272   8.900   4.508  13.086 -0.0936  0.1736  0.2713
 3069W        W21273  16.237   8.979  11.322  0.2380 -0.1517  0.0950
 3070W        W21274   1.363  14.237  11.362 -0.2144  0.0894  0.0210
 3071W        W21275   1.563   6.736   1.395  0.3614  0.0285  0.1129
 3072W        W21276  10.265  18.252  11.166 -0.1142  0.0108 -0.0203
 3073W        W21277   6.430   5.545   3.347  0.0677 -0.2544 -0.1535
 3074W        W21278   1.531  13.727   1.935 -0.0951 -0.0172 -0.0854
 3075W        W21279   6.854  11.401   9.780 -0.0341  0.1954  0.0986
 3076W        W21280  17.203  18.405  11.180 -0.2924 -0.0792 -0.2059
 3077W        W21281   3.846  12.521  10.109  0.3512 -0.0711  0.2770
 3078W        W21282   6.250  14.034  13.326 -0.4654  0.1244  0.1327
 3079W        W21283  15.247   3.266   3.256 -0.1061 -0.0998  0.1664
 3080W        W21284  12.070   2.573  14.660  0.0931 -0.1408  0.2877
 3081W        W21285  14.032   4.331  14.042  0.0687  0.0795  0.1264
 3082W        W21286   4.752  11.636   1.336  0.1300  0.4345 -0.0448
 3083W        W21287   1.546   5.626  13.873  0.1702  0.3693  0.0866
 3084W        W21288   2.915  17.429   5.565  0.1940  0.2468  0.3429
 3085W        W21289   3.031   3.277   3.712 -0.0092  0.4898  0.1887
 3086W        W21290  18.014  15.209   3.308  0.1988  0.1909  0.1715
 3087W        W21291   4.204  16.181  10.410 -0.2236 -0.0363 -0.0108
 3088W        W21292  10.672   7.142  10.391 -0.1119 -0.1083 -0.1610
 3089W        W21293   6.714  16.053  10.370  0.2221  0.0362 -0.2158
 3090W        W21294  13.520  15.108  13.143  0.0067 -0.2276  0.0177
 3091W        W21295   7.327   8.176   9.519  0.1273 -0.1496  0.0177
 3092W        W21296  18.274   8.491   4.907  0.1234 -0.2716 -0.0023
 3093W        W21297  12.584  12.140   3.716 -0.0250  0.1426  0.1068
 3094W        W21298   3.356   4.286   3.429 -0.0945  0.1000 -0.0180
 3095W        W21299   1.567   7.467   1.320 -0.0135  0.1390 -0.2457
 3096W        W21300   3.995   8.100   0.829 -0.0829  0.0785  0.0703
 3097W        W21301  15.760   7.757  13.180  0.2588  0.2126  0.0506
 3098W        W21302   2.491   1.025   1.051 -0.2930 -0.0596 -0.1212
 3099W        W21303   4.840   6.403  14.251  0.2309  0.0321 -0.1487
 3100W        W21304  14.142  18.177  15.274 -0.1988 -0.0700  0.2509
 3101W        W21305  18.334  16.224   1.742  0.1447 -0.3740 -0.0512
 3102W        W21306   3.285  11.644  11.110 -0.1848 -0.0228 -0.0644
 3103W        W21307   6.591  17.868   0.804 -0.4460 -0.1080 -0.0062
 3104W        W21308  15.540   2.055  13.347  0.0690  0.2776 -0.0818
 3105W        W21309   0.361   4.763  15.062 -0.4495 -0.1529  0.1179
 3106W        W21310  11.083   5.364   4.144 -0.0144 -0.0034  0.0229
 3107W        W21311  13.604  11.667  12.151  0.0777  0.0389  0.0890
 3108W        W21312  15.213  12.632  12.393 -0.0337  0.2553  0.1359
 3109W        W21313  11.518  11.127  12.774  0.0399  0.2013  0.1515
 3110W        W21314  14.068  10.467   3.468  0.0664 -0.0385 -0.0880
 3111W        W21315  15.717  16.055   5.200  0.4812 -0.3734  0.2688
 3112W        W21316   4.095   5.023  11.976 -0.2328 -0.2630  0.0078
 3113W        W21317   9.398   0.072  11.472 -0.5085  0.2210  0.3050
 3114W        W21318  11.070  18.143   0.345 -0.2345 -0.0458 -0.0297
 3115W        W21319  12.624  10.413  12.369  0.0385  0.1298 -0.2107
 3116W        W21320  10.346  17.445   1.434 -0.0995 -0.2294 -0.1453
 3117W        W21321   2.948   7.961   5.408 -0.0556  0.1022 -0.3690
 3118W        W21322  12.452  12.761  11.099  0.1275  0.2599 -0.2041
 3119W        W21323   2.697  12.650  13.938 -0.0407 -0.1867 -0.1852
 3120W        W21324   5.862   5.639  13.966 -0.1041 -0.0318 -0.3689
 3121W        W21325   3.239  11.259   4.473 -0.0188  0.0432 -0.0566
 3122W        W21326   2.765  10.247   3.143 -0.0260 -0.2704 -0.2575
 3123W        W21327  15.525   2.644   0.106 -0.1077  0.1780  0.5114
 3124W        W21328  10.115  11.531  13.792 -0.2708 -0.2170 -0.0531
 3125W        W21329  16.812   6.636  10.909  0.0701  0.0187 -0.1805
 3126W        W21330  13.694   1.050   3.418  0.0852  0.2022 -0.3551
 3127W        W21331  15.499   0.039  14.838  0.0341 -0.2681  0.2875
 3128W        W21332   4.129  15.487   6.048 -0.2825  0.0175 -0.3685
 3129W        W21333   6.278  12.831  12.498 -0.2315 -0.0716 -0.0364
 3130W        W21334  14.588   5.902  10.645  0.0697  0.1161 -0.0405
 3131W        W21335  14.677  14.036   4.817 -0.1041 -0.1613 -0.0495
 3132W        W21336  11.090  17.095   3.173 -0.1403 -0.3526  0.2304
 3133W        W21337  10.198   4.508   0.789  0.1086  0.0500  0.0740
 3134W        W21338  12.113  12.597   0.898 -0.2102  0.1145  0.2920
 3135W        W21339  18.260   6.243  11.117 -0.4050  0.2824  0.1651
 3136W        W21340  12.958  16.701  15.093 -0.1288  0.3196 -0.1084
 3137W        W21341  12.935   1.322  15.436 -0.2437 -0.0414  0.1645
 3138W        W21342  17.825   5.954   2.100  0.2376 -0.1193  0.1252
 3139W        W21343   1.428   1.823   2.696 -0.0402  0.1370 -0.2329
 3140W        W21344   0.930   7.216  13.475 -0.0019  0.1377 -0.1298
 3141W        W21345  10.553  10.783   3.133 -0.0586  0.2618 -0.1760
 3142W        W21346  15.457   0.053   1.336 -0.0823 -0.0904 -0.2123
 3143W        W21347   2.523   7.079  13.200 -0.0554 -0.0145 -0.0513
 3144W        W21348  11.741  16.354   1.070 -0.3010 -0.2530 -0.0432
 3145W        W21349   3.233   8.089  13.866 -0.0686  0.0838 -0.0834
 3146W        W21350   8.688  14.075   2.190  0.2393 -0.1432 -0.0323
 3147W        W21351   3.157   0.389   4.057 -0.0269 -0.0317  0.0064
 3148W        W21352  10.345  15.427   0.756  0.1471 -0.2549  0.1713
 3149W        W21353  17.009   7.865   1.676  0.0436 -0.0343  0.1846
 3150W        W21354   6.790   2.212   1.209 -0.0841 -0.1064  0.0295
 3151W        W21355  18.560  11.386   4.558 -0.2874  0.0919  0.0626
 3152W        W21356  15.813  15.911  14.395 -0.0224 -0.0658  0.0480
 3153W        W21357   0.214  15.874   4.445  0.0258 -0.0218 -0.1625
 3154W        W21358  12.437   3.804  11.591  0.3565 -0.1611 -0.1676
 3155W        W21359  15.248   7.048   9.843 -0.0031  0.4206  0.0294
 3156W        W21360   0.494  15.230  11.230  0.1449  0.1223  0.1057
 3157W        W21361  15.309  13.295  13.600  0.1856  0.0857 -0.0010
 3158W        W21362   4.147   4.218   2.724  0.6582  0.0845 -0.0522
 3159W        W21363   3.380   7.545   1.350 -0.0603 -0.2681 -0.0310
 3160W        W21364  15.224  14.308  14.674 -0.1579  0.0439  0.2591
 3161W        W21365   1.397   1.559  14.218  0.1052 -0.2082  0.1518
 3162W        W21366   4.202   7.246   1.392 -0.1303  0.2073 -0.1291
 3163W        W21367   1.677   6.172  12.494  0.0120 -0.2123 -0.1382
 3164W        W21368  12.682   3.978  13.188 -0.0457  0.0584  0.0898
 3165W        W21369  11.452   2.944   1.606  0.0553 -0.1763  0.1483
 3166W        W21370   6.363   2.543   3.482  0.0239  0.0204 -0.0317
 3167W        W21371   6.396   1.805  13.527  0.0451  0.1761 -0.0639
 3168W        W21372   4.790  13.131  11.042 -0.0387 -0.0273  0.1718
 3169W        W21373   1.504  17.717   4.958  0.2922 -0.0043  0.0305
 3170W        W21374  15.918  12.857   1.624 -0.0637  0.0174  0.2166
 3171W        W21375   1.370  15.400   3.862 -0.0030  0.0723 -0.0698
 3172W        W21376   4.340   0.399   3.705 -0.0609 -0.0526 -0.1706
 3173W        W21377   2.964  18.077  11.904 -0.1342 -0.1060  0.0998
 3174W        W21378  12.656   4.427  15.143  0.1083  0.0099  0.2074
 3175W        W21379  14.740  12.611  11.633  0.1841 -0.1738  0.1713
 3176W        W21380   2.499  10.727   5.561  0.0074 -0.1141  0.2381
 3177W        W21381   7.574  13.145   0.000 -0.1108  0.1241  0.0326
 3178W        W21382   2.470   0.710   4.122  0.0145  0.1248 -0.2562
 3179W        W21383  17.390  15.098  13.523  0.4848 -0.1640  0.1851
 3180W        W21384   6.761   4.800  11.477 -0.3550  0.1509 -0.0066
 3181W        W21385   1.926   4.971  13.169 -0.2845 -0.2334  0.0176
 3182W        W21386  13.021   2.502  13.000 -0.0772  0.1096 -0.1299
 3183W        W21387  13.694  14.559   0.295  0.3107  0.0873  0.1051
 3184W        W21388   5.504   2.452   0.751  0.0090 -0.0955 -0.0616
 3185W        W21389  12.403   2.784   1.835 -0.1177  0.0426 -0.4222
 3186W        W21390  11.552  10.613   1.053 -0.0398  0.1741  0.2689
 3187W        W21391   5.569   8.469  14.897  0.1484  0.1106  0.1582
 3188W        W21392  17.578  15.561   1.053 -0.1667  0.0726  0.2933
 3189W        W21393  11.601   9.155   0.535 -0.2028  0.0798 -0.1892
 3190W        W21394   7.556   7.641   3.666 -0.2022 -0.1297 -0.1840
 3191W        W21395  17.427   5.164   4.221  0.1017 -0.0655  0.0246
 3192W        W21396   2.756  16.657  12.444  0.0386 -0.1731  0.0922
 3193W        W21397  12.411  10.232   1.368 -0.2016 -0.0924 -0.0315
 3194W        W21398   0.099  11.297  13.093 -0.1885  0.1491  0.1225
 3195W        W21399   6.330  13.899   2.207  0.1256 -0.3781  0.0896
 3196W        W21400   5.102  14.541  12.012  0.2139 -0.2649 -0.0096
 3197W        W21401   5.237   6.005  14.887  0.0354 -0.1165 -0.1585
 3198W        W21402  16.205  16.916  15.259  0.0614 -0.1264 -0.2283
 3199W        W21403  15.412   1.016   0.328  0.0747  0.2192 -0.0049
 3200W        W21404   9.208  14.462   4.016 -0.1218  0.2732 -0.0810
 3201W        W21405   8.805   7.536  11.547  0.0354 -0.0381 -0.0811
 3202W        W21406  11.643  17.552   0.591  0.1316  0.1157 -0.0469
 3203W        W21407  17.974   4.218  15.137  0.0719  0.0020 -0.2858
 3204W        W21408  11.908   8.009   2.297  0.0950 -0.3877 -0.4328
 3205W        W21409   9.208   3.416   4.381 -0.2519  0.0124  0.2719
 3206W        W21410   3.834  13.255   3.225 -0.0317 -0.0119 -0.1108
 3207W        W21411   1.080  10.162   3.101 -0.1455 -0.0477  0.5624
 3208W        W21412   3.910  14.152  15.217  0.0790 -0.1894 -0.2382
 3209W        W21413  18.127   7.029   3.353 -0.1992 -0.1218 -0.0613
 3210W        W21414  10.351   9.238   0.764 -0.0315  0.1821  0.1177
 3211W        W21415  15.647   8.149  12.889  0.0061 -0.2427 -0.1553
 3212W        W21416  15.413   5.046   4.660 -0.0925  0.1084  0.0804
 3213W        W21417   6.752   4.673   2.435 -0.2090 -0.0781 -0.2947
 3214W        W21418   6.219  10.949  12.608  0.0999  0.1821 -0.0072
 3215W        W21419   7.448   3.820   1.512  0.0147 -0.5311  0.0136
 3216W        W21420   0.632   4.248   3.837 -0.2006 -0.0540 -0.1151
 3217W        W21421  12.586   1.699  13.410 -0.1097 -0.0999 -0.0763
 3218W        W21422   6.260   8.272   2.163 -0.1696  0.2783  0.1098
 3219W        W21423   8.915   2.816   3.283  0.2552  0.2221 -0.1636
 3220W        W21424  10.469  10.731  14.511  0.0013 -0.0128  0.1472
 3221W        W21425   6.901  15.990   1.726  0.0555 -0.0574  0.2907
 3222W        W21426   1.781   6.735  14.115  0.3481  0.1003 -0.4008
 3223W        W21427   0.868   2.679   2.175  0.0508 -0.1898 -0.1108
 3224W        W21428   6.826   2.999  15.436  0.1918  0.1347  0.1098
 3225W        W21429  15.468  11.669  12.204  0.0718 -0.3070  0.3092
 3226W        W21430  12.137  18.602  12.418  0.0822  0.0549  0.0677
 3227W        W21431  11.841  12.019   5.140 -0.3516 -0.2558  0.1918
 3228W        W21432   1.421   7.720  11.405  0.0274 -0.3269 -0.2325
 3229W        W21433  15.955   4.327  10.845  0.1947  0.3598 -0.1027
 3230W        W21434   8.427  11.776   0.428  0.0853  0.0812  0.2071
 3231W        W21435  11.932  16.771  14.759 -0.1748 -0.1239 -0.1294
 3232W        W21436  15.299   9.785   3.096  0.0423 -0.2613 -0.0592
 3233W        W21437  12.856   1.331   4.656 -0.1768  0.0943  0.0302
 3234W        W21438   0.980  12.068   2.614  0.0463  0.0620  0.1403
 3235W        W21439   2.693   0.710  14.048  0.0587 -0.0255 -0.2927
 3236W        W21440  14.519   9.882  13.530  0.3290  0.0077 -0.1081
 3237W        W21441   2.357   1.903   3.664 -0.2957  0.2064 -0.1700
 3238W        W21442   1.459  16.775  11.303  0.1540  0.0038  0.2295
 3239W        W21443   4.741  15.601  14.524  0.2274  0.0973  0.1665
 3240W        W21444  18.229  14.676   5.062 -0.1715  0.2762 -0.0502
 3241W        W21445   3.323   1.673  14.296  0.0234  0.2099  0.0526
 3242W        W21446   4.592   2.868   4.289  0.0342  0.0927  0.4671
 3243W        W21447  10.531   5.140   2.619  0.0092 -0.2361 -0.1307
 3244W        W21448  12.690   0.890   2.661 -0.0114  0.0932  0.0856
 3245W        W21449   6.874   5.162  15.332 -0.3731 -0.2467  0.2047
 3246W        W21450  13.637  15.408   1.640 -0.2167 -0.4071 -0.0545
 3247W        W21451  15.716   3.877   9.645  0.1748  0.1583  0.0734
 3248W        W21452   2.660  10.506  15.083  0.1045 -0.1369  0.1331
 3249W        W21453  14.709   5.946  12.061 -0.0613  0.0559 -0.1764
 3250W        W21454  14.413  18.328   2.177  0.0465 -0.2086  0.0242
 3251W        W21455  13.281  13.753  12.667  0.1959  0.0771 -0.3024
 3252W        W21456   1.508   3.207  12.121 -0.1488 -0.2454 -0.0199
 3253W        W21457  18.156   1.939   1.003  0.1324 -0.0172 -0.2824
 3254W        W21458   5.729  18.604   1.833  0.0563  0.2629 -0.2755
 3255W        W21459   2.414   9.835  11.375 -0.3497  0.3608  0.0225
 3256W        W21460  17.781  15.350  11.809 -0.2116  0.0853 -0.2248
 3257W        W21461   5.277   6.207  14.353  0.0755  0.2364  0.2769
 3258W        W21462   1.401  17.038   0.894 -0.0774 -0.0649 -0.0165
 3259W        W21463  10.265   7.599  12.469 -0.1498 -0.0144 -0.0368
 3260W        W21464   6.941  10.981  13.768 -0.0272 -0.0103 -0.2584
 3261W        W21465   0.010  12.663   3.328 -0.4880 -0.0535  0.3569
 3262W        W21466  10.688  12.044   4.022  0.0689  0.0448 -0.1377
 3263W        W21467  15.691  18.398  15.223  0.1325 -0.2117 -0.2669
 3264W        W21468  12.035   3.781  12.388 -0.0960  0.2083  0.1957
 3265W        W21469   0.065  17.180  12.294  0.0136  0.0134 -0.2577
 3266W        W21470  17.781  14.230   0.211  0.2207 -0.3793  0.1719
 3267W        W21471   8.231  17.052   2.705  0.1415  0.0902 -0.1839
 3268W        W21472  16.011  10.430   3.465  0.1433  0.1183  0.0438
 3269W        W21473  12.156  18.029  14.882 -0.0866  0.1511  0.0980
 3270W        W21474  15.040   1.775  13.497  0.2989  0.1504  0.0185
 3271W        W21475  17.051  12.941  14.494 -0.1578 -0.3299 -0.1750
 3272W        W21476  16.551   6.709  11.400  0.1302 -0.3645 -0.0380
 3273W        W21477   5.970   2.402  14.404  0.0471 -0.1856 -0.1917
 3274W        W21478   3.108   6.768  12.974  0.1153  0.0614  0.1480
 3275W        W21479   3.671   0.498   2.373 -0.3018  0.0002  0.2123
 3276W        W21480  11.711   1.877  12.740 -0.1322 -0.1103  0.0986
 3277W        W21481   8.529   1.745   1.603  0.1955 -0.1982  0.1454
 3278W        W21482   9.414  16.217  12.505  0.0032  0.0968  0.0017
 3279W        W21483  10.081  17.423  11.373  0.1819  0.0011  0.1990
 3280W        W21484   5.198  10.743   3.572  0.1279  0.0991 -0.3200
 3281W        W21485   4.239  17.314   4.292  0.2851  0.0428 -0.0582
 3282W        W21486  15.421   5.612  13.865  0.0567  0.1512  0.2541
 3283W        W21487  18.236   1.082   4.240 -0.1462  0.1325 -0.1973
 3284W        W21488   0.095   5.724   2.922  0.2551  0.0307  0.1867
 3285W        W21489  18.495   3.933  14.302  0.0102 -0.2549 -0.2647
 3286W        W21490  11.299  14.275   0.093 -0.1348  0.0531 -0.0610
 3287W        W21491  14.215   3.010  11.852  0.2405  0.0806  0.3114
 3288W        W21492   6.812  12.292  13.915 -0.1010 -0.3936  0.1016
 3289W        W21493  13.788   9.344   2.592 -0.2910  0.0039 -0.4828
 3290W        W21494   9.604  15.758   2.823  0.0338 -0.0388 -0.1267
 3291W        W21495   6.101  17.830   4.676  0.0068 -0.0002  0.0197
 3292W        W21496   9.131   0.386   3.546 -0.0874 -0.1830  0.5194
 3293W        W21497   0.121   6.566   0.458  0.1079  0.2012 -0.0650
 3294W        W21498   9.296   1.781  12.604  0.3324  0.2417 -0.0083
 3295W        W21499   4.988  18.306  12.731  0.0949  0.0002  0.2540
 3296W        W21500   4.841   2.364   1.420 -0.2130 -0.1190  0.0005
 3297W        W21501  13.617  12.019   0.844 -0.0348 -0.1531  0.0352
 3298W        W21502  16.324   0.674  14.534  0.1920  0.3398 -0.0624
 3299W        W21503  17.895   8.691   2.267  0.4435 -0.2466 -0.2252
 3300W        W21504  16.070  10.719   0.734 -0.0325 -0.0164  0.3120
 3301W        W21505   8.814   5.606  11.554 -0.1915  0.1230 -0.2913
 3302W        W21506  14.339  14.080  15.218 -0.2209 -0.0106  0.1160
 3303W        W21507   4.873  11.366   0.659 -0.2320  0.0833  0.2139
 3304W        W21508  17.508  13.438  15.264  0.1218  0.3236 -0.2494
 3305W        W21509   4.188   6.625  11.588  0.0988  0.0398  0.3182
 3306W        W21510   3.872   1.246   3.548  0.0709 -0.2249  0.0637
 3307W        W21511   1.126  11.858  14.861  0.0940 -0.3497  0.1036
 3308W        W21512  17.571   5.887   3.505 -0.2652  0.0648  0.1789
 3309W        W21513   9.644  13.924  12.155 -0.0328  0.0006 -0.0827
 3310W        W21514  12.210  11.354  14.893  0.0507 -0.1101  0.0454
 3311W        W21515   3.549  12.136   4.505  0.0339  0.1505 -0.1041
 3312W        W21516  10.065   9.458  14.598  0.2596 -0.1247 -0.2023
 3313W        W21517  16.103  13.077   2.729 -0.1502 -0.0301 -0.1320
 3314W        W21518  10.128  16.500   3.882 -0.3266  0.1168  0.2176
 3315W        W21519  15.164  18.054   1.997  0.2659 -0.0552  0.3009
 3316W        W21520  12.113   8.656  12.566 -0.3749 -0.2075  0.2969
 3317W        W21521  16.974  18.522   3.773  0.1015  0.1714  0.1602
 3318W        W21522   8.927   6.944   2.880  0.2302 -0.0602  0.4935
 3319W        W21523  10.341  10.247  10.549  0.1278 -0.0113  0.2434
 3320W        W21524   2.011   7.227  11.952  0.0577  0.0963 -0.1662
 3321W        W21525  15.266   8.732   0.969 -0.1189  0.2302 -0.0412
 3322W        W21526  16.712   1.381  14.547 -0.0370  0.1894  0.0416
 3323W        W21527   8.732  12.501  14.821  0.3113  0.0458  0.0053
 3324W        W21528   2.900   2.331  13.880  0.1487 -0.0065 -0.1126
 3325W        W21529   0.354   7.137  11.252 -0.0203 -0.1500 -0.1479
 3326W        W21530   9.949   7.788  12.894 -0.1705 -0.0263  0.1084
 3327W        W21531  15.371  10.209   2.793  0.1334  0.0625  0.0646
 3328W        W21532  11.895  13.206   2.134  0.0974 -0.0155 -0.0290
 3329W        W21533  14.691  17.000  10.999  0.2489 -0.1435  0.0354
 3330W        W21534   2.019  14.630   3.079 -0.0985 -0.1560 -0.0525
 3331W        W21535   5.684  12.347   4.287  0.2992 -0.2496 -0.1378
 3332W        W21536  10.456  14.351   2.366 -0.1666 -0.0284  0.0911
 3333W        W21537   1.367   9.534  13.436  0.1997  0.0229  0.1196
 3334W        W21538   5.345  11.088  11.486 -0.1692 -0.1373  0.0795
 3335W        W21539  10.299   8.933  10.943 -0.1567  0.1221 -0.0374
 3336W        W21540  17.038   2.403  14.920 -0.0911  0.0738  0.0476
 3337W        W21541   0.289  18.294  10.654  0.0618  0.0916  0.1026
 3338W        W21542   6.497   6.935  10.540  0.1822  0.1586  0.1430
 3339W        W21543   6.734   9.714   1.467  0.3054 -0.0039  0.4866
 3340W        W21544   6.916   8.741  10.204  0.0084  0.1911  0.0296
 3341W        W21545  16.005  14.987  13.223 -0.2938  0.1868 -0.0732
 3342W        W21546  11.149   6.286  13.669 -0.0199 -0.0821 -0.0084
 3343W        W21547  11.361  14.368  14.025  0.3340  0.1515  0.0774
 3344W        W21548  13.053   8.891   0.420 -0.2095  0.0696 -0.0446
 3345W        W21549  18.244   4.030   2.483 -0.1201 -0.2493 -0.4754
 3346W        W21550   0.588  18.590  10.952 -0.2671  0.1183  0.1215
 3347W        W21551  15.572   6.651  13.634  0.0112 -0.0405  0.1983
 3348W        W21552  12.139   8.332   1.261  0.0470  0.2812  0.0042
 3349W        W21553   3.594  12.778   2.980 -0.0815  0.0501  0.2110
 3350W        W21554  15.391  13.165   2.082  0.2949  0.1656 -0.0852
 3351W        W21555   6.582   8.039  11.059  0.1502 -0.2089  0.2033
 3352W        W21556  18.614   6.942  10.493 -0.0270 -0.3348 -0.2313
 3353W        W21557   2.957   5.301   2.929 -0.2640  0.4546  0.1952
 3354W        W21558   6.941   2.678   1.828  0.1008  0.2045 -0.0369
 3355W        W21559  16.010   5.476   4.721 -0.1154  0.0592  0.0823
 3356W        W21560  15.244  13.795   3.791  0.2280  0.1599  0.1269
 3357W        W21561   8.128  15.077   0.610  0.2213  0.0455  0.0324
 3358W        W21562  11.895  13.389   3.212 -0.2704 -0.2115 -0.0506
 3359W        W21563   4.087   2.153  13.158  0.0869 -0.1753 -0.2278
 3360W        W21564  17.640   0.109   1.702 -0.2126 -0.0773 -0.2111
 3361W        W21565  14.369   5.813   3.873 -0.2810  0.2033 -0.1693
 3362W        W21566  12.266   1.498  13.837  0.1399 -0.1023 -0.1219
 3363W        W21567  12.070   5.522  11.723  0.1533 -0.0120  0.2503
 3364W        W21568  11.084   8.880  12.186  0.2329 -0.0655  0.0391
 3365W        W21569   0.898   7.843   3.230  0.3221 -0.3492 -0.1110
 3366W        W21570  14.059   9.308   3.597  0.1062 -0.0258  0.4133
 3367W        W21571  16.661   2.597  14.536 -0.2156  0.0931 -0.2030
 3368W        W21572   7.009  13.203   0.855  0.1365  0.1233 -0.1336
 3369W        W21573   1.283  17.118  12.681  0.0171  0.1167 -0.0151
 3370W        W21574  14.188   0.815  12.670  0.2760 -0.1049  0.3064
 3371W        W21575  16.556  12.040  11.502  0.0321 -0.1754 -0.2140
 3372W        W21576  14.498   7.429  13.455  0.1100 -0.0689 -0.0411
 3373W        W21577  11.662   5.444   4.027  0.3127  0.1727 -0.1904
 3374W        W21578  10.091   6.279  12.063 -0.3934  0.2402 -0.0378
 3375W        W21579  18.377   3.445  12.527 -0.0597 -0.1268 -0.3056
 3376W        W21580  11.149  11.234   2.053  0.2244  0.0308 -0.0086
 3377W        W21581   3.075   9.385   2.453 -0.2513  0.0796 -0.0556
 3378W        W21582   4.842  11.986  11.983 -0.1038  0.2232  0.1392
 3379W        W21583   8.180   6.540  13.154  0.4799 -0.2090  0.0859
 3380W        W21584  16.222  17.335   1.203  0.3059  0.1327 -0.0143
 3381W        W21585   4.531   7.932  14.245 -0.2181 -0.2202  0.1531
 3382W        W21586  18.072   3.674  11.228  0.1342  0.1519 -0.1868
 3383W        W21587   0.426  13.228   1.305  0.4777  0.0265 -0.1060
 3384W        W21588   0.330   1.496  13.880 -0.0894 -0.1428 -0.2380
 3385W        W21589   4.467   8.665   1.862 -0.3194 -0.1362 -0.1710
 3386W        W21590   5.349  10.667  10.731  0.0773  0.1590  0.0722
 3387W        W21591   9.722  17.896  14.630  0.2657  0.1012 -0.2493
 3388W        W21592   3.634  14.490  11.952 -0.0407  0.1166  0.1288
 3389W        W21593   6.969  10.867  11.043 -0.1789 -0.2056 -0.3497
 3390W        W21594   7.063   1.897  12.995  0.1845 -0.3332  0.0565
 3391W        W21595  10.225   0.113   1.864 -0.0973 -0.1493  0.0954
 3392W        W21596  13.236   5.626  14.745 -0.2601  0.0894  0.4632
 3393W        W21597  15.358  16.520  11.649  0.3267 -0.0561 -0.1485
 3394W        W21598   5.028   9.301  14.050  0.0859 -0.0836  0.1279
 3395W        W21599   1.253   2.833  10.829 -0.2642  0.0812  0.2293
 3396W        W21600   7.994   5.136  11.631  0.0558  0.1843 -0.1452
 3397W        W21601   1.834  18.294   0.911 -0.1268  0.1337  0.0954
 3398W        W21602   7.399   5.968  15.408 -0.0637 -0.1898 -0.2068
 3399W        W21603   6.842  13.613  11.518 -0.0664 -0.2302  0.1416
 3400W        W21604   7.930   1.150   3.049  0.0991 -0.0415  0.1384
 3401W        W21605  17.009   7.519   2.679  0.1651 -0.1110  0.3407
 3402W        W21606   7.175   5.035   0.282  0.0217  0.0261 -0.0438
 3403W        W21607   9.287   2.559  13.302 -0.3285 -0.3266  0.0590
 3404W        W21608  10.484  17.345  14.257  0.0842  0.0038  0.0621
 3405W        W21609   5.302   1.239   1.390 -0.0116  0.5006 -0.2300
 3406W        W21610  14.054  12.780  13.175  0.2638  0.2534 -0.0153
 3407W        W21611  17.008  12.439   1.290 -0.2873  0.1688  0.2062
 3408W        W21612   8.695  10.941   2.715 -0.1172 -0.0154 -0.0288
 3409W        W21613   0.668   0.521  12.902 -0.0265  0.0103 -0.1597
 3410W        W21614  14.002   6.064  13.042  0.0425  0.0740 -0.0788
 3411W        W21615  13.202  17.606  14.663  0.0387  0.0063 -0.0466
 3412W        W21616  16.893  12.581   0.007 -0.2143  0.2874 -0.2761
 3413W        W21617  14.021  14.265   1.242  0.0406 -0.1263 -0.0568
 3414W        W21618   1.005   9.206   2.969 -0.0526 -0.0622 -0.2054
 3415W        W21619   9.929   2.255  11.311  0.1005 -0.0259  0.2027
 3416W        W21620   1.622   1.198  13.517  0.1991 -0.1023  0.4041
 3417W        W21621   9.598  12.661   1.478 -0.0442 -0.0369  0.1350
 3418W        W21622  12.390  12.752  11.699  0.3635 -0.2433 -0.2610
 3419W        W21623  17.218  13.302   3.243  0.0257  0.2268 -0.0518
 3420W        W21624   5.503  17.819   1.134 -0.1217  0.1210  0.0872
 3421W        W21625  17.414   5.774  12.653 -0.1218 -0.3657  0.0442
 3422W        W21626  13.797   3.776  14.614 -0.1158 -0.0195 -0.1833
 3423W        W21627   3.803  13.663   2.749 -0.0892 -0.1852 -0.1683
 3424W        W21628   9.273  16.251   3.926 -0.1309 -0.3655 -0.1224
 3425W        W21629   6.813  14.697  12.284 -0.0238 -0.2185 -0.1151
 3426W        W21630   2.905  11.062  13.375 -0.2652  0.1521 -0.0651
 3427W        W21631  12.365   5.645  11.371 -0.1112  0.0471 -0.1679
 3428W        W21632  12.374  18.123  13.305  0.0165  0.0796  0.0633
 3429W        W21633   8.501   8.171   2.524  0.1913  0.1952 -0.0254
 3430W        W21634  18.163  15.965   1.201  0.2564  0.1248  0.2242
 3431W        W21635   4.736   8.455  12.708 -0.4719 -0.1757 -0.0495
 3432W        W21636  12.123   2.387  14.086 -0.3469 -0.1538  0.1267
 3433W        W21637  13.615   5.093   2.826  0.2765  0.2311 -0.3218
 3434W        W21638   9.476   6.346   5.609 -0.2082  0.1237 -0.2804
 3435W        W21639  10.171   7.224   4.617 -0.1746 -0.2763 -0.3609
 3436W        W21640   7.840   9.646  14.120 -0.2489 -0.1617  0.3424
 3437W        W21641   8.644  12.700   5.506 -0.0753 -0.2680 -0.2142
 3438W        W21642  14.705  11.478  12.489  0.0291 -0.2122  0.1437
 3439W        W21643   8.260   8.451  14.923  0.2057  0.3322 -0.5303
 3440W        W21644   6.251   0.661  12.442  0.0600  0.0474  0.2458
 3441W        W21645   4.808   4.290  15.337  0.4171 -0.0804  0.2146
 3442W        W21646  16.049   8.092   5.004  0.0260 -0.0762 -0.2360
 3443W        W21647   4.291   5.160  15.200 -0.2229  0.0440 -0.1594
 3444W        W21648   1.190  15.039   3.501 -0.0215 -0.0175 -0.0441
 3445W        W21649  14.214  13.245  11.146 -0.1239  0.0431  0.0598
 3446W        W21650  13.757   3.597   0.141 -0.0511  0.0588 -0.0946
 3447W        W21651  11.094  15.768   3.109 -0.5463  0.0120  0.0815
 3448W        W21652   2.470   5.573  15.275 -0.0752  0.1355  0.2327
 3449W        W21653  12.238  12.366  13.827  0.1557 -0.3193  0.2468
 3450W        W21654   2.041  14.122  11.362  0.1113  0.1662 -0.0128
 3451W        W21655   6.279   4.527   3.330 -0.1120 -0.1427 -0.1089
 3452W        W21656   2.426   1.372  14.733 -0.0179 -0.0294  0.1437
 3453W        W21657  15.789   2.579  11.012  0.0167  0.2133  0.2312
 3454W        W21658  14.122  14.347   4.063  0.0504 -0.1142  0.1455
 3455W        W21659  14.328  16.756  15.302 -0.0709 -0.1063 -0.2689
 3456W        W21660   3.851  16.165  11.738 -0.1517  0.0462  0.1134
 3457W        W21661   7.273  12.790  10.313  0.0356  0.2994  0.4925
 3458W        W21662  13.018  10.371   1.915 -0.1965  0.2460  0.1035
 3459W        W21663  11.325  14.117  14.464  0.0627 -0.2127  0.0847
 3460W        W21664  10.928   5.490   0.172 -0.0982  0.5555  0.1630
 3461W        W21665   6.144   1.309  10.916  0.2418  0.0832  0.1468
 3462W        W21666   9.631   3.977   1.153 -0.0168 -0.0465 -0.1965
 3463W        W21667  10.953   1.545   1.047  0.0898  0.2255  0.0210
 3464W        W21668   8.608   7.045   4.849 -0.0509  0.1450  0.1669
 3465W        W21669   9.724   1.012   4.074 -0.0783 -0.0613  0.3375
 3466W        W21670   3.469   5.816  11.321 -0.0836 -0.2210  0.2777
 3467W        W21671   3.984   4.579  12.099 -0.1360 -0.1519 -0.1567
 3468W        W21672   0.305  16.950  11.636  0.2988  0.0324 -0.2593
 3469W        W21673  11.045   8.473   0.296  0.0694 -0.0059  0.0489
 3470W        W21674   9.677   3.180   4.547 -0.0703  0.0919  0.0405
 3471W        W21675   0.262   7.183  12.960 -0.2137  0.0233 -0.0979
 3472W        W21676  16.775  12.191   3.493 -0.2798 -0.0923  0.0963
 3473W        W21677  10.439  12.495   0.599  0.2247  0.1792 -0.1766
 3474W        W21678  10.467  13.668  12.504 -0.4102 -0.2267  0.2432
 3475W        W21679   1.022  15.472   3.361 -0.0258 -0.1993  0.1224
 3476W        W21680   7.424  18.399  12.628 -0.1505  0.0200 -0.1411
 3477W        W21681  13.808  11.018   2.139  0.0174  0.0490  0.0217
 3478W        W21682  13.720   4.774   0.401  0.1404  0.2604 -0.0972
 3479W        W21683   9.145   1.085   4.920 -0.1777  0.0962 -0.1137
 3480W        W21684  14.968   5.647  13.400  0.0223  0.1024  0.2264
 3481W        W21685   6.487   8.834  14.305 -0.0021  0.0691 -0.1546
 3482W        W21686   4.410  12.975   4.134  0.1068 -0.1132 -0.0099
 3483W        W21687  16.007   9.196  14.961  0.0157 -0.0536  0.0145
 3484W        W21688   6.246  13.683  12.761  0.1104  0.3867 -0.0267
 3485W        W21689  16.200  12.744   2.319  0.2149  0.1623 -0.5383
 3486W        W21690  10.819   0.308  11.831  0.2046 -0.0566  0.0875
 3487W        W21691   3.691  15.029  14.747  0.1824 -0.2024 -0.1621
 3488W        W21692   0.957  18.566  12.740  0.0788  0.3088  0.2969
 3489W        W21693   1.270  15.691  12.814  0.3903 -0.2063 -0.0137
 3490W        W21694  15.396  12.813   1.761  0.0565  0.1692 -0.2915
 3491W        W21695   5.384  14.955  12.422 -0.0736 -0.1242  0.0523
 3492W        W21696   3.848   9.740   0.276 -0.1207  0.1962  0.0637
 3493W        W21697   0.462   1.976  13.983 -0.1088  0.0380  0.1367
 3494W        W21698   5.289  12.562  13.691 -0.0351 -0.0943 -0.1731
 3495W        W21699  10.066   5.298   2.799  0.0112  0.0266  0.0391
 3496W        W21700  10.515   6.534  13.367 -0.1712 -0.1070 -0.3541
 3497W        W21701  14.199   2.729   2.018  0.0755 -0.1245  0.2657
 3498W        W21702  12.235  15.750   2.167 -0.3159 -0.1946 -0.4610
 3499W        W21703  13.257  15.684   5.740 -0.2263 -0.1280 -0.2972
 3500W        W21704  13.627   5.556  10.145  0.1387 -0.0016 -0.2744
 3501W        W21705   7.499   7.009  13.632 -0.1220 -0.1213 -0.0620
 3502W        W21706   5.404   1.233  14.897 -0.1864 -0.0689 -0.2098
 3503W        W21707  12.410   1.660   2.241  0.3956  0.1024  0.0964
 3504W        W21708  14.270   5.257   0.745  0.4699  0.1432  0.1040
 3505W        W21709  18.071  10.574   5.123  0.0141 -0.0433 -0.1220
 3506W        W21710   4.790   5.316   0.482  0.2278 -0.0888 -0.0703
 3507W        W21711   5.811  18.234   4.365  0.0969  0.2071  0.1959
 3508W        W21712   5.112   4.398  14.628  0.3138 -0.2293  0.3012
 3509W        W21713  18.407   2.240  13.206 -0.1474  0.0912 -0.2027
 3510W        W21714   3.836  18.495   1.834 -0.0778 -0.0026 -0.1425
 3511W        W21715  18.181   1.340   1.686  0.0085  0.0530 -0.2320
 3512W        W21716  13.296   5.972   4.238  0.0448 -0.0617 -0.2283
 3513W        W21717  10.984   8.899  12.717  0.0950 -0.0629  0.1043
 3514W        W21718   9.643   8.487   0.680  0.1582 -0.2822  0.2821
 3515W        W21719   1.322   6.388   2.269 -0.1440  0.0753 -0.0257
 3516W        W21720  16.114   2.561   1.670  0.0048  0.3092  0.0763
 3517W        W21721  17.100  17.610   3.989 -0.1343  0.0176  0.0504
 3518W        W21722   7.311  14.013  13.676 -0.2912  0.0440  0.3751
 3519W        W21723   5.794  13.253   1.915  0.5046 -0.2390  0.3123
 3520W        W21724   7.651  13.255  12.184 -0.2077  0.0056 -0.2669
 3521W        W21725   8.376  15.635  12.280 -0.0028 -0.2213 -0.0687
 3522W        W21726   9.095  14.951  13.474 -0.1242 -0.0273  0.2183
 3523W        W21727  11.549  17.136  11.248 -0.1220  0.0448  0.0104
 3524W        W21728   6.331  15.354  12.560  0.0074  0.0833 -0.0326
 3525W        W21729  18.582  13.971  11.813 -0.1132 -0.2863 -0.0237
 3526W        W21730   4.887  10.954  11.602  0.0919 -0.1698 -0.0177
 3527W        W21731  13.130  13.301   1.595  0.2614 -0.0336  0.0558
 3528W        W21732  10.044  11.364  12.839  0.0089 -0.2333  0.2093
 3529W        W21733   7.724  14.156   0.005 -0.3582  0.0289 -0.2939
 3530W        W21734  11.438  14.898  12.267 -0.1073 -0.1883 -0.1300
 3531W        W21735  17.549   5.359  14.713 -0.3137  0.0041 -0.0288
 3532W        W21736  18.152  17.762  13.891 -0.1432 -0.0696  0.1377
 3533W        W21737   4.727   0.626  11.782 -0.0890  0.2413  0.2170
 3534W        W21738   4.627  12.003  12.511 -0.2607 -0.0552 -0.1160
 3535W        W21739  14.444   8.844   1.626  0.0514  0.1852 -0.1062
 3536W        W21740  11.719   9.943   0.702 -0.0644 -0.0818 -0.0793
 3537W        W21741   0.779  14.567  11.712  0.2002  0.2108  0.0562
 3538W        W21742  10.139   7.001  11.464 -0.0197 -0.0072 -0.1425
 3539W        W21743   0.874   3.267  10.833  0.2424  0.1849  0.3509
 3540W        W21744  13.361   9.337  12.297  0.3904  0.1771 -0.1290
 3541W        W21745   7.601  10.524  14.433  0.0921  0.0115 -0.3417
 3542W        W21746   8.115  10.740   5.114  0.1687  0.0807  0.0732
 3543W        W21747  11.854   8.073   4.388 -0.3202  0.3737 -0.0089
 3544W        W21748   9.152   5.708  12.612 -0.0842  0.2162 -0.0030
 3545W        W21749   9.593  16.802   0.674 -0.2750  0.1432 -0.0621
 3546W        W21750   4.259   7.047  13.808 -0.2434 -0.1180 -0.1810
 3547W        W21751   8.609   6.456  13.006  0.2228 -0.1686 -0.1199
 3548W        W21752  17.466  10.345  11.270 -0.1361 -0.2179  0.1817
 3549W        W21753   0.350   0.208   3.670  0.0407 -0.1578 -0.3723
 3550W        W21754   2.056  11.122  10.528  0.3953 -0.0453 -0.0921
 3551W        W21755   8.705  11.741  10.977  0.2515  0.2182 -0.2980
 3552W        W21756  16.836  17.887   2.680 -0.2435 -0.1649 -0.1704
 3553W        W21757   5.635   6.537   0.343  0.1187  0.0630 -0.1033
 3554W        W21758   6.049   9.259  11.162  0.1260 -0.3315  0.0637
 3555W        W21759  14.029   1.966   5.028  0.2689  0.0521 -0.2249
 3556W        W21760  14.140   9.321  11.335 -0.1436 -0.0029 -0.4940
 3557W        W21761  16.417  11.377   3.232  0.1176 -0.0781  0.2058
 3558W        W21762   6.534   9.304  14.622  0.2703  0.0033 -0.0424
 3559W        W21763   6.456   2.653   3.997  0.2109 -0.3395  0.2548
 3560W        W21764   3.785   0.319  14.538  0.1637  0.3903 -0.1182
 3561W        W21765   1.164  17.277  14.332 -0.4590  0.0257 -0.4618
 3562W        W21766  17.642   1.896   4.008 -0.1220 -0.1127  0.0407
 3563W        W21767   8.117   8.754   2.673 -0.2167  0.1249  0.1538
 3564W        W21768  15.171   7.338  12.748 -0.1043 -0.3683  0.0865
 3565W        W21769   9.855  12.896   3.105 -0.0345  0.1034 -0.1991
 3566W        W21770   5.419  12.766  15.432  0.1184 -0.2236 -0.4124
 3567W        W21771  11.571  10.911   0.639  0.1005  0.2113 -0.1377
 3568W        W21772  14.646  13.442  12.612  0.3322 -0.1685 -0.1067
 3569W        W21773   8.544  13.612   2.381 -0.0360  0.1693  0.2133
 3570W        W21774   7.030  15.306   2.953 -0.0635 -0.1305  0.0210
 3571W        W21775  18.406   1.788  11.753  0.2792 -0.0926  0.4761
 3572W        W21776   1.417   8.880  15.306 -0.1957  0.0687 -0.1888
 3573W        W21777  12.706   9.533   1.097  0.0015 -0.1127  0.1471
 3574W        W21778   7.805   0.047   4.044 -0.0646 -0.0137  0.1767
 3575W        W21779   5.927   3.058   0.200 -0.0613  0.2854 -0.0439
 3576W        W21780   8.648  13.131   3.497 -0.0789 -0.2141 -0.2383
 3577W        W21781  12.818  14.090   4.574 -0.2697  0.1669 -0.1016
 3578W        W21782   9.746   1.948   4.453 -0.0280 -0.4854 -0.1774
 3579W        W21783  10.419  13.129  14.333 -0.0324 -0.1023 -0.1735
 3580W        W21784   5.547   1.367   0.932 -0.2691  0.1016  0.2172
 3581W        W21785   3.935  11.490   2.412 -0.0007 -0.2788 -0.0629
 3582W        W21786   8.792   1.052   4.535 -0.0662  0.3001  0.1260
 3583W        W21787  16.697  15.405   1.296 -0.2888 -0.0926  0.0861
 3584W        W21788  17.246  14.983   2.892 -0.0141  0.0149 -0.2318
 3585W        W21789  15.801  10.548  14.121 -0.0725  0.2635  0.0574
 3586W        W21790   9.746  14.155   0.886 -0.1026 -0.1897 -0.2644
 3587W        W21791   6.799   9.622   2.897 -0.0852  0.0170 -0.0059
 3588W        W21792  10.902  12.768  14.397 -0.0937  0.4795  0.1336
 3589W        W21793  15.001  15.736  14.837 -0.1390  0.1707  0.2115
 3590W        W21794   3.858   9.919  14.848 -0.1514  0.0127 -0.3231
 3591W        W21795   3.236  15.231   0.493 -0.2907  0.3610  0.0491
 3592W        W21796   3.718   7.338   0.112 -0.3434  0.0217  0.2537
 3593W        W21797   4.205  14.404  12.969  0.0406  0.1496 -0.0605
 3594W        W21798  16.156  10.242  14.914  0.1286  0.1587  0.0159
 3595W        W21799  16.233   6.568   5.418  0.2170  0.1263 -0.2690
 3596W        W21800  17.786  12.111  15.182 -0.3554  0.1032  0.0032
 3597W        W21801   2.146  10.185  12.876  0.2508  0.3306  0.0303
 3598W        W21802  13.233  15.837  14.592 -0.0587 -0.3881  0.0503
 3599W        W21803   9.479  11.411   1.960 -0.3086 -0.0773 -0.1419
 3600W        W21804  16.569  12.990  11.987  0.2354  0.1620  0.1623
 3601W        W21805   1.001   4.898   0.389 -0.1933  0.3282 -0.2409
 3602W        W21806   1.412  14.912   1.809 -0.0136  0.1340 -0.1176
 3603W        W21807  14.423  11.835  14.712 -0.0719  0.2592  0.0665
 3604W        W21808  13.830  13.700  11.192 -0.0511  0.1783  0.3307
 3605W        W21809  13.048  14.983   2.087  0.0261 -0.1077  0.3794
 3606W        W21810  17.837  17.863   2.606 -0.1691  0.1756  0.1300
 3607W        W21811  14.688   6.293  14.127 -0.1486  0.0637  0.1208
 3608W        W21812   8.750  10.562  14.856  0.0723  0.0260  0.1920
 3609W        W21813   9.883  16.096   3.841  0.1862  0.2390  0.0154
 3610W        W21814   7.855  14.914   4.201  0.0666  0.1380 -0.0435
 3611W        W21815  10.763   5.808  11.178 -0.0663 -0.5025  0.0648
 3612W        W21816  17.271   4.699  15.290  0.0914 -0.4574 -0.4220
 3613W        W21817   1.610   8.776  14.000 -0.3803 -0.1064 -0.0421
 3614W        W21818   8.326  15.549  13.304 -0.0497  0.0775 -0.0531
 3615W        W21819  12.168   0.291   1.413 -0.0818 -0.2635 -0.1401
 3616W        W21820   3.954  15.520   3.235  0.1025  0.0194 -0.3540
 3617W        W21821  17.500  11.214  11.770 -0.1715 -0.3656 -0.2819
 3618W        W21822   5.511  17.199   1.988 -0.5055  0.0839  0.0276
 3619W        W21823  11.336   8.738   1.722  0.0795  0.0822  0.0534
 3620W        W21824   7.893  18.566  12.421  0.1918  0.2148 -0.0507
 3621W        W21825  10.388   1.973  13.072 -0.1430 -0.3143 -0.0104
 3622W        W21826  12.257   1.599   1.135  0.3196 -0.3702 -0.2381
 3623W        W21827  17.094   6.010   0.391  0.0648 -0.2115  0.0647
 3624W        W21828   6.514   7.467  10.431 -0.2519  0.0248 -0.5131
 3625W        W21829   0.282  13.424  11.396 -0.1289  0.0546  0.0180
 3626W        W21830   8.410  13.636  15.089  0.2865 -0.1203  0.2389
 3627W        W21831   6.348  10.082  12.547 -0.1237 -0.0036 -0.0812
 3628W        W21832  14.607  15.957   0.814  0.0897 -0.0766 -0.3518
 3629W        W21833   8.445  17.071   3.767  0.0341 -0.3755 -0.0451
 3630W        W21834  18.602  17.713  11.312 -0.2348 -0.1512 -0.1460
 3631W        W21835   2.013  14.549   1.108 -0.0887 -0.3429  0.1506
 3632W        W21836  12.369  16.891   2.428 -0.1005 -0.0695  0.2061
 3633W        W21837  12.572  10.152  13.955  0.0808 -0.1041 -0.1781
 3634W        W21838  12.607  14.877   1.843 -0.1316 -0.0478  0.0510
 3635W        W21839  14.666   1.815   3.747  0.1703 -0.2227  0.1010
 3636W        W21840   2.755   9.391   2.845  0.4346  0.3029 -0.0301
 3637W        W21841   2.082   1.307   0.236 -0.2776  0.0331 -0.0825
 3638W        W21842  17.436  11.251   3.668 -0.0360  0.1814  0.0892
 3639W        W21843  16.277  18.351  13.853 -0.2128  0.0448 -0.1574
 3640W        W21844  17.978  14.003  14.659 -0.0903  0.4343  0.0566
 3641W        W21845   7.882   1.717   4.330  0.1303  0.1754  0.0474
 3642W        W21846  13.379   7.951   0.182 -0.2345  0.1632 -0.1645
 3643W        W21847  14.683   5.827   3.445  0.0193  0.1382 -0.0191
 3644W        W21848  13.910  15.843   1.802 -0.2990  0.4086 -0.2173
 3645W        W21849  13.044   9.720  12.062  0.0769 -0.0180 -0.1256
 3646W        W21850   2.081  15.324  12.852  0.3682 -0.1310 -0.2340
 3647W        W21851   9.977  14.699  15.141 -0.0345 -0.0725 -0.2319
 3648W        W21852  13.676  13.942   2.027 -0.3461 -0.2655  0.1398
 3649W        W21853  12.426   1.447   9.667  0.0158 -0.1181  0.0438
 3650W        W21854  15.495  15.634   3.891  0.0387  0.4035  0.1478
 3651W        W21855   6.018  15.270   3.458  0.0928 -0.2662  0.1839
 3652W        W21856   5.681   8.205   2.633 -0.1925  0.4063 -0.1400
 3653W        W21857  11.266  15.524   3.711  0.1148  0.1344 -0.2622
 3654W        W21858  14.089  12.154   3.599 -0.5542 -0.0421  0.1172
 3655W        W21859   6.418  17.097  13.299 -0.1583 -0.0238 -0.0137
 3656W        W21860   7.268  15.233   5.851  0.0340  0.0438 -0.0741
 3657W        W21861   0.340   5.685   0.810  0.3429 -0.0923  0.0324
 3658W        W21862   6.408  16.705   2.898 -0.0663  0.0130  0.1506
 3659W        W21863  12.825  16.940  11.490  0.2171 -0.1186 -0.2414
 3660W        W21864   3.490  15.252  12.266 -0.1018  0.2911 -0.1577
 3661W        W21865   4.374  12.042   4.187  0.1069  0.2027  0.0746
 3662W        W21866  16.745   2.349   2.121  0.0627  0.1223  0.2306
 3663W        W21867  15.373   0.482   4.620 -0.1844 -0.2069 -0.1002
 3664W        W21868   2.921  14.166   0.951  0.2958  0.2900  0.2587
 3665W        W21869  15.539   7.207  14.913  0.1211  0.1910  0.3424
 3666W        W21870  12.281   6.172  12.193  0.2470  0.2833  0.2858
 3667W        W21871   8.449   2.073   4.748  0.0484 -0.1505  0.0397
 3668W        W21872  11.535   1.777   1.836 -0.0347 -0.2460 -0.0980
 3669W        W21873  10.834   3.879   4.541 -0.5692  0.0053 -0.0955
 3670W        W21874   0.868   4.074   4.996  0.1260 -0.1220  0.0844
 3671W        W21875   1.494   5.674  14.356  0.0629 -0.1631  0.2232
 3672W        W21876   3.848   0.586   1.042 -0.2117  0.0027  0.0670
 3673W        W21877   3.621   5.741   1.352 -0.0042  0.1701 -0.1561
 3674W        W21878  13.444   4.763   1.829 -0.1049  0.0088  0.1868
 3675W        W21879   4.339  11.974   1.154 -0.2566  0.0622  0.1087
 3676W        W21880  16.466   2.240  11.753  0.0213  0.1493  0.1389
 3677W        W21881  13.616   0.168  11.836  0.3047  0.0671 -0.4881
 3678W        W21882   1.099  14.283   5.524  0.1388 -0.1544 -0.0330
 3679W        W21883   9.196   5.365   0.141 -0.0601 -0.3835 -0.0384
 3680W        W21884   4.031   2.661  13.178 -0.1704 -0.1130  0.0225
 3681W        W21885  11.351   2.424   1.172  0.1910 -0.0442  0.1473
 3682W        W21886   4.908  11.010  11.140 -0.3428  0.2331  0.4496
 3683W        W21887   0.251   7.666   1.063  0.1576 -0.3553 -0.0295
 3684W        W21888  16.776  12.482  13.341 -0.1003  0.1431  0.1168
 3685W        W21889  14.119  16.315   3.821  0.2346  0.1355 -0.2072
 3686W        W21890   0.362  10.684   3.979  0.0283 -0.0763 -0.3094
 3687W        W21891  12.014   1.791   1.985  0.0522  0.0632  0.2679
 3688W        W21892  17.467   1.473  11.582 -0.1382  0.1284  0.5130
 3689W        W21893  15.601  13.617   5.252  0.1017  0.1799  0.1553
 3690W        W21894  13.126  17.685   4.780  0.1635  0.1485  0.0074
 3691W        W21895  18.495  11.451   4.054  0.0223  0.1249 -0.2148
 3692W        W21896   8.231  14.952  13.958 -0.2864 -0.0547 -0.3456
 3693W        W21897   3.689  12.460   0.012  0.0213  0.2135  0.0854
 3694W        W21898  14.967   4.870   1.961 -0.0406  0.1510 -0.1204
 3695W        W21899   4.145   8.064   2.143  0.1591  0.0663 -0.1039
 3696W        W21900   7.386   1.249   0.281 -0.3279 -0.0502  0.1348
 3697W        W21901   9.366   2.223  11.161  0.2802 -0.1338  0.2549
 3698W        W21902   6.479   7.671   1.632 -0.1272 -0.2957 -0.1923
 3699W        W21903  16.123  17.208  13.722 -0.0166  0.0576  0.0939
 3700W        W21904   8.890   3.576  14.725  0.1073 -0.3825  0.1625
 3701W        W21905   1.077  12.765   3.882 -0.1637 -0.1404  0.2425
 3702W        W21906  10.670   7.908  13.610 -0.2709  0.3912  0.0911
 3703W        W21907  10.119   0.407   3.300 -0.0220  0.0362 -0.1325
 3704W        W21908   9.539  10.511   3.623 -0.0685  0.2003  0.0589
 3705W        W21909  14.506   4.544   2.384 -0.1447  0.2955 -0.0429
 3706W        W21910   0.074  16.515  12.962  0.3926 -0.0843  0.1484
 3707W        W21911  17.140  10.114   0.050  0.3096 -0.0528 -0.1123
 3708W        W21912  10.157   4.707  14.725 -0.3403 -0.0130 -0.2022
 3709W        W21913  14.542   9.275  12.246  0.0139  0.1215  0.2079
 3710W        W21914  14.032   8.998  14.220 -0.1403  0.0301 -0.3047
 3711W        W21915  16.324  10.822  14.817 -0.1243  0.1006  0.0676
 3712W        W21916   6.791  15.314  15.281  0.0959  0.5586  0.0221
 3713W        W21917  15.720  14.683  13.521  0.1123 -0.1856  0.0586
 3714W        W21918  17.411   1.542   0.605 -0.0763 -0.1548  0.1923
 3715W        W21919  13.613   1.147  11.900 -0.1015  0.3233 -0.1202
 3716W        W21920   6.477  15.897  14.510 -0.0212  0.1834  0.1197
 3717W        W21921   2.618  17.105  15.334 -0.1940  0.2005  0.2070
 3718W        W21922   2.043   9.767  11.684  0.0402 -0.0372  0.0295
 3719W        W21923   1.643  18.087  14.836  0.0132 -0.0617  0.1460
 3720W        W21924   3.130   5.755   2.998 -0.2234  0.0914 -0.3812
 3721W        W21925  15.769   0.252   0.848 -0.3790 -0.1999  0.1478
 3722W        W21926   8.356  18.143   0.982 -0.1573  0.0702  0.2546
 3723W        W21927   2.525  10.711  13.475  0.2805  0.0550  0.1448
 3724W        W21928   5.219   0.396   1.796 -0.0599 -0.1758 -0.1678
 3725W        W21929   2.136   4.761   1.520  0.2345 -0.1559 -0.0219
 3726W        W21930   1.463  12.333  14.943 -0.4128 -0.1896 -0.0442
 3727W        W21931  16.487  11.706   2.340  0.0979 -0.0486 -0.1572
 3728W        W21932  18.532   8.843  14.100 -0.2236  0.1916 -0.1822
 3729W        W21933   4.315   5.604   2.813 -0.0373  0.3695  0.1414
 3730W        W21934   0.220   2.049   0.242 -0.0356  0.0264  0.2359
 3731W        W21935   3.842   9.828  13.018 -0.2774  0.1425 -0.1757
 3732W        W21936   3.419  13.055  10.742  0.0003 -0.2502  0.2886
 3733W        W21937  16.773   6.952   0.614  0.0810  0.3785  0.3282
 3734W        W21938  15.014   2.573  12.681  0.3212 -0.1164  0.3011
 3735W        W21939   0.473   4.864   0.504  0.0400  0.3551  0.0951
 3736W        W21940  12.240   9.293   1.907  0.1108  0.0907  0.0935
 3737W        W21941  11.259  16.056   4.834  0.1169 -0.0182  0.0955
 3738W        W21942   6.466   7.660  13.164  0.0582 -0.1398 -0.0209
 3739W        W21943  16.311   4.271  12.907  0.0346  0.0998 -0.1019
 3740W        W21944   5.458   5.608   1.511 -0.1601  0.1297  0.1030
 3741W        W21945  10.779   0.258  13.687  0.1189 -0.0382  0.1409
 3742W        W21946   0.398   2.603  14.929 -0.1264  0.0641  0.1810
 3743W        W21947  16.549  12.641   3.447  0.0678 -0.0759  0.2115
 3744W        W21948  18.136   6.948   1.886  0.2560  0.4245 -0.0749
 3745W        W21949  14.228   5.621  10.265  0.2497 -0.3710 -0.2463
 3746W        W21950  14.783  11.414  11.560 -0.0030 -0.2667  0.2124
 3747W        W21951  18.480  15.232   3.045  0.0452  0.1123 -0.2077
 3748W        W21952   1.253   5.949   2.623  0.0557  0.0727 -0.2152
 3749W        W21953  11.805  17.978  10.997 -0.0013 -0.3056 -0.1365
 3750W        W21954  11.732  13.347   0.354  0.1301 -0.2247 -0.3069
 3751W        W21955  11.028  14.409  11.730 -0.2188  0.1073  0.2121
 3752W        W21956   8.769  12.578  11.210 -0.1996  0.0078 -0.3221
 3753W        W21957  12.827  11.073   3.029 -0.0419  0.1590 -0.1485
 3754W        W21958   0.956  14.959  11.430 -0.1199 -0.0388  0.2279
 3755W        W21959   3.516  12.718   4.462 -0.1243  0.0008  0.2552
 3756W        W21960   1.801   6.919  14.661  0.0951 -0.0458 -0.1262
 3757W        W21961   4.990  17.872   4.372  0.0530 -0.1586  0.1823
 3758W        W21962   3.854  12.459   3.353 -0.0377  0.3896 -0.0257
 3759W        W21963  18.481  12.212  12.962 -0.1968  0.1040 -0.0357
 3760W        W21964   3.548  14.781   0.175  0.2152 -0.1198  0.0357
 3761W        W21965  13.692   8.643  13.520 -0.0837 -0.1127  0.3110
 3762W        W21966   2.238  12.372  12.558  0.0963 -0.2210  0.2946
 3763W        W21967  10.476  12.663  11.334 -0.0454 -0.1732  0.0660
 3764W        W21968  17.172   8.441  12.227 -0.0857 -0.1668 -0.3177
 3765W        W21969   2.951  11.996  12.012 -0.0073  0.2132 -0.1286
 3766W        W21970  13.320   7.819   4.452 -0.1972  0.2389  0.0380
 3767W        W21971   2.488   5.387   0.866 -0.1862 -0.2709  0.1385
 3768W        W21972  15.445   5.666   2.166  0.1819  0.2198  0.1921
 3769W        W21973   1.627  16.822   4.474  0.0904  0.3586 -0.0342
 3770W        W21974  13.732   7.075  14.552  0.0847 -0.2075 -0.0122
 3771W        W21975   1.855   8.824  13.275  0.0578  0.0908  0.1524
 3772W        W21976   0.368  10.755   3.092 -0.1483  0.1893  0.1052
 3773W        W21977   0.183   0.190  14.789  0.4457 -0.1999  0.0721
 3774W        W21978  16.210   1.656   2.725  0.3078 -0.1246  0.2753
 3775W        W21979   1.328   7.894  13.090 -0.0102  0.0108 -0.0783
 3776W        W21980  18.454  13.698  15.360 -0.1363  0.2082 -0.2887
 3777W        W21981  15.780  12.696   0.375  0.2125 -0.1407 -0.0837
 3778W        W21982  10.575   2.069   2.377 -0.0795  0.2258  0.1511
 3779W        W21983   6.341   3.837  10.466  0.1829  0.0008  0.0132
 3780W        W21984   6.267  10.117  11.865  0.1273 -0.2229  0.2900
 3781W        W21985  17.558   3.323   0.225 -0.1363 -0.3035  0.1807
 3782W        W21986  17.443  13.240   0.800  0.0227 -0.2038  0.1903
 3783W        W21987  11.718  14.014  10.523  0.3273  0.1204 -0.1230
 3784W        W21988  11.942   9.456   0.440 -0.1408 -0.4132 -0.0797
 3785W        W21989  17.967  13.421   4.241  0.1856 -0.0774 -0.2327
 3786W        W21990   5.173   5.575  13.635  0.0395 -0.1660 -0.0158
 3787W        W21991   4.565   7.832  11.491  0.1475 -0.1529  0.1201
 3788W        W21992   8.752  14.907   3.654  0.1892 -0.1153 -0.0381
 3789W        W21993  11.841   6.738  11.501  0.1627  0.3631  0.2509
 3790W        W21994  18.222   0.851   0.095  0.2553 -0.1385 -0.3374
 3791W        W21995  17.330   1.155   0.171 -0.0547  0.2436 -0.0258
 3792W        W21996  14.762  15.791  15.283  0.0145 -0.0139  0.0747
 3793W        W21997  11.688  12.543  14.402  0.0799 -0.1313  0.3682
 3794W        W21998   5.952   8.984  13.510 -0.3961 -0.2336 -0.1041
 3795W        W21999   4.225   6.136  13.783  0.0592 -0.4072  0.3367
 3796W        W22000  16.102   1.708   0.895 -0.2009  0.0132  0.1324
 3797W        W22001  14.982  17.212   2.054 -0.2637 -0.2149 -0.2764
 3798W        W22002  15.939   0.977   2.203  0.1665 -0.2082 -0.2796
 3799W        W22003   7.123  16.524  13.320 -0.2105 -0.1019  0.0107
 3800W        W22004   5.203  13.386   5.154 -0.0378 -0.1266  0.0475
 3801W        W22005  14.897  16.206   3.107  0.0191 -0.3746 -0.0856
 3802W        W22006   4.118  17.667   3.929 -0.0377 -0.0329 -0.1063
 3803W        W22007  10.063  18.188  13.790 -0.1580  0.1899 -0.1728
 3804W        W22008  11.018   6.871  12.062 -0.1330  0.1629  0.0417
 3805W        W22009  10.706   3.457   4.847 -0.2418 -0.1663 -0.0126
 3806W        W22010   9.983   7.636  10.986 -0.0906  0.1380 -0.1525
 3807W        W22011   9.055   5.760  15.218 -0.0698 -0.0592  0.6609
 3808W        W22012   7.951   8.071   2.036 -0.2878  0.0565  0.1453
 3809W        W22013   4.547  18.379   2.701  0.0816  0.0763 -0.0055
 3810W        W22014   7.371   5.138   4.408  0.2819  0.1445 -0.1846
 3811W        W22015   2.808  17.497  12.105  0.3686  0.1021 -0.0861
 3812W        W22016  11.538  10.336   1.537 -0.0419  0.0396 -0.1321
 3813W        W22017  12.004  12.883  13.064 -0.2210 -0.1520  0.0826
 3814W        W22018   9.512  12.820   0.466  0.1809 -0.1094 -0.1111
 3815W        W22019   6.179  13.730   0.857  0.2302  0.2992 -0.1086
 3816W        W22020  12.018   1.299   2.922 -0.0046 -0.0994 -0.2752
 3817W        W22021  13.554  16.384  12.225 -0.0604 -0.1565  0.0978
 3818W        W22022   6.338   0.162   3.821 -0.0143 -0.0522 -0.0718
 3819W        W22023   2.801   9.123  13.187 -0.0207  0.5163 -0.0329
 3820W        W22024  13.037   6.540  13.028  0.2968  0.0435 -0.0028
 3821W        W22025   5.647   8.668   0.327 -0.0612 -0.2251 -0.3048
 3822W        W22026  17.360   0.370   3.072 -0.0172 -0.0563  0.2869
 3823W        W22027   4.113  18.038   0.900 -0.2786 -0.1952 -0.2725
 3824W        W22028   1.087  18.347  13.614 -0.2731  0.0259  0.1968
 3825W        W22029   6.896  10.143   1.327  0.0569  0.1410 -0.2476
 3826W        W22030  11.953   5.321  11.146 -0.0732 -0.0326 -0.3886
 3827W        W22031  13.071   9.024   2.296 -0.2730  0.0235  0.2044
 3828W        W22032   3.064  17.748   4.802 -0.3466 -0.0681  0.2318
 3829W        W22033  18.074  10.250  13.356  0.0933  0.0660 -0.0804
 3830W        W22034  12.126   8.196   2.715 -0.3447 -0.4184 -0.1262
 3831W        W22035   8.270  11.418   4.598  0.0065 -0.0399 -0.4101
 3832W        W22036  17.961  15.831  11.710  0.0935  0.0742  0.2734
 3833W        W22037  15.723   5.868   3.534 -0.0057 -0.0968  0.1356
 3834W        W22038   7.184  14.825   2.912 -0.3413 -0.0454  0.1008
 3835W        W22039   7.033   2.897   4.092  0.0735  0.0726 -0.2757
 3836W        W22040   5.989   8.823  13.998  0.4249  0.2528  0.2013
 3837W        W22041   3.150   1.603  15.367 -0.0805 -0.2577 -0.0328
 3838W        W22042   2.444  10.191   5.013 -0.0305 -0.0859  0.1168
 3839W        W22043   7.358  18.498   3.162  0.1424 -0.2023 -0.0888
 3840W        W22044  14.867  12.430   2.319  0.1223  0.3274  0.0593
 3841W        W22045  10.294  10.078  11.366 -0.2278 -0.0694  0.1565
 3842W        W22046  12.685   2.024   2.466 -0.1621  0.1208 -0.2102
 3843W        W22047  15.833   8.929   1.562 -0.2221 -0.0785 -0.4927
 3844W        W22048  11.954  18.285  13.126  0.1012  0.2596  0.0157
 3845W        W22049  16.729  13.439  13.186 -0.0488  0.2343 -0.0663
 3846W        W22050  15.136  12.463   3.428 -0.3342  0.2576  0.1307
 3847W        W22051   3.634   4.946   2.939 -0.0837  0.1377  0.0277
 3848W        W22052   4.299   6.706   0.668 -0.1767 -0.0459 -0.4662
 3849W        W22053  18.421  14.955   2.605 -0.5131 -0.0283 -0.0862
 3850W        W22054  11.487  17.308  13.485 -0.0142 -0.0052  0.0540
 3851W        W22055   8.308  16.419  13.115 -0.2174 -0.1650 -0.0126
 3852W        W22056   4.367   2.426   2.597 -0.1789  0.1852 -0.2804
 3853W        W22057   9.647   7.458   0.645  0.0000  0.0091 -0.1672
 3854W        W22058   7.864  16.433   1.874 -0.0701  0.1006 -0.1884
 3855W        W22059  11.234   7.061  13.591  0.0221  0.0271 -0.2104
 3856W        W22060  16.713   0.527   1.955  0.0249 -0.3662  0.0727
 3857W        W22061   7.282  14.325   0.148  0.1037  0.0765  0.0518
 3858W        W22062   8.172   7.530   0.915 -0.2936  0.4961 -0.1274
 3859W        W22063   2.585   8.692  13.151 -0.1254  0.0693  0.1812
 3860W        W22064  10.512   1.264   4.028  0.2573 -0.4112  0.1136
 3861W        W22065   6.001   1.600  11.354  0.0489  0.2354 -0.2838
 3862W        W22066   9.585   5.919  15.295 -0.0594  0.1623  0.0437
 3863W        W22067   0.118  11.096   1.987  0.0301 -0.1975 -0.0966
 3864W        W22068  18.600  15.236   2.236 -0.1473  0.0764 -0.2787
 3865W        W22069  11.923   5.872  12.022 -0.0904 -0.1821 -0.2859
 3866W        W22070  15.834  16.907   2.637 -0.0499  0.2207 -0.1525
 3867W        W22071   3.298   1.112  12.890 -0.1694 -0.2430  0.1401
 3868W        W22072  11.384   7.904   1.649 -0.1048 -0.0741  0.2781
 3869W        W22073  13.332  11.335   2.827  0.0450  0.0517 -0.2191
 3870W        W22074   2.125  10.866  13.699  0.0697 -0.2595  0.0016
 3871W        W22075  13.439   1.002   1.124  0.0036  0.1938  0.1639
 3872W        W22076  13.086   2.631   0.725  0.0561 -0.2899  0.2106
 3873W        W22077   0.673  10.907   0.064  0.2673  0.2751  0.2618
 3874W        W22078   1.418  10.612   4.540 -0.0525 -0.4423  0.2112
 3875W        W22079   6.667  16.470   3.304  0.0630 -0.2004 -0.1216
 3876W        W22080  14.451   8.350  13.587  0.1729  0.2291 -0.0644
 3877W        W22081   7.093   4.551   5.326  0.1948  0.2854  0.0836
 3878W        W22082  14.970  10.931  13.199  0.0784  0.0249 -0.3373
 3879W        W22083   1.449  10.360   2.518  0.0871 -0.0744  0.0998
 3880W        W22084   1.549   5.478   0.903 -0.2065  0.0095  0.1028
 3881W        W22085   3.605   6.548   1.600  0.3122  0.0462 -0.1169
 3882W        W22086   6.701   8.745  11.640 -0.2373  0.1848 -0.0560
 3883W        W22087   6.650  12.495  14.898  0.0249  0.3102  0.3600
 3884W        W22088   7.552  11.398   3.909 -0.0984 -0.0254  0.0053
 3885W        W22089  13.939  17.102   3.219 -0.1110 -0.0270 -0.0791
 3886W        W22090   0.932   7.839  13.487 -0.0986 -0.0585  0.3068
 3887W        W22091   6.723  16.834   2.421  0.2632  0.3062 -0.0261
 3888W        W22092  13.426  15.948   0.654 -0.1990  0.2892 -0.0144
 3889W        W22093  15.116  10.798  10.901  0.1978  0.1418  0.1316
 3890W        W22094   4.402   8.498  10.798  0.2159  0.3230  0.1424
 3891W        W22095  14.258   1.886   5.536  0.2720  0.2013 -0.1537
 3892W        W22096  12.378  17.488  11.202  0.3459  0.1062 -0.0537
 3893W        W22097  14.846   0.404   4.089  0.2537  0.1530 -0.1719
 3894W        W22098  18.561   6.989   3.885 -0.2627 -0.0078  0.2398
 3895W        W22099  18.385  15.554  15.334  0.0430  0.1073  0.0446
 3896W        W22100   4.663   1.784  14.255  0.1045 -0.1531  0.0639
 3897W        W22101   1.723  14.718   3.450  0.1695  0.1877 -0.0654
 3898W        W22102  14.066   3.852  11.877 -0.0455 -0.0980 -0.2079
 3899W        W22103   2.815   5.879  12.899 -0.0370 -0.3023  0.0449
 3900W        W22104   1.884   5.120   1.695 -0.0478 -0.0163  0.3984
 3901W        W22105   1.910  14.943   9.968 -0.0553 -0.0553 -0.3725
 3902W        W22106   3.742  13.448  12.656  0.1152  0.3118  0.1618
 3903W        W22107   8.942  17.694  12.815 -0.0959  0.1518  0.1048
 3904W        W22108   0.254  14.073   1.238 -0.0400 -0.0452 -0.1361
 3905W        W22109   0.611   2.678  14.390 -0.2329  0.1048  0.2030
 3906W        W22110   8.085  14.631   1.662 -0.2170 -0.0895  0.0330
 3907W        W22111  11.772   1.291  10.932 -0.1546 -0.3993  0.2240
 3908W        W22112  18.576   1.334  10.829  0.1362  0.2586  0.1030
 3909W        W22113  10.392   4.285  14.385  0.0463 -0.0674  0.0410
 3910W        W22114  14.969   7.897  15.086 -0.1352 -0.0205 -0.0672
 3911W        W22115   0.965   1.099  10.623 -0.0072 -0.2200 -0.1540
 3912W        W22116  11.265  14.737   2.689 -0.0467  0.0551  0.1690
 3913W        W22117  13.953  11.109  14.268 -0.1003 -0.1587  0.3083
 3914W        W22118  10.613  17.179   4.401 -0.2615 -0.1156  0.2860
 3915W        W22119  14.671   2.366   1.433 -0.2597  0.1450 -0.0758
 3916W        W22120   5.429  11.702   3.327  0.0596 -0.0297 -0.0344
 3917W        W22121  12.167   2.062   4.278  0.0923  0.1924 -0.3438
 3918W        W22122   9.195  12.614   0.958 -0.3033  0.0479 -0.1417
 3919W        W22123   5.464   4.982   0.939 -0.0247  0.0521  0.4444
 3920W        W22124  15.394  11.706   0.449 -0.1408  0.4316 -0.0723
 3921W        W22125  18.363   5.138   5.032 -0.1212 -0.0841 -0.0147
 3922W        W22126  13.770  15.286  13.976 -0.1103 -0.3406 -0.0562
 3923W        W22127  11.357  13.842  12.294 -0.1168 -0.1633  0.0254
 3924W        W22128  13.027  12.070   0.775  0.1240 -0.1045  0.0926
 3925W        W22129   3.791  18.419  12.414  0.0735 -0.2322  0.1735
 3926W        W22130  12.151   4.115   1.566  0.0823  0.3614  0.0764
 3927W        W22131   1.387   3.387  10.830  0.0037 -0.1048  0.1060
 3928W        W22132   6.646   5.116  11.091 -0.1285  0.1545 -0.1459
 3929W        W22133  10.857   2.511  11.470 -0.0659 -0.2757 -0.0502
 3930W        W22134   9.403   5.430  14.994  0.1724 -0.0172 -0.1761
 3931W        W22135   3.021  17.563  12.606  0.1618  0.1843 -0.0628
 3932W        W22136  10.573   8.222   0.748  0.0363  0.2151 -0.0916
 3933W        W22137   7.997  14.078  14.255 -0.2036 -0.0035 -0.0524
 3934W        W22138  18.205  15.732   2.447  0.1701 -0.1452 -0.1096
 3935W        W22139   1.796  13.919   4.071  0.1588 -0.0805  0.0708
 3936W        W22140  14.188   8.731  13.753 -0.2239  0.1556  0.0388
 3937W        W22141  18.585   9.640   1.776 -0.0947  0.1284 -0.0527
 3938W        W22142   1.159   8.114  11.548  0.1006 -0.2786 -0.0229
 3939W        W22143  14.900   0.137   0.917 -0.1798  0.1416  0.3723
 3940W        W22144   7.132  14.212   0.685 -0.0782  0.1146 -0.1316
 3941W        W22145  17.507   9.787  13.761 -0.0838  0.2954 -0.4138
 3942W        W22146   1.731   4.303  14.461  0.1836 -0.2575 -0.0741
 3943W        W22147   5.929   1.740   3.830  0.1685  0.2155  0.0439
 3944W        W22148   9.693  13.851  15.217 -0.0064 -0.1852 -0.0666
 3945W        W22149   0.948  13.737   0.765 -0.3449  0.1944  0.3350
 3946W        W22150   3.255   0.924  11.822 -0.3402 -0.1505 -0.0139
 3947W        W22151  11.390  18.481   0.192  0.0059 -0.2721 -0.2950
 3948W        W22152  18.255  18.265  13.010 -0.0986 -0.1032  0.0368
 3949W        W22153  15.490  15.000  13.956 -0.0802  0.0022 -0.3751
 3950W        W22154   5.897  18.407  11.159  0.2013  0.2469 -0.1012
 3951W        W22155   2.039  10.665   4.280 -0.3322 -0.3486 -0.0917
 3952W        W22156  12.149   1.486   4.195 -0.2453  0.1054  0.2369
 3953W        W22157   8.939   5.870  11.093 -0.2342 -0.1700  0.0390
 3954W        W22158   9.837   1.517   0.600 -0.1217 -0.1862 -0.0456
 3955W        W22159   9.274   9.200  11.079 -0.1811 -0.2242  0.0043
 3956W        W22160   2.186  10.416   1.512 -0.0800  0.0221 -0.3847
 3957W        W22161  12.005   2.083  11.937  0.2738  0.1101 -0.0534
 3958W        W22162  15.329   4.981   1.567  0.1922 -0.1123  0.4121
 3959W        W22163   0.547  18.249   4.354 -0.1874  0.1259  0.4744
 3960W        W22164   3.067   0.501   0.656  0.0732 -0.0298 -0.0560
 3961W        W22165   1.653   2.724   9.658 -0.0426 -0.0787 -0.1097
 3962W        W22166  16.527   1.480   3.255 -0.1472  0.0526  0.0370
 3963W        W22167   5.138   4.812  10.485  0.0927 -0.3038  0.1134
 3964W        W22168  16.789   9.991   3.629  0.0188  0.4233 -0.0039
 3965W        W22169   8.531  12.141  11.383 -0.0142  0.2658 -0.1203
 3966W        W22170   2.173  17.240   2.947 -0.0483  0.0081 -0.1635
 3967W        W22171   8.436  11.345   2.206  0.0951 -0.0245  0.0865
 3968W        W22172  10.322   5.893   1.986 -0.0917 -0.1273 -0.2610
 3969W        W22173  12.825   6.092   4.183 -0.0501  0.1419  0.3128
 3970W        W22174  10.210   6.759   4.882  0.1472  0.0921 -0.1402
 3971W        W22175  13.412  17.177   4.720  0.1676  0.2569 -0.3629
 3972W        W22176  13.569   7.091   3.782  0.2289 -0.2491 -0.0753
 3973W        W22177   8.339   7.463  10.764  0.0089 -0.1740  0.1520
 3974W        W22178  13.512   7.264  12.136 -0.0511 -0.0278 -0.0355
 3975W        W22179   0.487  17.855  11.455  0.4156 -0.1980 -0.3766
 3976W        W22180   0.129  12.767   5.043  0.0121  0.0980 -0.0755
 3977W        W22181   4.311   1.650   4.695  0.2918  0.2934 -0.0525
 3978W        W22182   0.362  15.427  11.692 -0.0108 -0.0663  0.3278
 3979W        W22183   9.714  12.929   3.921  0.0330 -0.1415  0.3644
 3980W        W22184   9.155  13.408  11.465  0.2104  0.3164  0.0164
 3981W        W22185   1.944   3.965   4.278  0.3573 -0.0539  0.0081
 3982W        W22186  12.631   7.145   1.495  0.1055 -0.0102  0.0249
 3983W        W22187  16.767  11.396  12.431  0.2442 -0.0854  0.0474
 3984W        W22188  17.890  12.198  14.206  0.0848  0.0340  0.1788
 3985W        W22189  10.414  10.743   3.777  0.0774  0.1095  0.3606
 3986W        W22190   4.320  10.676   4.427 -0.2609 -0.1437 -0.3539
 3987W        W22191   5.887   4.270  14.005 -0.0015 -0.1102  0.0582
 3988W        W22192   6.993   4.246  12.371 -0.1657  0.4588 -0.1573
 3989W        W22193   0.384   0.647   3.375  0.0071  0.1916  0.2158
 3990W        W22194  16.104  13.482   0.846 -0.0536 -0.0736  0.3014
 3991W        W22195  16.802   2.951   1.365 -0.2183 -0.1885 -0.0290
 3992W        W22196   4.162  12.847  14.776 -0.0678 -0.0050 -0.0575
 3993W        W22197   3.496   3.668  13.253 -0.0661 -0.1381 -0.1187
 3994W        W22198   3.118   9.904   1.570 -0.1078  0.1494  0.3113
 3995W        W22199  12.568   1.274   1.212  0.2103 -0.2351  0.0649
 3996W        W22200   0.372  12.034   1.003 -0.0137  0.0938  0.1578
 3997W        W22201  14.186  12.316  10.893 -0.0607 -0.0356  0.2162
 3998W        W22202   6.327   8.861   0.960 -0.0057  0.0688  0.1416
 3999W        W22203  15.070   4.747   2.714  0.0677  0.1362 -0.0531
 4000W        W22204  17.230  16.144  10.160 -0.1603 -0.2152  0.1584
 4001W        W22205   4.924   5.443  14.106  0.1252  0.1579  0.3503
 4002W        W22206  14.316   4.106   2.181 -0.1236  0.0498 -0.1675
 4003W        W22207   7.264  16.054  13.085 -0.2268  0.3518  0.0033
 4004W        W22208   5.451   7.158  10.629 -0.0250  0.4291 -0.1039
 4005W        W22209  12.088  14.404  13.331 -0.1011  0.1864  0.0645
 4006W        W22210   7.282   8.890  15.129 -0.0852  0.1069 -0.0985
 4007W        W22211   5.059   8.256  11.342  0.0051 -0.1318 -0.0527
 4008W        W22212  14.584   5.502  14.787 -0.0467 -0.3315  0.0901
 4009W        W22213  18.032  15.540   0.634 -0.2985  0.2293  0.1186
 4010W        W22214  13.197  17.668   2.582 -0.0797  0.2050 -0.1403
 4011W        W22215  16.567  11.374  15.030  0.1249 -0.0313 -0.0138
 4012W        W22216  16.739   2.449  13.219 -0.0081 -0.0218 -0.0378
 4013W        W22217  14.889  14.178  13.378 -0.0311 -0.0911  0.0367
 4014W        W22218   7.334   0.626  13.371  0.0921 -0.0044 -0.3697
 4015W        W22219  11.134  11.412  14.311 -0.3161 -0.0222 -0.0348
 4016W        W22220  10.579   2.873  10.597  0.1033 -0.0126 -0.2637
 4017W        W22221   3.149   2.865   4.042 -0.1022 -0.0827 -0.0260
 4018W        W22222  15.671   6.712   3.267  0.2285 -0.1935 -0.1091
 4019W        W22223   5.481  14.283  10.715 -0.0702  0.2170 -0.1913
 4020W        W22224   1.974  17.818  14.560  0.1160 -0.0409 -0.0611
 4021W        W22225   0.238  12.266   2.084 -0.0285  0.1046  0.0285
 4022W        W22226  15.946  11.294  13.446 -0.0139 -0.1147 -0.0412
 4023W        W22227  12.397  15.820   4.704  0.1144 -0.3284  0.1910
 4024W        W22228   6.934   7.713  10.437 -0.0604  0.2105  0.0368
 4025W        W22229   8.693   5.188  11.831 -0.0292 -0.0428 -0.1777
 4026W        W22230  13.878   9.353   1.982 -0.1104 -0.1258 -0.0735
 4027W        W22231   5.310   5.454   0.669 -0.0466  0.2066 -0.1320
 4028W        W22232  10.599  10.686  12.126  0.1744 -0.0249  0.1219
 4029W        W22233   2.154   9.738  13.068  0.2067 -0.3649  0.3161
 4030W        W22234   3.405  17.484  11.418 -0.0065 -0.0808  0.0803
 4031W        W22235   0.601  15.994   3.561  0.1536 -0.1725  0.2988
 4032W        W22236   9.151   5.216  14.348  0.0585  0.0690  0.2036
 4033W        W22237   9.449  11.418  11.567  0.1366 -0.1066  0.0503
 4034W        W22238  15.894  14.286   2.627  0.3881  0.1737  0.1338
 4035W        W22239   1.656  17.734  12.886  0.1937  0.3126 -0.0731
 4036W        W22240   1.372   7.740   3.463 -0.0208  0.0700 -0.0732
 4037W        W22241   3.647   6.155   0.383 -0.0956 -0.3066 -0.0380
 4038W        W22242  17.510  17.613  13.173 -0.1008  0.1569  0.2075
 4039W        W22243  12.073   7.265  14.700 -0.1623 -0.0955  0.0424
 4040W        W22244   8.387  18.431   0.305  0.1055  0.0390  0.2590
 4041W        W22245  12.401  10.492  12.915  0.0286 -0.0394  0.0062
 4042W        W22246   4.609   9.367  10.344  0.4319  0.1603 -0.0446
 4043W        W22247  14.540  18.404   1.682 -0.1169  0.2490  0.0387
 4044W        W22248  12.889  15.719   4.516 -0.2022 -0.3832  0.1158
 4045W        W22249  18.032   9.907  12.558  0.1566 -0.0426  0.1386
 4046W        W22250   7.096   0.158  13.900  0.1115 -0.2181  0.0631
 4047W        W22251   5.485   0.045  11.896  0.3579 -0.1395  0.2968
 4048W        W22252  11.169   1.593  15.079 -0.0978 -0.2756 -0.1492
 4049W        W22253   8.165  15.366   3.041 -0.0952  0.2031  0.1841
 4050W        W22254   9.015  15.907  14.614 -0.0383  0.2618  0.2122
 4051W        W22255   2.186   0.563  12.350  0.0627  0.0153 -0.2452
 4052W        W22256   9.330  18.428   4.946 -0.2882 -0.0543  0.0741
 4053W        W22257   1.094   2.183   0.381  0.0395  0.3264 -0.2765
 4054W        W22258  10.726   4.522  14.071  0.1049  0.1931 -0.0284
 4055W        W22259  11.007   1.905   3.770 -0.1510  0.1973 -0.2017
 4056W        W22260   4.029  14.334   4.170 -0.0777 -0.2309 -0.0828
 4057W        W22261   7.542  16.576  13.888 -0.2326 -0.3297 -0.0201
 4058W        W22262   2.828  17.650  11.545  0.0226  0.2308 -0.1516
 4059W        W22263   8.316  16.941   2.249  0.1250  0.0245 -0.1971
 4060W        W22264  16.032  17.861  12.547  0.1374 -0.0867  0.1828
 4061W        W22265   7.270  14.398  11.994 -0.1660  0.2790  0.0830
 4062W        W22266  10.997   8.147   4.396 -0.0439 -0.1973 -0.2393
 4063W        W22267  15.091  11.358  14.275  0.4199 -0.0638 -0.0393
 4064W        W22268  12.053   1.769  14.686  0.2371  0.0461  0.1253
 4065W        W22269   5.433  11.505   4.277 -0.2060 -0.1915 -0.2307
 4066W        W22270  17.763  16.117   0.314 -0.1352 -0.1153  0.1917
 4067W        W22271  15.136  15.824  12.653  0.1201  0.1259  0.0976
 4068W        W22272   6.034  12.401  10.644  0.0078 -0.0316 -0.3339
 4069W        W22273  18.278  11.982  11.444  0.1221 -0.1391  0.1903
 4070W        W22274   8.590  17.985   4.897 -0.0419  0.0073 -0.1679
 4071W        W22275   0.769   4.952  15.299 -0.3196 -0.1682 -0.0456
 4072W        W22276   6.144   5.846   3.619  0.0121  0.0930 -0.3417
 4073W        W22277   4.640   1.486  14.791  0.1576  0.0155 -0.0338
 4074W        W22278   7.572  12.695   2.445  0.1687  0.0591 -0.0596
 4075W        W22279   3.714   5.311  13.643  0.1931 -0.1049  0.0014
 4076W        W22280   1.658  12.587   2.452  0.0701 -0.0432  0.1352
 4077W        W22281  15.770   5.708  11.890 -0.0560  0.0472  0.1675
 4078W        W22282   8.024   8.952   0.160 -0.1243  0.0281 -0.2206
 4079W        W22283  14.318  13.804   4.221  0.0591  0.0983  0.1187
 4080W        W22284  15.481   8.445   4.705  0.1819 -0.0042  0.1956
 4081W        W22285   7.988   7.856   4.255  0.1792 -0.2541 -0.1146
 4082W        W22286   3.530   0.730   4.273 -0.1332 -0.1216  0.1870
 4083W        W22287   5.182   7.862   5.028 -0.0572  0.1756 -0.4563
 4084W        W22288   0.309   8.164  12.697  0.0005  0.3064 -0.0757
 4085W        W22289   5.487  14.708  11.743 -0.1923 -0.1439 -0.1819
 4086W        W22290   4.861   7.810  15.212 -0.1655  0.1217  0.3183
 4087W        W22291   1.450   3.807   2.097  0.1981 -0.1436  0.0527
 4088W        W22292  15.206   2.131   4.400 -0.5001 -0.0560 -0.1846
 4089W        W22293  12.611   7.660  14.057 -0.1999 -0.0988 -0.1423
 4090W        W22294  13.733   7.882   3.050 -0.1665  0.2469  0.1853
 4091W        W22295   6.579   9.295   1.112  0.2211  0.0425 -0.2169
 4092W        W22296   4.033  14.387  13.390 -0.0160 -0.0123 -0.0107
 4093W        W22297   7.052   0.302  12.562 -0.1877  0.2555  0.3489
 4094W        W22298  12.945   5.255  14.676  0.2740  0.2434  0.0563
 4095W        W22299  10.841  13.860   0.692  0.0968  0.3387 -0.2761
 4096W        W22300   2.142   4.882  11.745 -0.0960  0.0964 -0.0214
 4097W        W22301  10.735   3.891   2.607 -0.2529  0.0273 -0.1450
 4098W        W22302  18.168   3.461  13.465  0.2368  0.1795  0.0069
 4099W        W22303   0.712   9.161   1.623 -0.1581 -0.0303 -0.0742
 4100W        W22304   0.785  11.147  13.581  0.0149 -0.1824  0.1936
 4101W        W22305   8.501  13.518   6.183  0.0895 -0.1246 -0.0462
 4102W        W22306   5.691   4.365   0.268 -0.1677 -0.1664 -0.1225
 4103W        W22307   5.916  13.180  14.663 -0.3164 -0.0021 -0.2494
 4104W        W22308  17.725   5.119   0.466  0.4253 -0.2213 -0.2717
 4105W        W22309   3.545   2.989   1.591 -0.3954  0.1190 -0.1456
 4106W        W22310   6.911   6.364   3.330 -0.1999 -0.1208 -0.3959
 4107W        W22311   2.505  13.237   4.890  0.2181 -0.0842  0.0030
 4108W        W22312   0.246   3.482   3.664  0.0029 -0.1821  0.0897
 4109W        W22313   5.230  16.454  13.199  0.1827  0.0023  0.1370
 4110W        W22314   7.838   5.210   1.109 -0.1285 -0.2576 -0.0818
 4111W        W22315  14.611   4.047  11.829 -0.1030  0.0335 -0.0798
 4112W        W22316   0.868  11.642   4.524  0.2511 -0.0702  0.0170
 4113W        W22317   8.664   7.252   4.407 -0.3087  0.1377 -0.2584
 4114W        W22318  14.586  18.414  14.199  0.1134  0.2185 -0.2415
 4115W        W22319   5.721  11.494  13.253 -0.2248  0.1051 -0.0200
 4116W        W22320   0.505   9.319   0.630 -0.1483  0.2452  0.0289
 4117W        W22321   6.753   1.449  13.778 -0.2371  0.0543 -0.1100
 4118W        W22322  17.850   4.604  11.260  0.0955  0.2019  0.1739
 4119W        W22323   5.102  16.336   2.195 -0.0425  0.0438 -0.1983
 4120W        W22324   6.914   2.332  13.281  0.1800 -0.0300 -0.1142
 4121W        W22325  10.950   3.821  11.334 -0.2877  0.2858  0.1318
 4122W        W22326   0.729  16.823   0.052  0.3610 -0.0934 -0.1082
 4123W        W22327   4.922   0.118   4.866  0.0745  0.1979  0.1150
 4124W        W22328   5.884  13.723  14.594  0.1139  0.3523  0.2735
 4125W        W22329   9.471   4.326  11.838  0.0729  0.0259  0.1466
 4126W        W22330   2.606  11.456  14.964  0.2890 -0.2724 -0.0151
 4127W        W22331   2.011   3.892  11.228  0.1354 -0.0084  0.2187
 4128W        W22332   2.761  18.375  12.282 -0.0572  0.1413 -0.0302
 4129W        W22333   2.946  18.284  15.435  0.0903 -0.4018  0.0158
 4130W        W22334  10.565  17.259  11.704  0.0937  0.1055  0.1919
 4131W        W22335   2.060   5.984  10.572  0.4774 -0.2389  0.0862
 4132W        W22336  18.152  11.624   1.525 -0.0551 -0.1064 -0.1676
 4133W        W22337   0.029  11.959   2.924 -0.4286 -0.0470  0.0621
 4134W        W22338   7.158   2.998  14.717  0.1658 -0.0291 -0.2191
 4135W        W22339   4.871  10.800   3.135  0.0856 -0.0668 -0.1110
 4136W        W22340   7.385   0.643  15.133 -0.0189 -0.4752 -0.0734
 4137W        W22341   6.729  17.895  14.793 -0.4188  0.1030  0.2520
 4138W        W22342  17.511   2.247  11.739 -0.1999 -0.1460  0.1318
 4139W        W22343  17.755  14.053   2.309  0.1033 -0.1114 -0.1584
 4140W        W22344  15.001   7.033   0.727  0.0004  0.0759 -0.1678
 4141W        W22345   3.835   5.346  10.154  0.0984 -0.0222 -0.3588
 4142W        W22346   1.754   7.588   0.080 -0.2857 -0.0959  0.1055
 4143W        W22347   2.738  10.888   0.816  0.1763 -0.0659  0.1392
 4144W        W22348  16.403  13.143   3.500 -0.0113 -0.0098 -0.1755
 4145W        W22349  17.162   7.628   4.052 -0.3121 -0.2491  0.3861
 4146W        W22350  16.751  13.669   0.344  0.0687 -0.4413  0.0603
 4147W        W22351   9.315   1.252   2.941  0.0233  0.1178  0.1719
 4148W        W22352   7.814   5.678   0.098  0.2600 -0.4102  0.0146
 4149W        W22353  15.655   1.547  11.997  0.0025 -0.3021  0.2670
 4150W        W22354  16.960  11.124   0.927  0.1209 -0.2098  0.0761
 4151W        W22355  11.090  13.323   4.871 -0.0674 -0.3594 -0.2259
 4152W        W22356   5.999  15.513   4.243  0.0683  0.1508  0.4223
 4153W        W22357  16.974  14.050  13.098  0.0215  0.0218 -0.2226
 4154W        W22358  13.742   9.564  11.525 -0.0707  0.0741 -0.0441
 4155W        W22359  14.774  11.375   2.319 -0.0720 -0.3209 -0.2514
 4156W        W22360  16.968   2.106   3.241  0.2158  0.3486 -0.5897
 4157W        W22361  15.469   9.851  13.914 -0.2438 -0.0597  0.0684
 4158W        W22362   0.345   1.165   0.732  0.3170 -0.2100  0.2829
 4159W        W22363   8.754   9.087   3.418  0.0045 -0.0061 -0.0405
 4160W        W22364   8.801   3.307   3.215  0.3377  0.3578 -0.3566
 4161W        W22365   7.541  11.879  14.354  0.2162  0.0071  0.1653
 4162W        W22366   8.138   6.505   1.700 -0.0141  0.3132 -0.0378
 4163W        W22367  14.701   7.115  11.501  0.0870  0.0545  0.0068
 4164W        W22368   3.455   4.786  15.123 -0.0334 -0.1509 -0.2694
 4165W        W22369   9.173  14.783  11.315  0.0164  0.0314 -0.1537
 4166W        W22370   2.288  10.839  10.200 -0.3906 -0.0807  0.1036
 4167W        W22371   7.831  10.415  11.700 -0.2904  0.2720  0.1275
 4168W        W22372  13.322   3.405  14.443 -0.0927 -0.1087 -0.2112
 4169W        W22373  16.423  12.362   3.852 -0.0073  0.0080 -0.2384
 4170W        W22374   0.659   6.483   0.481 -0.1305  0.2888 -0.0449
 4171W        W22375  10.662  16.340  15.327  0.2785 -0.4361  0.1704
 4172W        W22376   0.856   7.620  12.293 -0.1059 -0.2746 -0.2524
 4173W        W22377  13.293  10.743  12.347 -0.0564 -0.0836  0.2974
 4174W        W22378  11.841   0.857   4.052  0.0212 -0.0659 -0.2183
 4175W        W22379  15.513  13.376  11.733 -0.0470  0.0337  0.1721
 4176W        W22380   1.264   5.630  11.663 -0.0529  0.0562  0.0674
 4177W        W22381  14.928   3.691   1.298  0.0639  0.0998  0.1500
 4178W        W22382  11.305  14.148   1.869  0.0550  0.0397 -0.1716
 4179W        W22383   3.883   1.085   2.737 -0.1277  0.0759  0.1010
 4180W        W22384   9.100   9.764  11.599  0.1239  0.2185 -0.1967
 4181W        W22385  17.138   5.217  11.277  0.0193 -0.1617  0.1290
 4182W        W22386   8.294   4.491  15.156  0.0883 -0.3936 -0.1996
 4183W        W22387   3.916   1.352  10.789 -0.0194 -0.1392  0.0581
 4184W        W22388   1.821   1.495   3.139 -0.1350 -0.1639  0.1477
 4185W        W22389  18.231  13.929  14.186  0.2364  0.0218  0.3950
 4186W        W22390   6.508  18.543   4.228  0.1464 -0.1697 -0.2558
 4187W        W22391   6.599   2.481  14.051  0.1605 -0.2371  0.1585
 4188W        W22392   2.069  15.285  15.322 -0.0795  0.2709 -0.1631
 4189W        W22393   4.751   9.320   0.294  0.1665 -0.1616  0.0111
 4190W        W22394   9.810  16.959   1.778 -0.1092  0.0341  0.0037
 4191W        W22395  17.868   7.747  13.712 -0.0800  0.0744  0.0988
 4192W        W22396  11.025  14.336   1.053 -0.1700  0.0552  0.1760
 4193W        W22397   4.618  12.873  13.126  0.1915 -0.1698 -0.2575
 4194W        W22398   7.849   3.684   3.379 -0.1573  0.4195 -0.2160
 4195W        W22399   9.442   2.254  12.594  0.0829 -0.2584 -0.1361
 4196W        W22400  12.253   2.393  11.645  0.1617  0.0062  0.1675
 4197W        W22401   2.829   8.618  15.261 -0.1420  0.0406  0.0400
 4198W        W22402   4.129  10.848   4.846 -0.2437 -0.0917 -0.2403
 4199W        W22403  11.779  13.544  13.566  0.0853  0.0771  0.0281
 4200W        W22404   9.099  12.260   3.002 -0.2890  0.1089 -0.0112
 4201W        W22405   9.332   6.858   1.717  0.0149 -0.3605 -0.2394
 4202W        W22406   6.025   3.638  11.909 -0.2552 -0.1345 -0.0395
 4203W        W22407  13.129   3.068   1.258  0.1955  0.0921  0.2361
 4204W        W22408   4.200  10.092   3.859 -0.1050  0.6380 -0.3227
 4205W        W22409   5.325  14.086   3.892 -0.0030 -0.3485  0.1251
 4206W        W22410   7.776  12.359   0.778 -0.2734  0.2161  0.1212
 4207W        W22411  10.860   5.731   0.697  0.0461 -0.4773 -0.0467
 4208W        W22412   8.685  10.059  14.858  0.2837 -0.0222  0.4280
 4209W        W22413  17.646   0.891  12.644  0.0878  0.0915  0.2672
 4210W        W22414   0.260   9.590  10.243 -0.2579  0.1955  0.0914
 4211W        W22415   7.267   8.869  11.318  0.0552  0.1471 -0.1339
 4212W        W22416   1.419  17.551   4.037  0.1353 -0.0979  0.1326
 4213W        W22417   5.882   0.231   0.120 -0.1857 -0.0344  0.0217
 4214W        W22418   8.843   3.928   0.787  0.0786 -0.1597  0.0456
 4215W        W22419   8.349  13.317   4.289  0.2457 -0.1476 -0.1039
 4216W        W22420   1.241   1.803  12.736 -0.1132 -0.0566 -0.0634
 4217W        W22421   2.463  10.588   0.531  0.2886 -0.3084  0.1357
 4218W        W22422   7.505   7.692   4.171  0.0220  0.0016 -0.3279
 4219W        W22423   6.378  18.233   4.567  0.0171  0.2172  0.0350
 4220W        W22424  11.325   7.228  10.996  0.1066 -0.1374 -0.2069
 4221W        W22425  15.935  10.578  13.566 -0.0728  0.2176 -0.1333
 4222W        W22426  14.402  18.482  10.640 -0.3298  0.0361 -0.1390
 4223W        W22427  14.477   7.033   2.947 -0.1764  0.1076 -0.2253
 4224W        W22428  15.460   8.938   0.103  0.1970  0.2227  0.2149
 4225W        W22429   6.624   4.468  14.112  0.1540  0.1912 -0.1599
 4226W        W22430  17.551   2.938   9.401  0.3619  0.2959 -0.0878
 4227W        W22431   2.765   0.464   9.889  0.3619 -0.0498 -0.0294
 4228W        W22432  13.004   4.221   1.168  0.0153  0.0776  0.0719
 4229W        W22433  16.709   6.097  12.125 -0.0142  0.2160 -0.2754
 4230W        W22434   1.765  12.828   0.011 -0.0079  0.3296 -0.1584
 4231W        W22435   9.270   3.755   0.518  0.0346 -0.0179 -0.2702
 4232W        W22436  14.772  14.022  14.894  0.1295 -0.2104  0.3242
 4233W        W22437  17.575  10.645   0.751 -0.0077  0.0598  0.1298
 4234W        W22438  11.556  14.791   1.438  0.0711 -0.2376 -0.3484
 4235W        W22439   8.390  10.114  13.830  0.2048  0.0087 -0.1076
 4236W        W22440  18.063   2.704   2.935  0.0851  0.3342  0.4541
 4237W        W22441  13.615  14.893  11.602  0.0859 -0.2608  0.0383
 4238W        W22442  16.052   5.586   1.015  0.2693  0.0847  0.2087
 4239W        W22443  15.618  15.112  12.908  0.2747  0.1668 -0.0365
 4240W        W22444  17.948  15.789  14.584 -0.1126 -0.1486  0.1039
 4241W        W22445   8.753   7.400   0.609  0.0376  0.2867  0.4554
 4242W        W22446   9.309  17.078   5.345 -0.0562 -0.0781  0.0066
 4243W        W22447  12.053   0.549   3.692  0.1220  0.1200 -0.5276
 4244W        W22448  16.266  10.110  12.989  0.0168 -0.3041  0.0730
 4245W        W22449   0.462   8.861   1.273  0.1690  0.1825  0.1118
 4246W        W22450  13.454   6.530   0.471 -0.2781 -0.0037  0.1743
 4247W        W22451   2.163  15.092   0.377  0.1584  0.2418  0.3083
 4248W        W22452  18.261   9.070  12.062 -0.0176 -0.5477  0.1947
 4249W        W22453   7.825  17.622  13.610 -0.0468 -0.1535  0.2597
 4250W        W22454  14.209   4.956   3.564  0.2217  0.3741  0.1191
 4251W        W22455   1.745   2.452   1.987  0.0138 -0.2328 -0.1362
 4252W        W22456   8.035  11.631   4.963 -0.0722 -0.1513  0.3143
 4253W        W22457  10.441   2.654   1.734 -0.0166 -0.0379  0.0999
 4254W        W22458  12.498  16.918   0.746  0.0999  0.1962  0.1079
 4255W        W22459   3.036   8.687   4.522  0.0753 -0.1379 -0.2708
 4256W        W22460  12.434   9.219   5.022 -0.0355 -0.0907  0.0446
 4257W        W22461   6.904   5.408  14.331 -0.3206 -0.3230  0.0288
 4258W        W22462   0.612   9.804   0.708 -0.1662 -0.0648 -0.3971
 4259W        W22463   7.578  15.240  11.937  0.1067  0.0573 -0.0068
 4260W        W22464  10.231   7.801   3.820  0.0140  0.2296  0.0783
 4261W        W22465   1.521  11.976   4.363  0.2739 -0.2584 -0.0570
 4262W        W22466   1.235   0.386  12.792  0.0269  0.1204 -0.2057
 4263W        W22467   1.605  14.915  13.922  0.1921 -0.0970  0.1847
 4264W        W22468   4.123   8.960  14.642 -0.0289 -0.0670 -0.1130
 4265W        W22469   9.312   1.778  11.456 -0.2413 -0.0414  0.0724
 4266W        W22470   2.843   7.693  14.726  0.1399 -0.0604 -0.1328
 4267W        W22471   5.709  17.333  11.502  0.0340  0.0033 -0.0898
 4268W        W22472  17.690  12.243  11.623 -0.5861 -0.0518 -0.1097
 4269W        W22473   2.605  15.814  14.508  0.0412  0.2948 -0.1750
 4270W        W22474   8.378   4.150   0.628 -0.2639 -0.3050 -0.4077
 4271W        W22475  11.980  11.594  10.115 -0.0400  0.1211 -0.2602
 4272W        W22476  15.158  10.624   1.290 -0.0055 -0.1819 -0.2805
 4273W        W22477  16.947  15.109  14.360  0.3226 -0.2941 -0.0939
 4274W        W22478  10.475   5.515  10.894  0.2314  0.2505 -0.0410
 4275W        W22479  14.518  13.538   4.603 -0.1219  0.0299  0.0009
 4276W        W22480  16.930   7.166   4.360  0.1019 -0.1874 -0.1137
 4277W        W22481  12.093  12.406  12.997  0.3818 -0.1436  0.0251
 4278W        W22482   7.890   5.899  11.329 -0.0305  0.5370  0.3146
 4279W        W22483  11.514  15.062   4.852  0.0022  0.1045 -0.0161
 4280W        W22484  11.899   3.798   4.244  0.1838  0.3457  0.0149
 4281W        W22485  17.780  16.747   4.219 -0.1840 -0.3040  0.1526
 4282W        W22486   2.932   9.495  11.590  0.1556  0.0073  0.2183
 4283W        W22487   6.712   3.175   1.845  0.5214 -0.4012 -0.0632
 4284W        W22488   2.084   2.703  15.245  0.1020 -0.0579 -0.4582
 4285W        W22489   0.449  10.632   4.496  0.0800 -0.0097  0.0712
 4286W        W22490   2.712   0.787  11.053  0.1071 -0.0830 -0.0958
 4287W        W22491  10.167   5.409  11.555  0.0781  0.0475 -0.3584
 4288W        W22492   8.700   9.883   1.346 -0.1888  0.0020  0.1227
 4289W        W22493  16.578   4.774   3.132 -0.1261  0.1369 -0.1935
 4290W        W22494   4.247   4.303  13.585 -0.4153  0.4490 -0.3045
 4291W        W22495   3.133  17.517  13.667 -0.0850 -0.0934 -0.2556
 4292W        W22496  12.223   7.029   2.556 -0.0292  0.3054 -0.3246
 4293W        W22497   1.846  17.660   3.712 -0.5047  0.1062  0.1297
 4294W        W22498   8.400   4.788  11.704  0.0084 -0.0264  0.0973
 4295W        W22499  10.798  14.110   0.231  0.1967  0.0672  0.1667
 4296W        W22500   8.771  10.497  15.360  0.2928  0.2743  0.0995
 4297W        W22501   9.853  13.549  13.792  0.2732 -0.4576  0.0454
 4298W        W22502   4.243  11.622  14.729  0.0892  0.0144 -0.2557
 4299W        W22503  11.705  14.854   5.800 -0.1108  0.1624 -0.0031
 4300W        W22504  15.616  13.282   1.653 -0.2412 -0.2508 -0.1109
 4301W        W22505   2.137   7.347  14.736 -0.2407  0.1806 -0.0958
 4302W        W22506   1.064   5.327   9.918 -0.0715 -0.0662  0.1244
 4303W        W22507  16.123   8.558   2.694 -0.0263 -0.0307  0.1396
 4304W        W22508   6.449  14.887  12.674  0.3761  0.0127  0.0208
 4305W        W22509  14.818   0.796   3.578 -0.1686 -0.0107 -0.0007
 4306W        W22510  11.081   1.824   1.965 -0.0420 -0.0088  0.1474
 4307W        W22511  18.608   5.299  11.983  0.3258  0.1664 -0.0507
 4308W        W22512  17.465  18.070   1.199 -0.2696  0.3413 -0.0248
 4309W        W22513   7.716  16.701   1.429  0.1229 -0.1866 -0.0394
 4310W        W22514   9.461   1.299   1.357  0.2071 -0.0247 -0.0379
 4311W        W22515  11.348   2.376  11.318 -0.4042  0.0106 -0.3749
 4312W        W22516  18.205   1.655  10.853 -0.0482 -0.3898 -0.1927
 4313W        W22517  13.720   9.549  14.134 -0.0305  0.1185  0.0544
 4314W        W22518   1.351  16.210   0.930 -0.2180 -0.3238 -0.1937
 4315W        W22519   6.470   5.509   3.838  0.0836  0.0799  0.1176
 4316W        W22520  16.018   2.430   3.489  0.2682  0.0554 -0.1927
 4317W        W22521   9.353   6.506   5.128  0.0579  0.2021  0.0163
 4318W        W22522  18.230   1.918   1.961  0.1565  0.0980  0.0347
 4319W        W22523   1.354   1.824   4.023  0.2902  0.1749  0.0096
 4320W        W22524   0.477   0.056  13.069 -0.1681 -0.0898 -0.3591
 4321W        W22525   8.370   8.643  12.727  0.2672  0.0074  0.0741
 4322W        W22526   2.630   7.784   1.265  0.3916  0.0330  0.0066
 4323W        W22527  12.727  15.272   3.345 -0.0976  0.2019 -0.1686
 4324W        W22528  16.216  16.424   1.871  0.2746 -0.1757 -0.1277
 4325W        W22529   4.825  10.535  14.550  0.0361 -0.2570 -0.3630
 4326W        W22530   2.761  12.542   3.125  0.1134 -0.1467 -0.0056
 4327W        W22531   7.667   5.512  11.061  0.0654  0.1066  0.4870
 4328W        W22532  16.381   1.842  13.809  0.0836  0.0500 -0.1494
 4329W        W22533   5.128   0.503   4.565  0.2063  0.0402 -0.1157
 4330W        W22534   5.462   2.411  14.351  0.1532  0.2749  0.3308
 4331W        W22535   2.168   3.631  11.687 -0.0623 -0.1476  0.2025
 4332W        W22536  15.276   5.612  12.872 -0.1042 -0.1223  0.2410
 4333W        W22537  12.985  12.365  11.742  0.2796  0.1829 -0.3642
 4334W        W22538  18.028  10.669  13.611  0.1516  0.1362  0.1609
 4335W        W22539  15.129   5.895   4.368 -0.3346  0.1787 -0.2567
 4336W        W22540   0.069  11.992   4.222  0.0310  0.0589 -0.0440
 4337W        W22541  11.157  16.493   1.826  0.2745  0.0718 -0.4222
 4338W        W22542  14.842  18.342  11.310 -0.0618  0.1132 -0.1516
 4339W        W22543   0.335   4.369  14.703 -0.0549 -0.1504  0.2922
 4340W        W22544   1.734  13.746   2.559 -0.1019  0.0576 -0.0475
 4341W        W22545   9.545   8.709   2.910  0.0163  0.1849  0.1119
 4342W        W22546  12.665  10.675  14.731  0.0312 -0.3370 -0.0411
 4343W        W22547  11.679   1.118   0.558 -0.0657 -0.1238  0.1175
 4344W        W22548   1.375  12.705  11.816 -0.2553 -0.0680  0.2269
 4345W        W22549   8.568   9.150   0.939 -0.1423  0.0306 -0.0850
 4346W        W22550   8.537  13.627   3.434  0.2751  0.2227  0.0128
 4347W        W22551  17.776   6.918   2.995  0.2125 -0.0794  0.0413
 4348W        W22552  18.170  15.008  14.205 -0.1470 -0.1525  0.0533
 4349W        W22553   9.678  11.353  14.052  0.1747  0.2955  0.1435
 4350W        W22554  10.357   1.668  13.538  0.0427  0.3951 -0.0194
 4351W        W22555  18.054  15.206   2.803  0.2029  0.4214  0.0654
 4352W        W22556   8.784   0.081   3.105  0.0659 -0.2283 -0.0173
 4353W        W22557   0.119   9.892   3.055  0.1165  0.5467 -0.1008
 4354W        W22558  16.100  17.626   0.443 -0.0332 -0.2592 -0.3414
 4355W        W22559   2.373  17.062   2.566  0.0059 -0.3132  0.4355
 4356W        W22560  11.762   3.287   1.130  0.0370 -0.0044  0.0614
 4357W        W22561   2.561   4.350   4.744  0.0610  0.2934  0.0699
 4358W        W22562   7.829   7.471  10.970 -0.1373 -0.0279  0.0572
 4359W        W22563   4.633  16.560   2.321 -0.0943 -0.1663  0.0433
 4360W        W22564  15.031  11.946  12.278 -0.2099  0.0650  0.2541
 4361W        W22565   0.139   8.257   2.297 -0.2698 -0.2529  0.0101
 4362W        W22566  17.770  14.766  11.809  0.0741 -0.0265  0.1526
 4363W        W22567   2.880  11.869   1.615 -0.1699 -0.0622  0.1390
 4364W        W22568  13.754   9.908  12.421 -0.0969 -0.1293 -0.1068
 4365W        W22569   8.199  11.328  15.007  0.3212 -0.1295  0.1737
 4366W        W22570   8.178   5.398  15.237 -0.0771 -0.0773 -0.2455
 4367W        W22571  14.353  14.306  14.767  0.2146  0.0118 -0.0131
 4368W        W22572  13.274   7.267   0.175  0.0737 -0.1589  0.1256
 4369W        W22573   4.762  17.151  11.877 -0.0040 -0.0737  0.0093
 4370W        W22574   3.959  12.737   1.382  0.0751 -0.2016  0.2210
 4371W        W22575  18.314  16.762   4.912  0.0503 -0.0205  0.2104
 4372W        W22576  10.587  16.650  13.409  0.1106 -0.0394  0.2056
 4373W        W22577  17.050   6.947  13.079 -0.1501 -0.0154 -0.2629
 4374W        W22578  12.741   6.706   4.016  0.0560  0.1737 -0.0667
 4375W        W22579   0.667   6.491   4.418 -0.0202  0.1368  0.2810
 4376W        W22580   5.636   7.093  14.185 -0.0464  0.1164 -0.0896
 4377W        W22581   1.770  14.559  11.370 -0.1694 -0.2241  0.0896
 4378W        W22582  11.169   9.250  14.700 -0.0815 -0.0851  0.2160
 4379W        W22583  14.256   7.004  10.707  0.3900  0.1612  0.0017
 4380W        W22584  16.481   3.731  13.007  0.2348 -0.3930  0.2896
 4381W        W22585   5.216   8.188  10.431 -0.1608 -0.1717 -0.2286
 4382W        W22586   0.534  13.418  12.159  0.1506 -0.1014 -0.4098
 4383W        W22587  11.057   2.516   0.658 -0.2080  0.1980  0.0389
 4384W        W22588  11.349   8.368  14.317 -0.1264  0.2832 -0.1626
 4385W        W22589   9.642   0.448   5.353  0.2177 -0.2421 -0.0321
 4386W        W22590  11.622   8.268   1.885  0.1145  0.2071  0.0407
 4387W        W22591   1.267  15.837  14.476 -0.2518  0.3917 -0.2736
 4388W        W22592  11.092   1.635   3.347  0.0634  0.2872  0.0044
 4389W        W22593   5.701  12.137  10.945 -0.1792  0.2026  0.3479
 4390W        W22594   9.297  14.279   1.692 -0.0535  0.0960 -0.0715
 4391W        W22595   5.449   1.724   1.910  0.1514  0.3115 -0.0633
 4392W        W22596  15.851  14.616   3.720  0.1193  0.2060 -0.3327
 4393W        W22597   1.573  15.510  14.209  0.1099  0.2501  0.0705
 4394W        W22598  11.407   6.808   4.102  0.2122  0.0525  0.1208
 4395W        W22599   2.850   0.886  10.158  0.2265  0.1979  0.1885
 4396W        W22600  17.806  12.918   4.487  0.2879 -0.4217 -0.1640
 4397W        W22601  18.143   6.687   3.767 -0.0144 -0.3060  0.0056
 4398W        W22602   8.845  16.382  13.365  0.0226 -0.3728  0.3475
 4399W        W22603   5.871  15.748   0.896 -0.2987 -0.0065  0.0346
 4400W        W22604   5.135   7.565   1.265  0.2990  0.1834 -0.1381
 4401W        W22605  16.308   9.904  13.457 -0.0363  0.0269 -0.0365
 4402W        W22606  16.711  10.062  13.708  0.1181 -0.0577  0.1411
 4403W        W22607  13.546  11.851  14.750  0.0413 -0.1304 -0.0438
 4404W        W22608   5.242  10.204  13.730 -0.0338  0.1386  0.0730
 4405W        W22609  17.796   7.678   3.094 -0.0711 -0.1406  0.3975
 4406W        W22610   5.500  13.986   0.539  0.0940 -0.2726  0.0762
 4407W        W22611  12.886  18.082   3.293  0.1476 -0.1965  0.0455
 4408W        W22612   2.917   3.910  12.484  0.0626 -0.1545  0.0282
 4409W        W22613   7.470  15.077   1.882  0.1585  0.1647 -0.0835
 4410W        W22614  12.602  11.025  10.702  0.0927 -0.0529  0.1234
 4411W        W22615  13.594  17.305   2.972 -0.0859 -0.2480 -0.1841
 4412W        W22616  15.904   1.884  14.539 -0.1102 -0.1608 -0.0961
 4413W        W22617  15.738   3.606  14.469 -0.2211 -0.1390 -0.2224
 4414W        W22618  16.690  10.933  12.180 -0.2708  0.0024 -0.0680
 4415W        W22619   4.116   6.357   4.133 -0.1997  0.0040  0.1057
 4416W        W22620  10.605   2.087   3.419 -0.0346  0.2834  0.1392
 4417W        W22621   3.708   6.459  10.863 -0.0629  0.0319  0.1926
 4418W        W22622   8.377  16.774   0.738 -0.0917 -0.1612 -0.0654
 4419W        W22623   9.280  17.576   5.512 -0.1191  0.0534 -0.1321
 4420W        W22624  13.806   8.391   1.945 -0.1445 -0.0691 -0.0767
 4421W        W22625   0.188  11.007   4.697 -0.3967  0.0736  0.1074
 4422W        W22626  15.495  15.980   2.318 -0.0057  0.2316 -0.0351
 4423W        W22627   0.015  14.741   1.043 -0.2397 -0.1538  0.1060
 4424W        W22628  17.804   6.130   3.089  0.2875 -0.0268 -0.0269
 4425W        W22629   1.097  17.056  12.172 -0.0663 -0.1954  0.1797
 4426W        W22630  14.756   8.716  13.895  0.2837  0.0450 -0.0595
 4427W        W22631  18.324  12.804  12.238  0.0373 -0.1796  0.0454
 4428W        W22632   7.405   2.987   4.612 -0.0366 -0.2157 -0.1353
 4429W        W22633   8.513   9.341  10.946 -0.2634  0.1728  0.2954
 4430W        W22634  10.652  10.954   1.880 -0.0873  0.2926 -0.0400
 4431W        W22635   7.306   1.463   3.849 -0.2814 -0.1418  0.1745
 4432W        W22636   7.325   1.649  15.433 -0.1800 -0.1806  0.2512
 4433W        W22637   6.701   9.603   2.333 -0.1700  0.0721 -0.2799
 4434W        W22638  18.152  11.295  12.867 -0.3036  0.1686 -0.1487
 4435W        W22639   4.401  17.675   1.472 -0.1632  0.0063  0.0254
 4436W        W22640  13.540   9.045  12.634 -0.1322 -0.1607 -0.0940
 4437W        W22641  17.850   0.574  13.217 -0.0768  0.4631 -0.0223
 4438W        W22642   4.975  14.057  11.843 -0.1999 -0.0401  0.1032
 4439W        W22643   0.999  16.645   3.728  0.0137 -0.2234  0.1748
 4440W        W22644   0.577   7.328  13.819 -0.0787 -0.0114  0.0017
 4441W        W22645  13.066   1.321  11.220 -0.0580  0.0479  0.0572
 4442W        W22646  13.140   7.748  10.927 -0.2803  0.0480  0.0955
 4443W        W22647  11.950  16.630  12.879 -0.3968  0.0770  0.4662
 4444W        W22648   6.073  12.098   0.633 -0.0078 -0.3246  0.2919
 4445W        W22649  15.789   9.480   2.762 -0.0881  0.0610 -0.4082
 4446W        W22650   7.568   8.469  13.824  0.1343 -0.3154 -0.4864
 4447W        W22651  13.490   9.469  10.736 -0.1922  0.0868 -0.0546
 4448W        W22652   5.194   9.146  11.660 -0.0893 -0.1887 -0.0574
 4449W        W22653   7.002   7.181   1.336 -0.1812 -0.2548  0.1425
 4450W        W22654   9.572   8.228   1.474  0.1800  0.0682  0.5660
 4451W        W22655   6.045   6.221  15.041  0.0368  0.1242 -0.0630
 4452W        W22656  16.595  14.599  11.997  0.0271 -0.0817  0.2281
 4453W        W22657   7.835  11.610  11.308  0.1648  0.2048 -0.0551
 4454W        W22658  12.908   2.174  11.114 -0.0074 -0.0788  0.1501
 4455W        W22659   8.545   1.470  12.930 -0.2435  0.2016 -0.3303
 4456W        W22660  11.348  13.297  11.446  0.1613  0.1957 -0.1243
 4457W        W22661  15.110  13.471   0.052  0.1722 -0.1958  0.2002
 4458W        W22662  11.913   0.533   3.166 -0.0030  0.2728  0.2319
 4459W        W22663  12.691   8.663   3.643  0.0382 -0.2081 -0.0529
 4460W        W22664   7.381  13.091   2.825  0.1271 -0.0670 -0.1535
 4461W        W22665  17.379   2.772   5.467 -0.3228 -0.2110 -0.0546
 4462W        W22666   5.490  12.541  11.393  0.2242  0.2966 -0.0666
 4463W        W22667   4.286   3.514   3.184  0.1290  0.0299  0.2495
 4464W        W22668   9.315   1.048  14.513  0.6173  0.0485  0.1478
 4465W        W22669   3.796   5.162  15.174 -0.2570 -0.0133  0.3576
 4466W        W22670   8.552  14.506   1.390  0.2766  0.1097 -0.3961
 4467W        W22671  15.404   7.259   1.869 -0.1934 -0.0545 -0.0374
 4468W        W22672   5.814   8.467  12.150  0.1152 -0.3971 -0.0273
 4469W        W22673  15.409   9.917  14.636  0.1165 -0.0685 -0.2591
 4470W        W22674  14.695  16.955  14.189  0.1159 -0.2162  0.0946
 4471W        W22675   1.111   7.595  11.779  0.0334  0.0828 -0.1430
 4472W        W22676  15.629   8.633   2.526  0.4326 -0.3177  0.0568
 4473W        W22677   3.618   2.846  13.557 -0.1053 -0.1435 -0.3903
 4474W        W22678   0.678  17.483   1.238 -0.0002  0.4460 -0.2966
 4475W        W22679  14.531   9.676  11.950  0.0607  0.1511 -0.2435
 4476W        W22680  17.776  12.711   1.365 -0.1299 -0.0967 -0.0590
 4477W        W22681  17.522   6.656  12.914  0.2999 -0.3869 -0.0750
 4478W        W22682  11.499  13.534  14.099  0.1630 -0.2111 -0.1468
 4479W        W22683   9.157   3.879  15.012 -0.0419  0.1387 -0.0765
 4480W        W22684  13.319  14.575   2.901 -0.3931  0.0087  0.1467
 4481W        W22685   5.148  12.052  13.939  0.1570  0.0278 -0.1066
 4482W        W22686  17.017   0.813   0.317  0.2708  0.0700 -0.1289
 4483W        W22687   5.385  12.616   1.195 -0.0457  0.1794 -0.0587
 4484W        W22688   2.320   2.049   1.356 -0.1168  0.3296 -0.1363
 4485W        W22689   1.238   7.014  12.996 -0.0868  0.1369 -0.1351
 4486W        W22690  12.170  15.965  13.616  0.1477 -0.0755 -0.2679
 4487W        W22691   8.140  17.990   2.788 -0.0274  0.2933 -0.0473
 4488W        W22692  16.906  10.118   4.865 -0.0898  0.2334  0.2104
 4489W        W22693   8.926   7.418  12.007 -0.2352 -0.1965  0.0126
 4490W        W22694  15.544  11.626  12.675  0.1734 -0.0135 -0.0777
 4491W        W22695  12.222  14.726   2.172 -0.1201  0.0937 -0.4569
 4492W        W22696  18.056  13.528   0.912  0.1575  0.0106 -0.2293
 4493W        W22697  14.103  11.642  13.596  0.3425 -0.1290 -0.0771
 4494W        W22698  11.781   2.252   3.751 -0.4113  0.0141  0.1318
 4495W        W22699  17.524   9.502   3.417  0.2092 -0.1933  0.1124
 4496W        W22700   1.897  11.199  11.111 -0.0145  0.1373  0.1323
 4497W        W22701  11.359   3.565  14.094 -0.1798  0.0572 -0.1445
 4498W        W22702   2.797  16.867   1.690 -0.1269 -0.0507  0.1226
 4499W        W22703   7.206  17.242   0.637  0.3691 -0.0044 -0.0473
 4500W        W22704  10.796   0.507   4.582 -0.0028  0.0760  0.1580
 4501W        W22705  15.655  14.781   3.316  0.1781  0.0338 -0.3851
 4502W        W22706  13.634  10.414  12.188  0.0124 -0.1837 -0.0820
 4503W        W22707  14.812   4.665  15.370 -0.1588  0.2231 -0.2582
 4504W        W22708  18.397   3.642   0.359 -0.0646  0.2784  0.3029
 4505W        W22709  17.032  16.006   2.846  0.4494 -0.0065  0.0908
 4506W        W22710  15.321   0.092   3.729  0.2675  0.2774  0.0185
 4507W        W22711   0.621   9.542  13.875 -0.1500 -0.1514  0.1015
 4508W        W22712   4.420   7.975   0.026  0.0695  0.1706 -0.4258
 4509W        W22713   9.079   2.927   3.754  0.2492  0.0286  0.0826
 4510W        W22714  12.588   0.224  12.228 -0.4473 -0.0297 -0.0366
 4511W        W22715  11.548  11.043   3.807  0.2479  0.3541 -0.2003
 4512W        W22716  11.159  10.533   4.216 -0.0514  0.2754  0.0162
 4513W        W22717  10.586   9.956   4.355  0.0621 -0.1764 -0.2200
 4514W        W22718   7.152   1.292   1.358 -0.1099  0.1101  0.0114
 4515W        W22719  13.362   0.804   2.140  0.0474 -0.1193  0.1681
 4516W        W22720   4.415  17.624  13.696  0.2667 -0.0455  0.0491
 4517W        W22721  16.268   9.860  12.401  0.1574  0.0600  0.1782
 4518W        W22722  16.033  10.360  12.637 -0.2232 -0.0614  0.2986
 4519W        W22723  11.165  11.651  13.524  0.1075 -0.1115  0.0374
 4520W        W22724  16.932   6.709   3.020  0.2637 -0.0898 -0.2462
 4521W        W22725   7.228   4.360   1.937  0.1063 -0.2720 -0.2390
 4522W        W22726  18.295  12.892  14.967  0.3073 -0.1114 -0.1070
 4523W        W22727  16.561  14.927  13.074  0.1139 -0.2095 -0.0269
 4524W        W22728   7.992   5.404  13.610  0.1558  0.0527 -0.1231
 4525W        W22729   6.998   3.821   1.245  0.0767  0.0192 -0.4587
 4526W        W22730   4.613   0.663  12.803  0.0455  0.3597  0.1108
 4527W        W22731   4.950  10.013   1.698  0.0586 -0.2211 -0.2271
 4528W        W22732   4.327   9.696  11.265 -0.1249  0.0597  0.0187
 4529W        W22733   4.447   9.152  11.548  0.1690  0.2685  0.4078
 4530W        W22734  11.589  17.470  10.860  0.0731 -0.2584  0.0431
 4531W        W22735  16.859  16.594  13.826  0.1500 -0.2347  0.1829
 4532W        W22736   5.655   0.539   0.425  0.1144 -0.0481  0.0109
 4533W        W22737   6.742   4.286   2.099 -0.0122 -0.3003 -0.0255
 4534W        W22738   4.319  18.310  14.906 -0.3958  0.2048 -0.0433
 4535W        W22739  11.689   3.825   3.196 -0.0639 -0.0473  0.1101
 4536W        W22740   1.605   4.057   4.729 -0.1882  0.0280 -0.3328
 4537W        W22741   1.414   8.864   0.845 -0.4345 -0.3127 -0.0530
 4538W        W22742   8.360  13.318  13.026 -0.4466 -0.2966  0.0291
 4539W        W22743  15.189  14.026   4.450 -0.0679 -0.1061 -0.1218
 4540W        W22744  11.340   2.153  14.943 -0.1907  0.3846 -0.1747
 4541W        W22745   9.279  15.289  12.094 -0.0614  0.1545 -0.0477
 4542W        W22746  12.286  11.285  12.119 -0.2928  0.1639  0.0507
 4543W        W22747  16.251   6.197   2.671 -0.2013 -0.0978 -0.0911
 4544W        W22748   1.128   7.994   2.794  0.0495 -0.0042 -0.0872
 4545W        W22749  11.479   1.892   0.028 -0.2260  0.1807  0.3108
 4546W        W22750   2.185  14.362   2.194  0.2998 -0.0725  0.0021
 4547W        W22751   2.941   9.817  11.183  0.0208  0.2467  0.2033
 4548W        W22752  12.689   5.409  13.281  0.3677 -0.1243  0.4643
 4549W        W22753   9.900  17.861   3.354 -0.0646  0.0216 -0.2162
 4550W        W22754   3.462   3.821   0.189  0.0945 -0.2253  0.1614
 4551W        W22755  17.653  13.202   2.461 -0.0323 -0.0236 -0.1567
 4552W        W22756   8.827  10.941   0.794 -0.0633 -0.2635  0.1324
 4553W        W22757   3.403  17.092  12.821  0.4177  0.2098 -0.0556
 4554W        W22758  16.751   2.025   5.012 -0.0846  0.0050 -0.0536
 4555W        W22759  11.353   9.106   2.141  0.0146 -0.0520  0.0144
 4556W        W22760   3.883  13.869   2.055 -0.1581 -0.1662 -0.2979
 4557W        W22761  12.461   9.704   5.206 -0.2188 -0.3327  0.0982
 4558W        W22762   2.636   7.710   3.259 -0.2516 -0.3076  0.0565
 4559W        W22763  13.401  17.692   2.115  0.1531 -0.0622  0.0725
 4560W        W22764  15.613  13.951  14.685 -0.5304  0.1841  0.0489
 4561W        W22765  18.185  13.485  15.002  0.2301 -0.0008 -0.0821
 4562W        W22766  10.437  10.180   3.873  0.3230 -0.1225  0.5075
 4563W        W22767  14.707  10.467   3.555 -0.1191 -0.3406  0.3680
 4564W        W22768   5.701   1.070  10.868  0.3052  0.1117  0.2752
 4565W        W22769   3.714   5.000   4.002 -0.1796 -0.2937  0.0796
 4566W        W22770   1.217   3.387   2.203  0.2135  0.0680 -0.0601
 4567W        W22771  14.856   6.299  10.416 -0.0688  0.1948  0.1840
 4568W        W22772  11.820   9.480  13.788  0.0898 -0.1406 -0.1112
 4569W        W22773   9.661  10.131   1.587 -0.0063  0.2635  0.0125
 4570W        W22774  16.199  12.634  12.056  0.1016 -0.0949  0.1843
 4571W        W22775  13.765  16.923   2.168 -0.1764  0.1318 -0.1365
 4572W        W22776   6.872   7.475   0.815  0.0733 -0.4488 -0.2160
 4573W        W22777   9.800  15.961   3.311  0.0445  0.0307  0.4022
 4574W        W22778   3.461  15.462  13.986  0.0209  0.1819  0.1432
 4575W        W22779   7.794  17.831   4.709  0.1286 -0.1744 -0.1117
 4576W        W22780   2.492   6.126   2.872  0.1038  0.1982 -0.1582
 4577W        W22781  12.221  10.238   0.831 -0.1174  0.1837  0.0007
 4578W        W22782   2.033   3.892   1.324  0.1226  0.0599 -0.4693
 4579W        W22783  17.831  13.890  12.908  0.0152 -0.0959  0.2562
 4580W        W22784   3.656  15.016   0.629  0.0802 -0.3576 -0.1451
 4581W        W22785  17.657   8.138   2.249  0.1127  0.1199 -0.1805
 4582W        W22786   2.057   8.296   0.976 -0.0025 -0.0904 -0.3670
 4583W        W22787   7.685  11.350  12.105 -0.2510 -0.2614  0.0601
 4584W        W22788   4.393  10.293  14.589  0.0613 -0.1943 -0.2836
 4585W        W22789   6.069   0.440  14.537 -0.1228 -0.1516 -0.1181
 4586W        W22790  13.949   1.579  11.719 -0.0769 -0.2606 -0.1118
 4587W        W22791  10.398  14.001   0.513 -0.0938 -0.3174 -0.2653
 4588W        W22792  15.785   9.492   0.312  0.2909  0.3318 -0.0262
 4589W        W22793  16.543   5.460   0.942 -0.1847 -0.1381  0.1567
 4590W        W22794  11.705  17.494  11.721  0.0389 -0.0163 -0.0610
 4591W        W22795  13.392   6.802  12.076 -0.5104 -0.2722  0.0058
 4592W        W22796   6.246  18.547  13.460  0.0578 -0.1425 -0.0128
 4593W        W22797   8.978  10.793   4.316 -0.0918  0.0110  0.0521
 4594W        W22798  18.047   3.046  11.709 -0.2472  0.1673  0.0475
 4595W        W22799  12.278   2.046   3.591  0.0959  0.0181  0.3316
 4596W        W22800   2.624   9.089   3.294 -0.1336 -0.1793 -0.2948
 4597W        W22801  10.594  15.517  15.294 -0.1091 -0.2021  0.0810
 4598W        W22802  14.588   5.403   3.201  0.0187  0.1534  0.0940
 4599W        W22803   3.799   7.463  11.695  0.0421  0.0548 -0.2491
 4600W        W22804   4.135   1.418  10.368  0.1172  0.1390 -0.0829
 4601W        W22805   2.600   6.141  11.211  0.1587  0.0551  0.4339
 4602W        W22806  14.668  11.237   3.819  0.3903  0.1204  0.3379
 4603W        W22807   0.180  14.142  15.345  0.0922  0.2830 -0.0337
 4604W        W22808   9.720  13.218   2.266 -0.4460 -0.0094 -0.1295
 4605W        W22809  17.880   2.659  13.150  0.2174 -0.3125 -0.2894
 4606W        W22810   9.758  16.372   0.851  0.0477 -0.0733 -0.2300
 4607W        W22811   7.486  15.697  11.916 -0.0288  0.0745  0.2317
 4608W        W22812   6.561   4.168  10.827  0.1967 -0.0387 -0.1502
 4609W        W22813  16.125   0.636   1.184  0.0609 -0.1421 -0.2569
 4610W        W22814  17.035  11.294   3.273 -0.0779 -0.2463  0.0511
 4611W        W22815  16.862   9.495  15.055 -0.2555  0.0588  0.0428
 4612W        W22816   0.323   6.534  14.596  0.1716  0.0695 -0.0916
 4613W        W22817   1.942   2.009  14.121  0.1044 -0.1698 -0.0043
 4614W        W22818   0.074  11.026  10.084  0.1706  0.0444 -0.2731
 4615W        W22819   7.031   7.097  10.455 -0.0260 -0.2278  0.0551
 4616W        W22820   0.310   7.209   1.413 -0.0838  0.0012 -0.0498
 4617W        W22821   5.460   9.266  13.324  0.0835 -0.0363  0.1610
 4618W        W22822  13.767  14.734  12.363  0.0955 -0.1209  0.1256
 4619W        W22823  10.647   3.664   1.402  0.1813 -0.1044 -0.1013
 4620W        W22824   9.151   9.662   2.189 -0.1491  0.0620  0.0307
 4621W        W22825  14.722   7.646   4.169 -0.1621  0.0447  0.0389
 4622W        W22826   0.515   1.462   2.511  0.2164 -0.1374  0.0293
 4623W        W22827  15.820   0.239   3.478  0.1565 -0.0568  0.5720
 4624W        W22828  14.435   5.392  11.556  0.1697 -0.0920  0.0907
 4625W        W22829   5.708   9.677  14.407 -0.3493 -0.1218  0.1822
 4626W        W22830  16.491  16.677  14.248  0.1604  0.0185 -0.3070
 4627W        W22831  15.618  12.094   3.424 -0.0198  0.1404 -0.2223
 4628W        W22832  15.200   2.561   1.316 -0.1859 -0.0185 -0.1099
 4629W        W22833  13.006  17.972  13.816  0.0569 -0.2808  0.0566
 4630W        W22834   9.733   2.322   3.471 -0.1451 -0.2200 -0.2006
 4631W        W22835   9.682  11.382  11.092  0.2761 -0.1109  0.0455
 4632W        W22836   1.438   6.548  14.589 -0.3468 -0.2459  0.0626
 4633W        W22837  13.171   0.634   4.281 -0.3962  0.0242  0.0289
 4634W        W22838   3.908  10.889  14.484  0.2212 -0.6012 -0.0532
 4635W        W22839   0.841  13.291   2.706  0.0042  0.0498  0.1700
 4636W        W22840  14.756   9.634   0.219  0.2230 -0.0210  0.0441
 4637W        W22841  13.230   5.257   3.082  0.0483  0.1120  0.2302
 4638W        W22842   4.355   8.739   3.832  0.3479  0.0807 -0.0870
 4639W        W22843   2.238  12.252   4.146 -0.0000  0.3089  0.0262
 4640W        W22844  11.079  18.497  12.517  0.1708  0.4211 -0.1156
 4641W        W22845  14.985   0.008  12.401  0.2021 -0.0080  0.0837
 4642W        W22846  14.283  13.614   1.217  0.0459  0.0359  0.2844
 4643W        W22847   8.905  10.168  11.363  0.0705  0.3054 -0.0345
 4644W        W22848   7.755   7.660   0.597  0.0717  0.0611  0.0471
 4645W        W22849  18.334  12.662  12.845  0.0890 -0.0343 -0.2873
 4646W        W22850   4.466   8.843  12.489  0.1300  0.1494  0.0239
 4647W        W22851   9.911  15.044  13.871  0.0925  0.1631 -0.0765
 4648W        W22852   9.948   4.526   1.577  0.0087  0.1664  0.0980
 4649W        W22853   3.492   2.136   2.638 -0.0470  0.0318 -0.0455
 4650W        W22854  11.427   9.509   3.348  0.0422 -0.0089 -0.2933
 4651W        W22855   1.752   4.760  14.801  0.0730 -0.2046 -0.0338
 4652W        W22856   3.952   4.725   2.593 -0.2667 -0.1275 -0.1141
 4653W        W22857   6.815  17.346   2.183 -0.0843 -0.2952 -0.0374
 4654W        W22858   8.658  17.900   3.077 -0.1658 -0.1047  0.0307
 4655W        W22859  15.683  16.170  13.304 -0.0147  0.3224  0.3037
 4656W        W22860  10.563   9.129   2.438 -0.0847 -0.3019  0.2198
 4657W        W22861   2.894   0.221  14.040  0.0874 -0.0139 -0.2776
 4658W        W22862   5.448   0.925   1.730 -0.3057  0.1103  0.1039
 4659W        W22863   8.119  14.552   2.604 -0.0791  0.0255 -0.4056
 4660W        W22864   2.605   9.455  14.930 -0.3070  0.3199 -0.0640
 4661W        W22865   4.422  12.224  12.880 -0.2341 -0.1137  0.2102
 4662W        W22866  16.226  14.955   3.710 -0.1091  0.2187  0.3268
 4663W        W22867   4.466   1.359   3.148  0.2809  0.1552 -0.0590
 4664W        W22868   3.683  17.748   0.923  0.0411 -0.0724 -0.0578
 4665W        W22869   5.579   4.684  13.242  0.1913 -0.0916  0.2501
 4666W        W22870  12.184  17.794  11.614 -0.0910  0.0687 -0.0019
 4667W        W22871  18.313   3.175   2.764 -0.5640 -0.1874 -0.1770
 4668W        W22872  18.537  18.102   4.943 -0.1837 -0.0969 -0.1486
 4669W        W22873  13.258   9.766  12.595  0.0129  0.0265 -0.2151
 4670W        W22874  15.219   2.566   4.070 -0.2950  0.0170  0.3002
 4671W        W22875   9.395   6.980  12.487  0.2428  0.0572  0.1467
 4672W        W22876   7.014   9.146  13.078  0.0629  0.4419  0.1442
 4673W        W22877   1.129   0.368   3.084  0.1902  0.1309  0.0920
 4674W        W22878  18.030   4.741   0.420  0.2478 -0.0284 -0.3995
 4675W        W22879   0.059  14.046   4.631 -0.0573  0.0642 -0.1304
 4676W        W22880   8.273  10.596  11.762 -0.3210 -0.1826  0.0268
 4677W        W22881  12.079  17.076  11.242 -0.0524  0.0605  0.0912
 4678W        W22882   7.073   1.920   1.412 -0.1513  0.1602  0.0049
 4679W        W22883   5.644  14.781  14.701 -0.1841  0.1194 -0.0103
 4680W        W22884  10.042   4.487  15.231 -0.3156 -0.0821  0.0460
 4681W        W22885  18.352  15.792   0.339 -0.2421  0.3192  0.1557
 4682W        W22886  11.773  10.700  14.011  0.1327 -0.0848  0.2290
 4683W        W22887   0.837   0.113   2.653  0.1657  0.4322  0.0455
 4684W        W22888  17.910  15.007   3.985 -0.2023 -0.0305  0.1403
 4685W        W22889   2.837   0.698   3.805 -0.1519  0.2129  0.3512
 4686W        W22890  14.905   7.857  11.842 -0.1526  0.0456 -0.0732
 4687W        W22891   5.488  10.830   4.783 -0.3379  0.1044 -0.1407
 4688W        W22892  17.927   1.317  12.684 -0.1360  0.0849  0.0730
 4689W        W22893   2.736  10.450  14.186 -0.1613 -0.0321  0.4194
 4690W        W22894  12.628   2.796   0.009 -0.2723 -0.0908 -0.0764
 4691W        W22895   8.022  12.311  13.903  0.3529  0.1141  0.0015
 4692W        W22896   7.964   7.460  14.845 -0.1189  0.0504 -0.0887
 4693W        W22897  10.675   7.419  13.581 -0.1493 -0.1995  0.2232
 4694W        W22898   2.968   0.903   0.926  0.1023 -0.2906  0.1269
 4695W        W22899   6.682  16.902   3.524  0.1465 -0.0735  0.1159
 4696W        W22900   7.006   0.111   1.814 -0.3517 -0.1905 -0.1223
 4697W        W22901   7.231  13.961  12.245 -0.0721 -0.1506 -0.0411
 4698W        W22902   0.097  13.795   2.533  0.0807  0.0932  0.2354
 4699W        W22903  13.433   2.018   4.426 -0.2275  0.0639  0.1446
 4700W        W22904   7.785  13.367   2.969 -0.4591 -0.4015 -0.0379
 4701W        W22905  14.424   4.928   2.034 -0.0462  0.0267  0.0029
 4702W        W22906   7.921   5.765  13.294 -0.0681  0.1625 -0.0402
 4703W        W22907  13.572  10.419   2.959  0.1070 -0.3652 -0.2362
 4704W        W22908  10.167   9.971   3.454 -0.0792 -0.0935  0.0319
 4705W        W22909   9.920  18.164   4.233  0.3153  0.0448  0.1788
 4706W        W22910  10.772  13.546  14.517 -0.2513 -0.0704 -0.0690
 4707W        W22911  14.700  11.418   3.263  0.0924 -0.0952  0.1595
 4708W        W22912  11.129   4.393   3.885 -0.1606  0.1103  0.0464
 4709W        W22913   2.516  13.514  11.603  0.0257 -0.0921  0.2175
 4710W        W22914  14.856   3.684  13.812  0.1741 -0.1103  0.0344
 4711W        W22915   2.737   5.959  15.049 -0.0639 -0.0913 -0.2172
 4712W        W22916  10.621  12.002  12.651 -0.0906 -0.0194 -0.4107
 4713W        W22917   3.012  17.442  13.168 -0.0757 -0.1389  0.2991
 4714W        W22918  11.747  12.381   2.828 -0.3360  0.2142 -0.1762
 4715W        W22919   8.933   6.606   1.484 -0.0790 -0.1557 -0.0804
 4716W        W22920  11.723   4.489   0.922 -0.2814  0.0239  0.0522
 4717W        W22921  13.945   8.973   0.385 -0.1680 -0.0191  0.1747
 4718W        W22922   7.143   6.206  14.312 -0.2754 -0.0271  0.1141
 4719W        W22923   8.681  15.815  13.694 -0.0384 -0.0317  0.0423
 4720W        W22924   1.435   5.410   0.441 -0.1714  0.2584 -0.0789
 4721W        W22925   5.169   9.174   3.988 -0.0101 -0.1552 -0.0658
 4722W        W22926  11.299  16.942  10.226 -0.0341 -0.0695 -0.1321
 4723W        W22927   5.635   2.151   2.133  0.3405  0.1070 -0.1011
 4724W        W22928  17.185   0.795   3.699 -0.0765  0.3061 -0.1160
 4725W        W22929   4.595   6.701  13.937 -0.2124  0.0479  0.3130
 4726W        W22930   9.657  12.985  12.131 -0.0614 -0.1434  0.0939
 4727W        W22931  14.714   4.068  14.627 -0.0862  0.0060  0.0002
 4728W        W22932  17.490  12.750  13.858 -0.0412  0.2247  0.0774
 4729W        W22933  14.041   9.936  12.016  0.0122  0.1452 -0.1365
 4730W        W22934   4.882   3.909  10.739  0.0404 -0.2295 -0.0328
 4731W        W22935   4.793   3.323   1.180  0.2630 -0.2098 -0.0367
 4732W        W22936  13.118   8.621   0.885  0.0067 -0.1406  0.2015
 4733W        W22937   5.456   9.557   4.086  0.0101 -0.0896 -0.2455
 4734W        W22938  15.135  13.852  11.618 -0.6661  0.0657 -0.0543
 4735W        W22939   0.841  12.825   2.516  0.4967 -0.0325 -0.1576
 4736W        W22940   5.404  12.932  14.933  0.3108 -0.2474 -0.1516
 4737W        W22941   1.236   5.382  12.580  0.1430  0.0803  0.1105
 4738W        W22942   7.288  15.771   4.553 -0.0152 -0.0613 -0.2617
 4739W        W22943   9.620   3.775  15.063  0.0231 -0.1205  0.1302
 4740W        W22944   1.103   3.939  12.719 -0.0508 -0.3481 -0.0179
 4741W        W22945  16.920   1.263   3.015  0.3843  0.0473  0.0756
 4742W        W22946  13.827  13.188   2.032  0.3360  0.1674 -0.0691
 4743W        W22947   6.570   1.761   5.560  0.1322  0.0381 -0.1122
 4744W        W22948  17.994   8.828   4.586 -0.3809  0.0523  0.1039
 4745W        W22949  13.053   7.224   2.473 -0.1684  0.3050 -0.1302
 4746W        W22950  15.907   0.670  15.303  0.3524  0.0200 -0.2744
 4747W        W22951  10.093   5.925  11.688 -0.1412 -0.1123 -0.0712
 4748W        W22952  14.770   2.275  12.371  0.0387 -0.0573  0.1197
 4749W        W22953   1.216   8.249   3.401 -0.0303  0.0830  0.0596
 4750W        W22954  14.793   8.022   2.723 -0.0483 -0.0282  0.1070
 4751W        W22955   4.459  16.291   9.986  0.0431  0.2509 -0.4797
 4752W        W22956   1.299   3.061  10.413  0.0855  0.0054  0.0895
 4753W        W22957  12.723   2.302  11.750  0.1484 -0.0705  0.2605
 4754W        W22958   4.716  11.817   0.813  0.1601  0.1441 -0.2623
 4755W        W22959  17.085   4.730   3.999  0.2385 -0.1998 -0.3113
 4756W        W22960   0.029  18.270   2.471 -0.3645  0.1121 -0.0729
 4757W        W22961   7.505   6.816  11.542 -0.1877  0.1487  0.2886
 4758W        W22962   3.173   1.813  13.545  0.0425 -0.3154  0.0279
 4759W        W22963   2.217  17.640   3.380 -0.2271  0.0587 -0.0413
 4760W        W22964  11.155  15.619  12.395 -0.2097  0.1330 -0.0741
 4761W        W22965  15.627   8.643  14.359 -0.3243  0.0446 -0.1556
 4762W        W22966   2.508  12.292   3.576  0.1779 -0.1544 -0.0924
 4763W        W22967  12.246   2.032  12.434 -0.1035 -0.4355  0.3835
 4764W        W22968   1.653  12.327  11.388  0.2000 -0.1505 -0.1481
 4765W        W22969  11.549  17.644  12.396  0.0187  0.1186 -0.2613
 4766W        W22970  16.980   7.677  12.161  0.2526 -0.0719  0.3207
 4767W        W22971  18.265  11.480   5.159  0.0262  0.1498 -0.2094
 4768W        W22972   2.834   5.323  13.651  0.0941  0.1389  0.1414
 4769W        W22973   8.757  16.473   4.367  0.1401 -0.2934  0.0322
 4770W        W22974  12.936   8.455   5.468 -0.0246 -0.2391 -0.0567
 4771W        W22975  14.695   3.565  12.433 -0.2939  0.0973  0.1151
 4772W        W22976   9.233   9.032  12.822  0.0187  0.1476 -0.0274
 4773W        W22977   0.160  13.898   0.323 -0.2180 -0.1328  0.0509
 4774W        W22978  16.657   3.847   0.644 -0.0841  0.0456  0.2137
 4775W        W22979   4.354  17.355  13.250 -0.1815  0.1365  0.1526
 4776W        W22980  16.695   4.464  13.607  0.1802  0.0818  0.0448
 4777W        W22981  13.891   3.829  11.191  0.1705 -0.4907 -0.2402
 4778W        W22982   0.758   0.506   4.477  0.0419 -0.4082 -0.2767
 4779W        W22983  16.362   2.994  14.188 -0.0540 -0.3010  0.1533
 4780W        W22984  11.003  15.962   2.608  0.1555 -0.0141  0.2116
 4781W        W22985   2.544   4.622  12.414 -0.1560  0.0308 -0.1133
 4782W        W22986   4.290   6.829   2.139 -0.2303  0.0091  0.0715
 4783W        W22987  11.925  16.806   3.402  0.2244 -0.2718  0.1288
 4784W        W22988   7.889   3.876  11.998  0.0137 -0.0856  0.2969
 4785W        W22989   9.569  17.396  14.935  0.1731  0.0945 -0.1586
 4786W        W22990  18.466  18.562   2.115 -0.2231  0.0099  0.2073
 4787W        W22991   0.495   8.628  12.565  0.3151  0.1122  0.1706
 4788W        W22992  12.413   0.654   1.045 -0.0587  0.4108 -0.2538
 4789W        W22993  11.631   4.282  12.761  0.2003 -0.1184 -0.1771
 4790W        W22994   0.178   6.315  12.304  0.3543  0.2109  0.1382
 4791W        W22995   8.058  15.094  11.670  0.1334 -0.0469 -0.2455
 4792W        W22996  11.695  13.405   1.643  0.1122  0.1631 -0.1544
 4793W        W22997  18.127  16.344  11.670  0.0662 -0.3273  0.0889
 4794W        W22998  15.197   0.843   3.288 -0.3296 -0.0604  0.1450
 4795W        W22999  15.994   3.507   0.528 -0.2167 -0.1619 -0.0917
 4796W        W23000   8.129  15.457   1.610  0.0952 -0.0988  0.0563
 4797W        W23001   1.796   0.685  11.294 -0.3886 -0.1960  0.1687
 4798W        W23002   4.962   1.758   9.904 -0.3153 -0.2543  0.2162
 4799W        W23003   0.289  16.235   3.137  0.1318 -0.1150  0.0404
 4800W        W23004   1.150  10.215   4.177 -0.1953  0.1001  0.1221
 4801W        W23005   7.858   8.707  14.337 -0.0805 -0.1190 -0.1085
 4802W        W23006   4.593  14.059  14.660  0.0353 -0.0137  0.3135
 4803W        W23007  13.732   5.389  11.437 -0.1301 -0.2742 -0.1987
 4804W        W23008   6.941  17.066  14.364 -0.2877 -0.2774 -0.0006
 4805W        W23009  18.068  15.637  13.160  0.3003  0.1624 -0.0393
 4806W        W23010   8.378   0.282   1.667  0.0320  0.1298  0.2635
 4807W        W23011  15.087  11.805   0.069 -0.1263  0.1129 -0.0298
 4808W        W23012  16.292  11.385  12.583 -0.2337 -0.1693 -0.2488
 4809W        W23013  11.774  10.576   0.095  0.0507 -0.1568 -0.3108
 4810W        W23014   1.483   0.334   2.606  0.1801 -0.1603  0.3009
 4811W        W23015  14.100   9.881  12.755  0.0238  0.1534 -0.1202
 4812W        W23016  15.963   6.594  12.165  0.1501 -0.3911  0.0455
 4813W        W23017  17.585  12.245   2.268 -0.1579  0.0375  0.1492
 4814W        W23018   4.721  13.573   2.937  0.1851 -0.0127  0.2036
 4815W        W23019   3.740  13.453   2.282 -0.1954  0.1213  0.1648
 4816W        W23020  11.894   6.769   2.901  0.4536 -0.1858 -0.1846
 4817W        W23021   6.306   8.080  13.645 -0.0483  0.1966 -0.2440
 4818W        W23022  13.100   8.843  12.379  0.0744  0.0496 -0.2500
 4819W        W23023   0.872  16.008  14.020  0.0082 -0.6066 -0.2459
 4820W        W23024  15.179  14.285   4.881  0.1162  0.0325  0.1770
 4821W        W23025   2.540   1.093   4.422  0.2477 -0.6187 -0.0632
 4822W        W23026  11.431   9.759  12.255 -0.0202  0.2019 -0.2274
 4823W        W23027  12.764  14.276  11.114  0.2910 -0.0772 -0.0160
 4824W        W23028  12.822  17.598   2.859  0.1566 -0.1942 -0.1309
 4825W        W23029   0.203   4.382   3.661  0.1171 -0.1064  0.0020
 4826W        W23030   1.026  17.380   0.210 -0.0275  0.1023  0.3177
 4827W        W23031   4.808  15.382  13.653  0.0167 -0.2052 -0.1773
 4828W        W23032  11.152  18.342   2.406  0.3976 -0.0867 -0.2343
 4829W        W23033  15.198   6.296  11.245 -0.0738 -0.0709  0.0236
 4830W        W23034  18.520   4.290   5.206  0.2677 -0.1310 -0.4128
 4831W        W23035  14.808  18.491  11.841 -0.1951 -0.3599 -0.2783
 4832W        W23036   0.761   0.110   1.903 -0.0717  0.0728  0.1041
 4833W        W23037  17.616   2.957  14.772  0.1759  0.2444  0.3888
 4834W        W23038   1.999   9.848   4.107 -0.4697  0.2728  0.0265
 4835W        W23039  17.637  14.543   1.986  0.2936 -0.0594 -0.0221
 4836W        W23040  11.710  18.436  12.708 -0.3591 -0.0957 -0.1941
 4837W        W23041  11.709  14.228   4.854  0.2516 -0.0191 -0.1421
 4838W        W23042  16.283   7.004  15.413 -0.1373  0.2267  0.3136
 4839W        W23043   0.062  15.555   2.551 -0.0746 -0.1518 -0.1312
 4840W        W23044   4.341   0.322  13.136 -0.1795  0.1881 -0.0948
 4841W        W23045   6.465   4.997  15.157 -0.0321  0.1875  0.2428
 4842W        W23046  12.745   7.214  10.829 -0.1394  0.4057 -0.0912
 4843W        W23047   9.788   7.212  12.197  0.2045  0.0768 -0.2069
 4844W        W23048  16.131  16.067  12.485 -0.2427  0.0047 -0.1799
 4845W        W23049  17.356   7.565  12.552 -0.0231 -0.1637  0.0565
 4846W        W23050  18.613  18.220   2.975 -0.1163  0.1479 -0.0270
 4847W        W23051  17.286   1.571  14.066 -0.5447 -0.1315 -0.0996
 4848W        W23052  18.431   0.517  15.106 -0.3012 -0.0700  0.1198
 4849W        W23053   2.952  15.545   4.206  0.3686  0.2327 -0.0561
 4850W        W23054   6.653   2.370   0.415  0.1678 -0.0488 -0.0188
 4851W        W23055   1.828  14.509  13.127 -0.0880  0.2697  0.1245
 4852W        W23056   3.301   1.834  12.408  0.0181 -0.1350 -0.0972
 4853W        W23057   2.759   9.950  13.985  0.0489  0.4055  0.1742
 4854W        W23058  11.769  16.037   2.304  0.3398  0.1308  0.1687
 4855W        W23059  14.273   2.155   1.160 -0.1208 -0.1267 -0.0658
 4856W        W23060  13.399   4.799  15.407 -0.0596  0.0206  0.0565
 4857W        W23061   8.352   9.954  12.430  0.0622 -0.1202 -0.1829
 4858W        W23062  15.672   5.252  13.509 -0.0603  0.1445 -0.2928
 4859W        W23063   2.156  14.815  12.926  0.0858 -0.0159  0.2568
 4860W        W23064   8.266   5.819  10.436  0.5122  0.1282  0.2979
 4861W        W23065  16.743  10.880   3.086 -0.0621 -0.2766 -0.0261
 4862W        W23066  12.026  10.985   0.323  0.2837  0.0066  0.0151
 4863W        W23067  12.931  16.329  10.803 -0.1449  0.4122  0.1659
 4864W        W23068   0.651   6.911   1.167 -0.0844  0.0010 -0.0288
 4865W        W23069   2.433   5.523  14.341 -0.0475  0.0093 -0.0667
 4866W        W23070  10.823  11.248  13.384 -0.1875 -0.0598  0.0223
 4867W        W23071  18.394  16.923  13.690 -0.0490  0.2271  0.4168
 4868W        W23072   0.205   1.733  11.133 -0.2998 -0.0683  0.0325
 4869W        W23073  18.306  13.494   2.221  0.1090 -0.3082 -0.1258
 4870W        W23074   0.756   6.446   1.334  0.1441  0.3542  0.0175
 4871W        W23075   4.764  17.354   4.500  0.2130 -0.2659 -0.0123
 4872W        W23076   5.140  18.005   1.917 -0.2222  0.2297  0.1433
 4873W        W23077   8.855   9.382  11.374 -0.1414  0.3964 -0.1063
 4874W        W23078   7.977  15.069   1.813  0.0093 -0.2598  0.0557
 4875W        W23079  13.431   9.942  14.337  0.1900  0.0911 -0.1312
 4876W        W23080  18.574  13.310  10.167  0.1594 -0.1197 -0.0585
 4877W        W23081   0.815   9.745   2.944  0.2140 -0.0632  0.2319
 4878W        W23082   8.497  14.076  14.946  0.0109 -0.0435  0.5878
 4879W        W23083   9.709  15.485  14.142  0.0679  0.1186 -0.0222
 4880W        W23084  14.827  10.924   0.459  0.1782 -0.1379  0.1480
 4881W        W23085  16.642   5.544   3.759  0.1059 -0.1095  0.1474
 4882W        W23086   5.097   4.325   0.386 -0.0341  0.0634  0.5296
 4883W        W23087  18.076  11.141   1.652 -0.0260  0.1247 -0.0725
 4884W        W23088   5.318  14.077   4.391 -0.1241  0.0266  0.0597
 4885W        W23089   5.215   0.451   0.771  0.1586  0.0511 -0.3875
 4886W        W23090   2.515   7.311   3.519  0.0458 -0.0569 -0.1203
 4887W        W23091   7.346   9.906  14.866  0.0633 -0.4328  0.0271
 4888W        W23092   5.960   2.805   3.315  0.3259  0.3619 -0.0010
 4889W        W23093   0.837  13.838   2.418  0.0988 -0.1351  0.0962
 4890W        W23094   2.489   1.644   0.472 -0.0471  0.2431 -0.0290
 4891W        W23095  15.310   9.807   1.638  0.2493 -0.2504 -0.2966
 4892W        W23096  14.747   3.157   4.415 -0.0395  0.1765  0.1582
 4893W        W23097   4.152   0.097  11.598 -0.0865  0.1908  0.0487
 4894W        W23098   2.687  15.370  11.801  0.3071 -0.2450  0.0551
 4895W        W23099   2.838   3.291   0.420  0.0646  0.1622  0.2520
 4896W        W23100  12.247  17.161   1.812  0.0746  0.1998  0.1148
 4897W        W23101   1.629   3.843  14.646  0.3053 -0.3424 -0.0480
 4898W        W23102   8.634  11.767  13.063  0.2777 -0.4863 -0.0945
 4899W        W23103  13.615  17.609  12.698 -0.0468  0.1938  0.0054
 4900W        W23104   8.284  15.918   2.838 -0.2164  0.2130 -0.2557
 4901W        W23105   4.952   9.468   2.182 -0.1417  0.1799 -0.1404
 4902W        W23106   7.292   1.084  13.184 -0.1090 -0.1784 -0.0095
 4903W        W23107  14.662   0.950   2.665 -0.2387  0.1244  0.2017
 4904W        W23108  15.696   1.604   3.691  0.1681 -0.1778  0.2247
 4905W        W23109   9.337   8.210   3.401  0.0132 -0.1254  0.1494
 4906W        W23110   4.834   4.883   3.207  0.0324 -0.1689 -0.0277
 4907W        W23111  14.990  15.808   1.184  0.1396 -0.1991 -0.2479
 4908W        W23112   4.950   2.087   2.715  0.2112  0.0251 -0.0613
 4909W        W23113  18.530  15.852   2.031 -0.0118  0.0328 -0.0140
 4910W        W23114   6.263   6.641  11.451  0.3991 -0.0622  0.0358
 4911W        W23115   0.561  13.810  15.315 -0.0138 -0.2334 -0.0285
 4912W        W23116  15.336  15.698  11.875 -0.0892 -0.1107 -0.0993
 4913W        W23117  10.467  18.576  11.603  0.0555 -0.1199 -0.1551
 4914W        W23118   4.597   5.133  13.095  0.3511  0.1124  0.1145
 4915W        W23119  11.327  11.564   0.202  0.2145  0.0230 -0.2643
 4916W        W23120   4.558  12.815  10.536  0.1750 -0.1416  0.2276
 4917W        W23121   6.210   1.130  14.861  0.0917 -0.0559 -0.1575
 4918W        W23122   0.376  17.926  14.882 -0.1614  0.1011  0.1606
 4919W        W23123  11.360   5.666   4.369 -0.3440  0.0332 -0.1859
 4920W        W23124   1.619  14.699  10.774  0.2051 -0.2324 -0.2180
 4921W        W23125   6.133  16.684   3.300 -0.0668  0.2760  0.0842
 4922W        W23126   7.502  11.531   1.349 -0.0585  0.2970  0.0514
 4923W        W23127   2.735   2.100  13.198  0.0669  0.0454 -0.0493
 4924W        W23128  10.629   4.717   0.167 -0.0804  0.3530 -0.1810
 4925W        W23129   5.318  16.544   3.884  0.1158  0.1381  0.0737
 4926W        W23130   0.764   0.839   1.831  0.1375  0.0274 -0.1043
 4927W        W23131   9.042   7.500   2.206  0.0860  0.3828  0.0020
 4928W        W23132   2.277   1.802  13.108 -0.0034 -0.0457  0.2033
 4929W        W23133   1.444   2.244  14.282  0.0954 -0.0199  0.1791
 4930W        W23134  16.847   3.373   2.120  0.1444 -0.1299 -0.1624
 4931W        W23135   7.709  11.502  13.355  0.1055 -0.0898 -0.2211
 4932W        W23136  18.126   2.476   3.379 -0.1240  0.0446 -0.0365
 4933W        W23137  11.497   6.462   2.317 -0.2833 -0.3156 -0.6980
 4934W        W23138  10.965   2.149   2.654 -0.0575  0.2978  0.0586
 4935W        W23139   4.314  17.755  11.110 -0.4066  0.0899 -0.0596
 4936W        W23140   3.633   4.625   0.462  0.0219 -0.1341  0.2391
 4937W        W23141   8.085   4.592   0.745 -0.0909  0.2024  0.1499
 4938W        W23142   0.618  10.399   5.863  0.3602  0.0200 -0.1180
 4939W        W23143   1.085   8.452   0.691  0.2304  0.0332  0.2235
 4940W        W23144  17.741   7.133   2.552 -0.1890  0.2049 -0.1293
 4941W        W23145  13.168   3.035  13.611  0.0088 -0.0841 -0.0435
 4942W        W23146   5.349  10.221  10.542 -0.2323  0.1775 -0.3308
 4943W        W23147  11.268  11.228  14.768 -0.0032  0.2703  0.2101
 4944W        W23148  11.352   7.230   2.284  0.1079  0.0408 -0.2355
 4945W        W23149  10.166   2.694  10.977 -0.1984 -0.1570 -0.1974
 4946W        W23150   3.959   1.843   1.686 -0.2281  0.0715  0.0943
 4947W        W23151  17.925   0.537   5.149 -0.0923 -0.0586 -0.0159
 4948W        W23152  13.976   7.576  12.893  0.1752  0.3494  0.1187
 4949W        W23153  12.264   9.589  13.460  0.1786  0.0830 -0.2644
 4950W        W23154   7.086   3.433   1.595 -0.1174  0.1204  0.2950
 4951W        W23155  12.562  13.816   2.231 -0.0674  0.3984  0.1387
 4952W        W23156  10.931   9.262  11.931 -0.0339  0.2336  0.1850
 4953W        W23157  11.764   8.713  11.399 -0.0823 -0.0989 -0.0136
 4954W        W23158  13.232  17.483  13.705  0.0980  0.0133  0.0336
 4955W        W23159   3.107  12.807   1.778  0.1243  0.0270 -0.3198
 4956W        W23160   1.020  16.933  14.006  0.1071  0.0743  0.0848
 4957W        W23161  16.328   7.863  15.078 -0.0346  0.2788 -0.1963
 4958W        W23162  17.234  13.393   3.790 -0.2559 -0.1251  0.4231
 4959W        W23163  14.112   3.844  13.753 -0.0488  0.1838  0.3138
 4960W        W23164  16.547  17.455   4.233 -0.0329 -0.0588  0.0399
 4961W        W23165  15.112   6.036  15.067  0.0658 -0.0558 -0.0272
 4962W        W23166   1.594   4.153  12.429  0.0806 -0.0525  0.0189
 4963W        W23167  12.488  10.795   0.364 -0.0655 -0.1233 -0.0813
 4964W        W23168  17.315  12.676   1.635 -0.0489  0.0411 -0.1594
 4965W        W23169   6.357   8.863  11.323  0.0822 -0.1476 -0.0974
 4966W        W23170   6.309   9.336  13.685  0.2076 -0.0646  0.0886
 4967W        W23171  16.639   9.412  14.250 -0.0129  0.1612 -0.1412
 4968W        W23172   0.381   2.522  11.737 -0.1550 -0.1713 -0.0233
 4969W        W23173  10.385  14.343   4.318  0.2323 -0.2971 -0.2914
 4970W        W23174  16.336   3.384  15.090 -0.0683 -0.0752  0.2980
 4971W        W23175   5.718   5.832  14.852  0.3350  0.2040  0.1537
 4972W        W23176  11.795   9.905   0.218 -0.1030  0.1428 -0.0133
 4973W        W23177   5.493   2.755   3.200  0.3407  0.0611  0.2014
 4974W        W23178   8.006  10.224  11.268 -0.2737 -0.0152 -0.0982
 4975W        W23179   7.911  17.296  14.491  0.2453  0.0517 -0.0963
 4976W        W23180   7.759   0.076   2.813  0.3971  0.1180  0.1439
 4977W        W23181   8.544  18.109   3.504 -0.3251 -0.1088  0.0025
 4978W        W23182   9.972  14.042   4.287  0.1607 -0.3858  0.2320
 4979W        W23183  17.504  11.120   2.614 -0.1299  0.1382  0.1189
 4980W        W23184   7.759   4.320   1.313 -0.1228 -0.0817  0.1301
 4981W        W23185   6.779  11.911   3.606 -0.2193  0.1450  0.1833
 4982W        W23186   3.534  16.953   5.931 -0.0234 -0.1484  0.3046
 4983W        W23187  14.379  14.124  11.966 -0.1568  0.0206 -0.1226
 4984W        W23188   9.670  10.661   5.447  0.3906  0.0260  0.0649
 4985W        W23189  16.639   2.253  13.671 -0.1259 -0.1627 -0.0137
 4986W        W23190   1.891  10.608  11.292 -0.3513 -0.2206  0.1782
 4987W        W23191  10.541  17.973   4.784 -0.2079 -0.0422 -0.1683
 4988W        W23192  17.492  15.097   2.472 -0.1370 -0.3517  0.2986
 4989W        W23193   3.340  17.830  11.756  0.2289  0.2254  0.2783
 4990W        W23194   3.269  15.037  11.130  0.1837  0.1364  0.1037
 4991W        W23195   6.498  14.417  13.077  0.1167  0.4286 -0.0263
 4992W        W23196   3.030   8.782  12.887  0.0251  0.0701  0.0646
 4993W        W23197  15.466   0.271   2.974 -0.0197  0.1815  0.2069
 4994W        W23198  14.220  12.482   1.400 -0.1107 -0.1175  0.1209
 4995W        W23199  18.422  16.670  15.395 -0.0510 -0.1337 -0.0613
 4996W        W23200  15.081  16.690  12.944 -0.1121  0.0738 -0.0392
 4997W        W23201  15.540   5.616   0.795 -0.0796 -0.0281  0.1543
 4998W        W23202   9.119   4.850  12.655 -0.0273  0.0209  0.2869
 4999W        W23203  17.121   5.619   3.561 -0.3743  0.0210 -0.3887
 5000W        W23204  12.988  11.343   2.026 -0.1292  0.0950  0.3215
 5001W        W23205  17.969  17.644   4.539  0.2230  0.2774  0.1544
 5002W        W23206  12.960  13.730  11.747  0.0638 -0.1345 -0.1021
 5003W        W23207   4.978  15.339  14.865 -0.1991  0.1121 -0.1909
 5004W        W23208   0.550  11.529  13.330 -0.0481 -0.1220 -0.1550
 5005W        W23209  15.771  16.984   4.574  0.1554 -0.0623 -0.0280
 5006W        W23210  13.225   0.626  12.668  0.0291 -0.0036 -0.0473
 5007W        W23211  16.959   4.965  13.972 -0.1855 -0.1128  0.1104
 5008W        W23212  12.288   2.519   3.793  0.1072 -0.0815 -0.1292
 5009W        W23213  10.770   9.943  13.130  0.0256  0.3973 -0.0548
 5010W        W23214  13.820  12.093  10.590 -0.0157  0.1514 -0.0659
 5011W        W23215  16.737  16.161  11.124  0.1115 -0.1769  0.1379
 5012W        W23216   0.259  14.710  15.180  0.2425  0.2369  0.2365
 5013W        W23217   3.494  12.760  11.845  0.0746 -0.2345 -0.3105
 5014W        W23218  12.980  16.844  10.985 -0.0211  0.1720  0.0305
 5015W        W23219   1.747   1.893  13.063 -0.1354 -0.2242  0.0182
 5016W        W23220  15.607   3.862  10.939 -0.4842 -0.0724 -0.0854
 5017W        W23221   6.238   9.928  13.043  0.2220 -0.1695  0.1414
 5018W        W23222   1.794   9.021   4.326 -0.1302 -0.2289 -0.4402
 5019W        W23223  12.188  12.515   2.166  0.1323 -0.0712 -0.0791
 5020W        W23224   2.389  16.594   2.835  0.2586  0.3733 -0.2568
 5021W        W23225  12.000  17.765  13.183 -0.0624  0.1283 -0.0777
 5022W        W23226   5.902  12.174   3.262  0.0234 -0.0968 -0.1441
 5023W        W23227   2.894   6.286  13.160 -0.2640 -0.1652 -0.4283
 5024W        W23228  14.289  10.588   4.038  0.2538  0.0362  0.1475
 5025W        W23229   5.163   6.921   4.631  0.1808 -0.1503  0.0991
 5026W        W23230   8.105  15.547  12.676  0.0234  0.1375 -0.2041
 5027W        W23231  11.768  15.388   3.867 -0.3078 -0.1406  0.1108
 5028W        W23232  17.501  16.684  14.427 -0.0050  0.1968 -0.1234
 5029W        W23233  14.601  13.427   3.898 -0.1458 -0.1845  0.2340
 5030W        W23234   6.256  13.331  12.333  0.4227 -0.0475  0.0890
 5031W        W23235   2.147  10.471   5.315 -0.1714 -0.2947 -0.0716
 5032W        W23236   8.299  12.489  15.247  0.1919  0.1356  0.0466
 5033W        W23237  14.235  14.475  12.313 -0.1042  0.0248 -0.0305
 5034W        W23238  12.313   6.018   1.722  0.1727 -0.0818 -0.3379
 5035W        W23239  15.151  12.371   1.610  0.2589  0.0966 -0.0145
 5036W        W23240   4.998   3.873  13.393 -0.1570 -0.1978 -0.0831
 5037W        W23241   6.782  14.470   0.347 -0.0572  0.0681  0.1199
 5038W        W23242   5.005  16.038   1.382  0.0345 -0.2993  0.0118
 5039W        W23243  12.321   4.127   2.049  0.1130  0.0719 -0.0822
 5040W        W23244   6.377   9.647   4.500  0.0241 -0.0126  0.0331
 5041W        W23245  10.079  16.972  13.533  0.2197 -0.0142 -0.1702
 5042W        W23246   6.414   0.269   2.631  0.0703  0.1226  0.0427
 5043W        W23247  18.589  14.072   0.777 -0.1514 -0.2558 -0.0091
 5044W        W23248   1.933  17.051   9.978  0.0263 -0.1663  0.2527
 5045W        W23249   5.823  15.124   2.324 -0.2153 -0.2399 -0.4693
 5046W        W23250   0.285  17.505   1.703 -0.1618 -0.0163 -0.3778
 5047W        W23251   4.847   8.667   0.446  0.2116 -0.0706 -0.1757
 5048W        W23252  18.003  16.126  12.345 -0.0275  0.0976  0.1742
 5049W        W23253  11.039   6.124   2.996  0.0393 -0.0398 -0.0210
 5050W        W23254  12.341   4.454   4.456 -0.2890  0.2327  0.1600
 5051W        W23255  14.121   0.632  13.679  0.0630  0.3299 -0.0424
 5052W        W23256   9.866  11.805  14.739 -0.1606 -0.1002 -0.1365
 5053W        W23257  15.130   8.578  14.563  0.1207  0.0789  0.1806
 5054W        W23258  11.146   5.823   1.513  0.0389  0.1588  0.2084
 5055W        W23259   5.836  12.038  14.942 -0.0044  0.0667 -0.1842
 5056W        W23260  15.466   1.086  14.532 -0.1487  0.1109  0.1596
 5057W        W23261   5.160   5.591   3.945 -0.1610 -0.0736  0.0002
 5058W        W23262  11.476   7.892  14.632 -0.2968  0.1060 -0.2146
 5059W        W23263   6.444   3.059  12.868 -0.1826 -0.1334  0.0889
 5060W        W23264   3.587  11.406   4.879  0.0020  0.0225  0.2232
 5061W        W23265  10.615  14.508   3.136  0.0027 -0.0432 -0.3167
 5062W        W23266   3.557   5.728  12.523 -0.2372 -0.0126 -0.2667
 5063W        W23267   4.664   8.740   2.643  0.0870 -0.0771  0.3344
 5064W        W23268   7.313   8.120  12.657 -0.1689  0.0853 -0.2045
 5065W        W23269  10.559   6.242   0.729 -0.2487  0.2440  0.1516
 5066W        W23270  17.413   9.765  14.278 -0.0348  0.1081 -0.0779
 5067W        W23271   7.353   1.719  10.354 -0.3293  0.0303 -0.1631
 5068W        W23272   2.379  15.857  12.582 -0.3237  0.2102  0.2357
 5069W        W23273  10.708  11.193   0.887 -0.4768 -0.0460  0.0869
 5070W        W23274   5.320  18.431   2.149  0.2460  0.0619  0.2887
 5071W        W23275   5.351  13.175  12.060 -0.0361 -0.1941 -0.0681
 5072W        W23276  14.275   9.596   0.009 -0.1470 -0.5143  0.2974
 5073W        W23277   8.952  11.893  15.059  0.0649  0.1347 -0.0353
 5074W        W23278   6.176  18.314   6.053  0.0564  0.1068 -0.3537
 5075W        W23279   6.537  13.764   4.794  0.1310 -0.0915  0.0878
 5076W        W23280   2.097   5.904  12.874  0.0148  0.2839  0.0415
 5077W        W23281   9.934   1.035  11.378 -0.0792  0.2198  0.1604
 5078W        W23282  16.242  11.678  11.691  0.1346 -0.0450  0.3360
 5079W        W23283  10.993   7.991  14.593  0.1385 -0.1990 -0.0313
 5080W        W23284  14.516   5.076  11.157  0.6621 -0.1340  0.0219
 5081W        W23285   0.716   1.465   4.387 -0.2073 -0.0509  0.0000
 5082W        W23286   2.885   5.620  11.841 -0.1307  0.1747  0.0581
 5083W        W23287  12.436  15.158   4.092 -0.0256 -0.1687  0.0807
 5084W        W23288   6.254   2.023   3.404 -0.1436  0.1533 -0.1678
 5085W        W23289  14.647  16.872   1.899  0.1638  0.2082  0.3264
 5086W        W23290  16.698   1.551   2.627 -0.0075 -0.2961 -0.0414
 5087W        W23291   7.712  13.216  11.616  0.3449  0.2815 -0.1549
 5088W        W23292   4.819   0.560  14.637  0.2428  0.1006  0.0296
 5089W        W23293  16.607   8.671  11.297  0.0723 -0.0774 -0.2524
 5090W        W23294   7.372  11.211   5.483  0.2747 -0.1398  0.1494
 5091W        W23295  13.312   9.949   3.108 -0.0323 -0.1100 -0.4506
 5092W        W23296   9.632   0.536  11.764 -0.3084 -0.0498 -0.0519
 5093W        W23297   5.161   4.385  12.800 -0.2880  0.3580 -0.1008
 5094W        W23298  15.429  12.192  12.001  0.4248  0.2224 -0.2359
 5095W        W23299   1.763  15.093  14.999 -0.0370 -0.2082  0.1008
 5096W        W23300  11.512   1.652  12.212  0.1923 -0.0739  0.1393
 5097W        W23301   0.641   5.320   2.248  0.0794 -0.1175  0.0690
 5098W        W23302  13.932   9.792   1.743  0.0233  0.1787 -0.1809
 5099W        W23303   7.750  17.789   3.079  0.0216 -0.1481  0.1018
 5100W        W23304   6.487   8.352   3.022 -0.4107 -0.0587  0.1562
 5101W        W23305   7.327  11.281  11.219  0.0693  0.0044  0.1531
 5102W        W23306  16.575   2.505   4.935  0.1537 -0.1357 -0.3237
 5103W        W23307  10.069   5.496  14.140  0.1578 -0.1031  0.3778
 5104W        W23308   6.309   2.007  15.346  0.2735  0.0468  0.0997
 5105W        W23309   5.359   5.670  11.875  0.1283  0.0337  0.0361
 5106W        W23310   2.321  12.148  12.031  0.1166 -0.0770  0.0895
 5107W        W23311   8.183  15.993  13.492  0.0244  0.0834 -0.0940
 5108W        W23312  18.352   3.935  15.353  0.1375 -0.2646 -0.3212
 5109W        W23313   9.171  10.216  15.025 -0.0635 -0.0333 -0.2365
 5110W        W23314   1.211   3.841   0.318 -0.1810 -0.0665 -0.0523
 5111W        W23315  10.989   7.095   4.438 -0.1532 -0.1704  0.2862
 5112W        W23316  14.043   3.016  10.830  0.2554  0.0324  0.0521
 5113W        W23317   6.936   7.690   1.315 -0.2385 -0.1392 -0.2039
 5114W        W23318   4.267   9.479  12.837 -0.1119  0.1977 -0.1233
 5115W        W23319  10.833  13.135   3.926 -0.0844  0.0284  0.0355
 5116W        W23320   3.495  13.132   1.568 -0.1279 -0.1308  0.0473
 5117W        W23321  13.810  16.106  14.774 -0.2769  0.2910  0.1198
 5118W        W23322  11.037  15.493  14.296  0.3152  0.0085 -0.0311
 5119W        W23323   4.270   7.367  13.394 -0.1089 -0.0010  0.0687
 5120W        W23324   6.946   7.706  10.929  0.1681  0.0223 -0.0626
 5121W        W23325  12.870   6.127  10.011  0.2524  0.1511  0.0794
 5122W        W23326   9.792   1.426  14.844  0.0476  0.0540  0.2186
 5123W        W23327   0.408  10.435   2.669 -0.0404 -0.3726 -0.1898
 5124W        W23328  13.098   2.080  12.732  0.0612 -0.0245 -0.2070
 5125W        W23329  14.610   8.653   5.568  0.0546  0.0783 -0.2974
 5126W        W23330   0.141  15.319  12.133  0.0774 -0.1847  0.0257
 5127W        W23331  12.022   4.002  12.882 -0.1983 -0.1637  0.1173
 5128W        W23332  12.282   5.139   2.794 -0.0097  0.1616  0.1726
 5129W        W23333   1.037   3.637  14.465  0.2480  0.1810  0.0349
 5130W        W23334  16.669  13.033   2.288 -0.0656 -0.2566 -0.0650
 5131W        W23335  17.654   3.685  13.200  0.0197  0.2351  0.1336
 5132W        W23336  16.056   2.099  10.928 -0.0116 -0.2424 -0.4487
 5133W        W23337  13.506   1.412   3.082 -0.1352  0.1459  0.2562
 5134W        W23338   3.587  15.119  15.261 -0.1196 -0.1582 -0.0186
 5135W        W23339  13.802   0.295   2.791 -0.3882  0.3930 -0.1558
 5136W        W23340   7.226   2.113   1.958 -0.0611 -0.3520  0.0706
 5137W        W23341  15.555   7.653   2.221  0.0637  0.4418 -0.0803
 5138W        W23342   7.856  10.888  14.867 -0.2068  0.1157 -0.2646
 5139W        W23343   6.819  14.282   2.224  0.1788 -0.1220  0.3978
 5140W        W23344   6.715   6.711   1.759  0.3863  0.0786  0.0464
 5141W        W23345  16.695  16.242  12.440  0.0259  0.0320  0.2605
 5142W        W23346   7.732  12.112  11.415  0.0459  0.0559 -0.0426
 5143W        W23347   0.349  14.314  13.461  0.2174 -0.0267  0.0545
 5144W        W23348   1.475  11.195   0.542  0.0959 -0.0491  0.0509
 5145W        W23349   6.412   7.480   0.641 -0.2154  0.2191  0.0634
 5146W        W23350  13.050  13.839  12.234 -0.3530 -0.3174 -0.1671
 5147W        W23351   0.106   4.944  13.291  0.0989  0.3053  0.0464
 5148W        W23352  17.142   5.399   2.081  0.0243  0.1393 -0.0861
 5149W        W23353   7.017   3.670  11.275 -0.1796 -0.2124 -0.0362
 5150W        W23354   3.354  12.138   1.697 -0.2799  0.1232  0.0143
 5151W        W23355  10.407   3.546  12.574 -0.2522 -0.4393  0.1361
 5152W        W23356  14.123   4.343   2.626  0.1055  0.1766  0.2659
 5153W        W23357  17.825   1.064  13.121 -0.0245  0.0881 -0.0601
 5154W        W23358  11.720  17.492   3.188  0.0917  0.4125  0.3312
 5155W        W23359  11.588   0.216   3.478  0.2298 -0.0609 -0.3892
 5156W        W23360   0.602  15.451  10.282  0.0079 -0.2418  0.1226
 5157W        W23361   1.730   7.917   0.943 -0.1469  0.1200 -0.0081
 5158W        W23362  12.294  10.478   2.762  0.2830 -0.0047  0.0869
 5159W        W23363   1.516   1.868  11.715 -0.1290 -0.0193  0.2455
 5160W        W23364  17.931   9.223  14.845 -0.1628  0.2815 -0.1054
 5161W        W23365   1.488  17.300   3.553 -0.1915  0.2037 -0.0132
 5162W        W23366  12.651   8.569  12.597 -0.1200 -0.2464 -0.2089
 5163W        W23367   0.893  11.963  14.069  0.1672  0.0595 -0.0822
 5164W        W23368  18.425   5.018  12.464 -0.0059  0.0415  0.1278
 5165W        W23369   9.041   2.323  15.401  0.3661  0.5434  0.1650
 5166W        W23370   1.693  14.888  12.769 -0.0254  0.0701 -0.2154
 5167W        W23371   3.306   3.343   4.222  0.0551 -0.0660  0.2263
 5168W        W23372   6.824   4.893   1.236 -0.0592 -0.1835 -0.1976
 5169W        W23373   4.486   8.296   2.489 -0.0300  0.1800 -0.3163
 5170W        W23374   8.977   3.060   1.256  0.0157  0.1753 -0.0873
 5171W        W23375   8.903   4.477  13.693 -0.1360 -0.0773 -0.1140
 5172W        W23376   5.294  16.010   0.178 -0.2977  0.1282 -0.0449
 5173W        W23377  12.411  11.076   3.961 -0.1152  0.1752 -0.1415
 5174W        W23378  15.089  11.308   0.144  0.0206  0.0888  0.1194
 5175W        W23379   6.582   0.254  13.960  0.1640  0.2469 -0.4282
 5176W        W23380  16.085  17.962   0.933 -0.0760 -0.0140 -0.0975
 5177W        W23381  12.786  13.057   4.209  0.1218  0.1092  0.0271
 5178W        W23382  10.066  13.202   3.810 -0.0538 -0.0424  0.1282
 5179W        W23383   6.835  10.665   0.460 -0.0782 -0.0109  0.0333
 5180W        W23384  17.743  18.265   1.618  0.2516  0.1189 -0.3178
 5181W        W23385   5.142  12.074  13.399 -0.3112  0.0729 -0.0828
 5182W        W23386  13.722  18.611   1.131 -0.1695 -0.1862 -0.0887
 5183W        W23387   6.058   7.194  11.387 -0.1126 -0.3639 -0.1499
 5184W        W23388   4.759  10.465  11.709  0.1445  0.0637  0.0437
 5185W        W23389   6.826  12.785  13.774  0.3969  0.0334 -0.0345
 5186W        W23390   9.527   0.539  13.156 -0.0851 -0.1835  0.2245
 5187W        W23391   4.359   7.502  11.949 -0.0817 -0.3725  0.4543
 5188W        W23392  16.874  14.369  11.681  0.2314 -0.2174 -0.1919
 5189W        W23393  17.021  12.688   2.579  0.0755 -0.1471  0.0947
 5190W        W23394  13.151  12.053  12.629 -0.3105 -0.3604  0.3081
 5191W        W23395   8.230  10.820  15.254  0.1542 -0.0663  0.1422
 5192W        W23396  11.178   3.622   4.838  0.0043  0.3569  0.0473
 5193W        W23397   9.746   8.442  14.465  0.1001 -0.1168 -0.4268
 5194W        W23398   9.563  13.741   2.405  0.1094  0.0235 -0.1471
 5195W        W23399  14.325  16.081  12.676  0.1750 -0.0271 -0.0831
 5196W        W23400   5.607  18.334   0.157 -0.1305 -0.0897  0.1406
 5197W        W23401  10.988   8.423   5.642 -0.0685  0.2587  0.1552
 5198W        W23402   0.191  17.456  11.742 -0.1054 -0.0070  0.0809
 5199W        W23403  14.864  12.859   0.231 -0.3435 -0.1277 -0.1543
 5200W        W23404  18.002   9.354  11.267 -0.0826 -0.0071  0.1060
 5201W        W23405  10.929   3.374   0.849  0.1113  0.1736  0.0668
 5202W        W23406  10.084  15.660  15.248 -0.0152  0.2395 -0.1508
 5203W        W23407  16.397   3.018  14.670  0.0091  0.1649 -0.2825
 5204W        W23408  15.188  18.150  15.003  0.1493  0.0903  0.1962
 5205W        W23409   6.916   9.804  11.382 -0.2159 -0.0036  0.0163
 5206W        W23410  10.682   8.571   3.619 -0.2770 -0.0867 -0.0941
 5207W        W23411  18.509   2.848  13.917  0.1281  0.2158  0.4474
 5208W        W23412  18.374  17.658  12.140  0.1492  0.0422 -0.1976
 5209W        W23413  13.959   1.328   2.076 -0.0111  0.0457  0.0640
 5210W        W23414  11.217  17.615  12.818 -0.0669 -0.1129 -0.1614
 5211W        W23415  16.071  12.316  12.992 -0.1285 -0.2688 -0.0983
 5212W        W23416  11.224   4.067  10.524 -0.2169 -0.0511  0.2171
 5213W        W23417  18.336   4.313   2.956  0.2437 -0.0614  0.0060
 5214W        W23418   0.936  10.498   4.535  0.0195  0.1110 -0.1676
 5215W        W23419   4.823   0.418   0.243 -0.2582  0.2181 -0.2189
 5216W        W23420   7.877   8.730  11.381  0.0995 -0.0186  0.1448
 5217W        W23421   3.703   0.394   4.682  0.1297 -0.0777 -0.2325
 5218W        W23422  11.944   7.609   0.300  0.1928 -0.3611 -0.0378
 5219W        W23423  13.610  13.181   3.664 -0.0464 -0.1112  0.3180
 5220W        W23424  12.815  13.730  11.160 -0.0052  0.1656  0.0082
 5221W        W23425  17.637   5.654   0.870  0.1907  0.1050  0.1234
 5222W        W23426  16.226  11.664  12.199  0.2927 -0.0040 -0.1943
 5223W        W23427   5.849  12.185   1.782  0.3154  0.0538  0.2233
 5224W        W23428  12.514   1.158  11.213 -0.1017 -0.0570 -0.0325
 5225W        W23429  15.322  16.748  12.084 -0.2003 -0.0481 -0.1656
 5226W        W23430  17.672   4.224  13.465 -0.1468  0.3177  0.0492
 5227W        W23431   3.369   9.457   1.545 -0.0409 -0.2095 -0.1811
 5228W        W23432   0.652   8.264   0.455 -0.1055  0.2117  0.1315
 5229W        W23433   6.448  14.511  13.628 -0.0494 -0.0249 -0.2138
 5230W        W23434   2.835   0.357   0.280  0.0677  0.2128  0.1932
 5231W        W23435   8.299   1.783  13.934 -0.2518 -0.1625 -0.1517
 5232W        W23436   5.395  12.752   4.340 -0.1189  0.0125 -0.0149
 5233W        W23437   2.122   4.016   2.895  0.3704  0.0555  0.1762
 5234W        W23438   6.449  17.535   1.968  0.1263 -0.0830  0.0900
 5235W        W23439  10.559   8.590   2.538  0.1383  0.1724 -0.3580
 5236W        W23440  13.558   9.165   1.256 -0.0848  0.1239 -0.1736
 5237W        W23441   2.460  18.283  11.688 -0.4428 -0.1226  0.2118
 5238W        W23442  16.027  14.003  12.108 -0.1899 -0.2111  0.0454
 5239W        W23443   8.627   7.352   1.932 -0.4059  0.2042 -0.1921
 5240W        W23444  18.315  12.329   4.166  0.0318  0.0244  0.0171
 5241W        W23445  10.000   3.669  14.056 -0.1855  0.1772 -0.0818
 5242W        W23446  17.884  13.879   3.287 -0.0413  0.4919  0.3270
 5243W        W23447  14.584   9.178   1.998 -0.0097  0.1653  0.0618
 5244W        W23448  17.025   9.600  12.472 -0.2885 -0.0481 -0.0978
 5245W        W23449  15.860   9.324  10.048  0.0112 -0.1070  0.0212
 5246W        W23450   6.690  15.111   0.610 -0.1537  0.1581 -0.1673
 5247W        W23451   8.559  16.418  11.460 -0.1815  0.1034 -0.1027
 5248W        W23452  11.491   8.849  14.373  0.1449 -0.2720  0.2557
 5249W        W23453  16.416  11.151  13.148  0.2353 -0.1520  0.3475
 5250W        W23454   5.062  16.727   4.915 -0.2814  0.2688 -0.0282
 5251W        W23455  15.778   8.608  12.980 -0.1212 -0.2284  0.0253
 5252W        W23456   4.802   7.601  12.479 -0.0705 -0.2449 -0.0001
 5253W        W23457  13.932  12.550  14.634  0.0256 -0.3360  0.0936
 5254W        W23458  10.586   6.955  11.701 -0.0534 -0.0672  0.0908
 5255W        W23459  16.254   8.055   2.759  0.0383 -0.0374 -0.2011
 5256W        W23460   1.482   0.885   4.395 -0.0262 -0.1259  0.1353
 5257W        W23461  13.602  12.594   3.675 -0.4831  0.2133  0.2920
 5258W        W23462   2.231  10.567   4.791  0.1307  0.0845 -0.3714
 5259W        W23463   8.045  14.636  12.136  0.0923 -0.1430  0.0314
 5260W        W23464  12.764  11.614  13.784 -0.1600  0.4144 -0.0157
 5261W        W23465  17.247  14.443   4.104 -0.0738 -0.0501  0.1605
 5262W        W23466  15.681  10.524  12.211 -0.0627  0.1111  0.0377
 5263W        W23467  16.688   5.077  12.749 -0.0682 -0.3607 -0.1907
 5264W        W23468   5.732   8.925  11.417 -0.2646 -0.0498 -0.0920
 5265W        W23469  12.218  18.269   1.030 -0.0622  0.0504  0.0204
 5266W        W23470  15.188   8.804  14.103 -0.4101  0.0009  0.0671
 5267W        W23471  17.835   6.430   4.170 -0.2064  0.0014  0.0678
 5268W        W23472   8.648   7.132  14.611 -0.1133  0.0973 -0.2070
 5269W        W23473   7.640  11.127   0.547 -0.2434  0.0311 -0.1276
 5270W        W23474  16.237  10.910   3.536  0.3341  0.0785 -0.0553
 5271W        W23475   8.897   1.514   4.761 -0.0424  0.4021  0.2427
 5272W        W23476  10.494   6.423   2.944 -0.2619 -0.0361 -0.3216
 5273W        W23477   2.960   9.334   1.998  0.1754  0.1085 -0.0228
 5274W        W23478  12.105  10.049  13.194 -0.2307 -0.0528 -0.2254
 5275W        W23479   3.612  10.393  14.966  0.0721  0.0593 -0.1522
 5276W        W23480   3.996   1.348  12.128 -0.1044  0.1639  0.0282
 5277W        W23481   2.129  13.029   3.394 -0.2415  0.0735  0.1016
 5278W        W23482  12.051   7.037  12.477 -0.2811  0.1153 -0.0792
 5279W        W23483  17.506   1.557  14.868 -0.1594  0.0085 -0.1758
 5280W        W23484  14.810   0.377  13.720  0.2676 -0.0742  0.3496
 5281W        W23485  14.990  10.341  11.111 -0.3885  0.0093  0.1077
 5282W        W23486  10.192  10.110   0.527  0.1212 -0.0694  0.0579
 5283W        W23487   4.180  16.410  11.407  0.1771  0.0649  0.2533
 5284W        W23488   2.743   6.785   0.481 -0.0752 -0.1971  0.3408
 5285W        W23489   6.256   8.777  11.953 -0.0530  0.1628  0.0531
 5286W        W23490   8.131  17.332  13.981  0.0867 -0.1389 -0.1699
 5287W        W23491   7.535   0.806   3.236 -0.0112 -0.1343 -0.0138
 5288W        W23492  14.301  17.025  12.977  0.2142  0.1130  0.3249
 5289W        W23493   0.817   0.559  14.663 -0.1011  0.0819  0.1391
 5290W        W23494   5.374  14.940   0.350 -0.1194 -0.0407 -0.0519
 5291W        W23495  15.316   2.522   3.503 -0.1738 -0.0768 -0.0306
 5292W        W23496   2.653   4.590  11.791  0.1982 -0.0181 -0.1226
 5293W        W23497   6.702   6.982  11.320  0.1920  0.2426  0.0507
 5294W        W23498  17.679   0.568   4.100  0.1090  0.0792 -0.2031
 5295W        W23499  10.274  18.592   2.850  0.1436  0.0723  0.0472
 5296W        W23500   1.892  16.243  13.086 -0.0688  0.0525  0.0308
 5297W        W23501  15.768  15.387  12.062  0.1478 -0.1766 -0.3420
 5298W        W23502   6.188  12.591   2.996 -0.0336 -0.1346 -0.0450
 5299W        W23503  16.117  15.317  11.637  0.0867 -0.0881 -0.0126
 5300W        W23504   8.775  12.873   5.055  0.0827  0.3898 -0.0824
 5301W        W23505  16.540  15.168  11.883 -0.0629  0.0383 -0.2089
 5302W        W23506  17.228  18.523   2.794 -0.0579 -0.1602 -0.1014
 5303W        W23507   2.455  15.608  14.970 -0.0477 -0.0050  0.1298
 5304W        W23508   9.953  11.478   0.301  0.1518  0.2635  0.0155
 5305W        W23509   6.448   0.424   4.284  0.2579  0.0393 -0.0183
 5306W        W23510  14.117   6.474   2.219  0.0975 -0.1879 -0.0916
 5307W        W23511   9.085   0.844  11.871 -0.2279 -0.1340 -0.1616
 5308W        W23512  14.973  10.723   4.383  0.1481 -0.1916 -0.0527
 5309W        W23513   1.910  13.607  13.688  0.0614  0.0037  0.0160
 5310W        W23514  16.196   4.811  11.912 -0.1377  0.1924  0.0691
 5311W        W23515  10.160  10.066   2.677  0.1293  0.0173 -0.1001
 5312W        W23516  15.975   2.844   0.144  0.2334  0.0184 -0.0915
 5313W        W23517  10.558   1.600  14.417 -0.1129  0.1000  0.3020
 5314W        W23518  12.885  10.753  12.612 -0.0403 -0.1072  0.0229
 5315W        W23519   0.512  17.019  14.165  0.1371 -0.1246  0.0962
 5316W        W23520  12.560   2.949   2.813  0.1702  0.3041  0.1782
 5317W        W23521  13.466   3.505   1.201 -0.1304  0.2722  0.2144
 5318W        W23522   5.399  15.163  13.778  0.0678  0.0412  0.0067
 5319W        W23523  14.259  14.247   0.580 -0.2638  0.1308  0.3795
 5320W        W23524  10.325   2.369  12.266 -0.0983 -0.0466 -0.0537
 5321W        W23525   9.315   6.656  11.498  0.1032 -0.2898 -0.0373
 5322W        W23526  11.728   5.554   3.304  0.0710 -0.0964 -0.1320
 5323W        W23527  10.094  12.933   0.647  0.0775 -0.1558 -0.3713
 5324W        W23528  17.672   7.254   3.401  0.0781  0.0391 -0.2775
 5325W        W23529   4.916   5.025   4.904  0.2333 -0.2863  0.1670
 5326W        W23530  10.147   7.777  13.641 -0.0992 -0.1212  0.0400
 5327W        W23531   4.653   2.751  14.576 -0.1491  0.0745 -0.1538
 5328W        W23532  16.596  15.508   3.351 -0.2706 -0.0830  0.1299
 5329W        W23533  12.387   6.412   4.071  0.2218  0.1309  0.0409
 5330W        W23534  18.199  12.538   3.488 -0.2503 -0.0827 -0.0721
 5331W        W23535  17.500  14.633   1.042 -0.3000  0.2779  0.1413
 5332W        W23536  11.544   4.127   4.058  0.2999 -0.0375 -0.4187
 5333W        W23537   6.734   4.798   0.278 -0.1763 -0.2375  0.2109
 5334W        W23538  12.877   9.248  15.363  0.4600  0.0181  0.2672
 5335W        W23539  13.253  16.282  15.035  0.4283  0.0519  0.3285
 5336W        W23540   2.445  11.626  13.164  0.0354 -0.2286  0.1741
 5337W        W23541   6.071  18.550   3.453  0.2267  0.0203  0.0546
 5338W        W23542  10.959  13.570  12.266 -0.2903 -0.1842 -0.1107
 5339W        W23543  13.393   6.266   5.934  0.0308  0.1324 -0.0436
 5340W        W23544   7.992  16.929   1.872  0.0983 -0.0066  0.3934
 5341W        W23545   3.274   3.968  11.841  0.5184 -0.1702  0.0875
 5342W        W23546   7.435   4.951  15.226 -0.1532 -0.0540 -0.1418
 5343W        W23547  11.312   1.425  13.860 -0.1160 -0.1883  0.0791
 5344W        W23548   6.750   6.128  12.005  0.0360 -0.0634 -0.1453
 5345W        W23549  16.935   3.756  12.858 -0.2383 -0.1875 -0.0672
 5346W        W23550  10.198   2.044   1.137  0.1645 -0.1427  0.0890
 5347W        W23551  18.192  16.647   3.812  0.0408  0.0183 -0.0980
 5348W        W23552   5.053   5.101   4.007  0.1904 -0.2281 -0.0713
 5349W        W23553  10.851   6.829  15.073  0.3089  0.0107  0.3259
 5350W        W23554   0.281  16.476  15.074  0.0553 -0.2318 -0.1011
 5351W        W23555  14.981  13.987   2.246  0.0312 -0.1369  0.1375
 5352W        W23556   7.525  14.135  12.751 -0.0337 -0.0316 -0.0011
 5353W        W23557   1.465   7.128   2.665  0.1802 -0.0554  0.0454
 5354W        W23558   8.068  14.110  13.443 -0.0837 -0.0312 -0.3079
 5355W        W23559  12.078   1.408   0.596 -0.3279  0.0919  0.1119
 5356W        W23560  12.726  12.597   3.984 -0.0634  0.3005 -0.0069
 5357W        W23561   1.968  16.492  11.145  0.2043 -0.0373 -0.1347
 5358W        W23562  10.353  17.741  15.373  0.1960  0.0164  0.1721
 5359W        W23563   4.632  18.190  14.408  0.2939 -0.0376  0.2005
 5360W        W23564  17.491   1.848   2.605 -0.1106 -0.0966 -0.0273
 5361W        W23565   7.190   9.077   0.266  0.1657 -0.1892  0.1451
 5362W        W23566  15.640   8.455  15.388  0.0412  0.0246  0.0471
 5363W        W23567   7.843   1.491   2.027  0.0008 -0.0098 -0.0013
 5364W        W23568  16.350  16.392   3.303  0.3829  0.2878 -0.1979
 5365W        W23569  16.490  10.321  12.493 -0.2037 -0.0141  0.0977
 5366W        W23570  13.076   3.790   3.710  0.1394  0.1256  0.3987
 5367W        W23571  16.373   5.994   3.161 -0.0452 -0.0744  0.3298
 5368W        W23572  14.354   7.692   0.800  0.0557 -0.0354 -0.1018
 5369W        W23573  15.858   0.621   4.252  0.0962  0.4131  0.0842
 5370W        W23574   3.814   8.854  11.102  0.1194 -0.2761  0.1721
 5371W        W23575   9.706  11.484  13.585  0.1489  0.1160  0.3379
 5372W        W23576  11.409  16.835  12.809 -0.4718  0.1459 -0.2457
 5373W        W23577   0.753  15.221   4.880 -0.3818  0.0830 -0.6177
 5374W        W23578   4.913   6.063  13.020  0.1248  0.0516 -0.1203
 5375W        W23579   5.721   6.026  11.908  0.1459 -0.1058 -0.5122
 5376W        W23580   1.172  11.133  14.040  0.2248  0.3702 -0.1859
 5377W        W23581   8.832  15.157  13.929  0.1408 -0.0198  0.2554
 5378W        W23582  13.139   6.470   0.958  0.1007 -0.1886 -0.2118
 5379W        W23583   8.949   4.180   5.003  0.0420 -0.2148 -0.3475
 5380W        W23584  11.780   6.318  13.772 -0.0394  0.1004 -0.1098
 5381W        W23585   6.006  15.266   0.969 -0.2837 -0.0477 -0.0134
 5382W        W23586  15.580  10.156   4.800  0.2029 -0.2773  0.1590
 5383W        W23587   5.460   9.785  15.200 -0.4204  0.0664  0.0446
 5384W        W23588  10.474   8.565  11.653  0.0386 -0.1089 -0.1997
 5385W        W23589  17.424  18.524   4.187  0.0100  0.1336 -0.0753
 5386W        W23590   7.676   2.375  12.096 -0.3854  0.3323 -0.0559
 5387W        W23591  10.186  15.379   3.512 -0.1162 -0.1248  0.0779
 5388W        W23592  12.339   1.336  11.991  0.3332  0.2524 -0.4104
 5389W        W23593   4.449  15.605  11.825 -0.4008  0.2927  0.0626
 5390W        W23594  14.276  15.248  14.317 -0.0313 -0.1584 -0.2907
 5391W        W23595   7.898  16.545   0.840  0.1228  0.0712  0.2558
 5392W        W23596   8.586  17.909   2.127  0.1521 -0.1408 -0.0831
 5393W        W23597   1.072   3.080   2.580 -0.2674 -0.2738 -0.0666
 5394W        W23598   6.592   9.798  10.895  0.0857 -0.0112  0.0025
 5395W        W23599  10.410  15.818  14.587 -0.2120 -0.0290 -0.2021
 5396W        W23600  16.243  17.171   4.620  0.2308 -0.2354 -0.0232
 5397W        W23601   8.201  10.030   3.388 -0.1379  0.0912 -0.1327
 5398W        W23602   3.612   2.190   1.831  0.0589  0.1490 -0.2437
 5399W        W23603  11.861  17.972   1.382  0.0918 -0.0252  0.3058
 5400W        W23604  12.728   4.626  14.006 -0.3130  0.0999  0.0693
 5401W        W23605  10.414   2.463   0.669 -0.1410 -0.1434  0.3060
 5402W        W23606   6.572  15.622  11.906  0.2511 -0.0534  0.0230
 5403W        W23607   5.709  15.973   2.811 -0.0876  0.0955 -0.0124
 5404W        W23608  14.882  17.772   1.332  0.1097  0.1872 -0.0709
 5405W        W23609  14.498  14.483   1.105  0.0140 -0.2835  0.0385
 5406W        W23610  15.483  12.778   2.480 -0.2289 -0.0239  0.1279
 5407W        W23611   0.237  17.105  13.739 -0.0979  0.3776  0.0552
 5408W        W23612   3.176   9.116   3.716 -0.0798  0.1602  0.1370
 5409W        W23613   6.066   8.977  12.906  0.1359 -0.1924  0.1768
 5410W        W23614   0.780   5.489  12.560  0.1522  0.0850  0.1662
 5411W        W23615   6.913   2.871  12.556  0.2688 -0.0434 -0.0922
 5412W        W23616  13.646   3.525  13.056 -0.0901 -0.0788  0.0584
 5413W        W23617  11.942  14.003   0.903 -0.2142  0.1691 -0.0389
 5414W        W23618   8.124  12.194   1.126 -0.0092 -0.3738 -0.2520
 5415W        W23619  16.968  14.585   5.615  0.0486 -0.2514 -0.0357
 5416W        W23620   4.682  11.573  14.479  0.0843  0.3243 -0.1002
 5417W        W23621  15.960   4.791   2.160  0.0904  0.2528  0.1490
 5418W        W23622   8.554  14.004   1.260 -0.0274  0.0804 -0.5323
 5419W        W23623   2.585   2.349  15.219  0.1614  0.1622 -0.0891
 5420W        W23624  12.957  16.593   1.881 -0.2274  0.2937 -0.0205
 5421W        W23625   8.716  10.751  14.361  0.0553 -0.0728  0.2481
 5422W        W23626  13.855  18.007   3.259 -0.0378 -0.2341 -0.2110
 5423W        W23627   2.217   4.932   3.953 -0.1282  0.0859 -0.3007
 5424W        W23628  14.415   0.587   3.788  0.0471  0.1961 -0.2786
 5425W        W23629  17.108  14.298   0.899 -0.0280  0.1486  0.2064
 5426W        W23630   8.795   1.127   2.811  0.2792  0.2982  0.1755
 5427W        W23631   6.182   6.337   2.863  0.2779 -0.1009 -0.0894
 5428W        W23632  16.598   8.782   4.074 -0.1323  0.0597 -0.3381
 5429W        W23633  11.398   3.440   0.121  0.2109 -0.2436  0.2802
 5430W        W23634   5.621   1.696  13.189 -0.1354 -0.1043 -0.2482
 5431W        W23635  10.030  10.225   5.229  0.2052 -0.0809 -0.1487
 5432W        W23636   4.445   7.486  10.494  0.1212  0.1404  0.2945
 5433W        W23637  10.056   2.451   3.917 -0.0328 -0.0100 -0.2858
 5434W        W23638   5.122   9.870   0.905 -0.1241  0.0622 -0.0639
 5435W        W23639  18.475   5.750  11.178  0.1942 -0.0162  0.0804
 5436W        W23640   8.470   1.881   2.884 -0.1997  0.0446  0.3450
 5437W        W23641   3.220   7.509   0.138  0.0780  0.0858 -0.2121
 5438W        W23642   6.812  15.211   4.623 -0.1930 -0.1378 -0.2923
 5439W        W23643   6.361   9.894   0.863 -0.1746 -0.1721  0.3987
 5440W        W23644   8.430  10.795   1.192  0.1184 -0.0047  0.1784
 5441W        W23645   5.141   6.492  14.784  0.2618 -0.0384  0.0675
 5442W        W23646  10.595   3.259   4.180 -0.0646  0.3554 -0.0926
 5443W        W23647   2.981   3.809   0.469  0.1216  0.0806 -0.0917
 5444W        W23648  18.517  12.792  10.161 -0.2300 -0.1381  0.0232
 5445W        W23649   8.428  15.691   3.325 -0.1419 -0.0271 -0.0109
 5446W        W23650   3.935  10.675   0.468 -0.3746 -0.1351  0.2249
 5447W        W23651   3.338   0.631  13.613  0.1472  0.3249  0.1655
 5448W        W23652   9.481  13.465   3.895 -0.0896 -0.0296 -0.2052
 5449W        W23653  13.580  17.954   9.975  0.0597 -0.0604  0.0805
 5450W        W23654  17.643   7.636  14.670 -0.1408  0.0774  0.1781
 5451W        W23655  12.390  14.013   0.515  0.2847  0.0739  0.0243
 5452W        W23656  15.516   4.479  14.859  0.1802 -0.1670 -0.0660
 5453W        W23657  17.469  13.315   4.416 -0.3101 -0.0220 -0.1806
 5454W        W23658   2.499   9.477   0.073  0.1035  0.0164 -0.0792
 5455W        W23659  12.406   4.575   1.542  0.1166  0.1968  0.2118
 5456W        W23660   0.874   7.345   9.968 -0.0354  0.2233 -0.3208
 5457W        W23661   9.675   7.165   1.650 -0.0244  0.0746  0.2007
 5458W        W23662   1.190   3.787   4.727  0.0138 -0.2131  0.1381
 5459W        W23663   6.713  15.703   2.157 -0.0166  0.0540 -0.0070
 5460W        W23664  14.907  10.468   0.314  0.0740 -0.3005  0.1154
 5461W        W23665  17.001  10.338   1.606  0.0453  0.0511 -0.1184
 5462W        W23666  17.425   1.355  13.386  0.1732 -0.0851 -0.1159
 5463W        W23667   8.671   9.692  13.751  0.4348  0.0738  0.0654
 5464W        W23668   2.193   0.589  14.168 -0.0353 -0.0115 -0.0064
 5465W        W23669  18.254  10.285   1.548  0.2545 -0.0348  0.0814
 5466W        W23670   0.690   0.878  13.294 -0.1411  0.0313 -0.0553
 5467W        W23671  11.753   4.315   3.351  0.0341 -0.2247 -0.0011
 5468W        W23672  18.504  10.582   4.879 -0.2636 -0.0085  0.2951
 5469W        W23673   7.126  15.116   0.819  0.0168 -0.0374 -0.1117
 5470W        W23674  14.323   3.154  12.352 -0.2413  0.0090  0.0568
 5471W        W23675  11.997   1.516  12.466 -0.2464 -0.0950 -0.1035
 5472W        W23676   0.493   1.022   4.386  0.0987 -0.2114 -0.0503
 5473W        W23677   1.944   1.733   0.009  0.1089  0.1331 -0.0444
 5474W        W23678   7.677  11.505   3.374 -0.0505  0.4877 -0.1025
 5475W        W23679  10.270  15.210   2.931  0.0119 -0.2809  0.0999
 5476W        W23680  15.787   2.680   0.603  0.1584 -0.0789  0.1163
 5477W        W23681   6.487   8.619   4.261  0.0811  0.3485 -0.3530
 5478W        W23682  18.383  14.489  11.872 -0.1721 -0.2819 -0.1524
 5479W        W23683  15.055  11.497   1.394  0.1637 -0.1446 -0.1096
 5480W        W23684   7.068  15.442  11.738  0.0603  0.3437  0.3845
 5481W        W23685  17.500  15.278   4.047 -0.1417 -0.0265  0.1648
 5482W        W23686  14.670  14.888  15.403 -0.1199 -0.1327 -0.1887
 5483W        W23687  17.390   5.472  10.878  0.2614 -0.1041 -0.0406
 5484W        W23688  11.410   0.649  15.237  0.0472 -0.1181 -0.0419
 5485W        W23689  15.881  13.167  14.912  0.1802 -0.0355  0.3172
 5486W        W23690   1.153   4.014  10.799 -0.5022  0.3301  0.4680
 5487W        W23691  10.502  14.660   1.950 -0.1720  0.3673  0.0234
 5488W        W23692   6.726  17.304   3.212  0.0228  0.2731  0.2471
 5489W        W23693  17.769  12.989  13.459 -0.2629  0.0895  0.3438
 5490W        W23694  16.980   7.625   2.202  0.1939 -0.0925 -0.0897
 5491W        W23695  18.049  18.374   5.195  0.0142  0.0924 -0.1016
 5492W        W23696  12.865  17.695   3.822  0.1275 -0.2378 -0.4174
 5493W        W23697  11.547   9.602  12.821 -0.1143 -0.2935  0.1421
 5494W        W23698   1.815  13.392   4.181 -0.0802  0.0429 -0.3734
 5495W        W23699  15.011   3.344   4.056 -0.1189 -0.1104  0.2738
 5496W        W23700   4.047  12.693   4.274 -0.1865  0.2298 -0.3356
 5497W        W23701  11.385   1.280  14.374  0.1076  0.1773 -0.2386
 5498W        W23702  10.130   9.226  15.417  0.2890 -0.1242 -0.1072
 5499W        W23703   0.479  17.448  15.017 -0.4025  0.1032  0.1485
 5500W        W23704   6.664  13.854  11.863  0.3074 -0.2385 -0.0931
 5501W        W23705  13.262  14.172  14.683  0.2561 -0.2998 -0.0093
 5502W        W23706   6.635   7.438   3.949  0.1163  0.1156 -0.0855
 5503W        W23707  10.024  14.851   1.867 -0.0007  0.1432 -0.0827
 5504W        W23708   7.967   3.913  10.928  0.0584  0.1042 -0.0150
 5505W        W23709  12.034   6.777  12.978  0.1415  0.3100 -0.0730
 5506W        W23710   7.055  16.395  13.818 -0.2371 -0.1887  0.1541
 5507W        W23711   3.442   9.499  11.820 -0.0519 -0.2335  0.0188
 5508W        W23712   1.252   0.784   1.698  0.2267  0.2953  0.1345
 5509W        W23713   8.103   8.239  11.739 -0.2321 -0.2313 -0.0290
 5510W        W23714  15.361  10.292  14.102  0.0415  0.0469  0.0322
 5511W        W23715   3.016   3.865   1.501 -0.1784 -0.2448 -0.2101
 5512W        W23716  13.623  16.779   4.964  0.1481 -0.1839 -0.1706
 5513W        W23717   8.693   1.143   5.049  0.0093  0.1908 -0.5000
 5514W        W23718   9.297   6.361   3.179  0.1135 -0.0124 -0.1194
 5515W        W23719   1.103  10.856  11.593 -0.1734 -0.1723  0.1665
 5516W        W23720  18.097   0.209   1.863  0.0171  0.1639 -0.1405
 5517W        W23721  16.411   9.062  12.778  0.0600  0.0164 -0.0033
 5518W        W23722  15.726   5.627  12.699 -0.1164  0.0657 -0.0965
 5519W        W23723   5.128   4.734   1.221 -0.0900  0.1879  0.0756
 5520W        W23724   7.420   0.099  15.334  0.2592 -0.1682  0.1538
 5521W        W23725  11.931  17.247  12.528 -0.0787 -0.0086 -0.0886
 5522W        W23726  13.437  13.212  14.147  0.0908 -0.0527 -0.1416
 5523W        W23727  12.396   0.610  15.018 -0.0755 -0.1161 -0.3083
 5524W        W23728   5.264  11.741  15.054 -0.1141  0.2870 -0.0381
 5525W        W23729  16.068   3.852  11.124  0.0430 -0.1295  0.2465
 5526W        W23730   8.920   1.719   1.968 -0.1204  0.1011  0.1579
 5527W        W23731  17.648   9.639  12.154 -0.0151 -0.0652 -0.0203
 5528W        W23732  11.756  15.256  11.441  0.1048  0.0873 -0.1856
 5529W        W23733  11.971   2.076  11.322 -0.3163  0.0274 -0.0339
 5530W        W23734   2.232  11.530   4.509  0.0563 -0.2438  0.1445
 5531W        W23735   0.109  10.263  14.156  0.1719 -0.2357  0.0085
 5532W        W23736  13.126   4.764  14.452  0.0714  0.1631 -0.3153
 5533W        W23737   5.639  12.685   3.857 -0.0075 -0.1511  0.1273
 5534W        W23738  12.302  16.825  13.251  0.4414  0.0039  0.1838
 5535W        W23739   7.403   1.338  10.749  0.2294 -0.1187  0.1174
 5536W        W23740   3.106  13.165  13.349  0.0901 -0.0219  0.0269
 5537W        W23741  11.476  15.739  14.497  0.0422 -0.0818  0.0607
 5538W        W23742   9.593  16.315  10.080  0.1521 -0.0593  0.0612
 5539W        W23743   9.829   0.133  13.295  0.0144 -0.0271 -0.0433
 5540W        W23744   4.612   8.212  15.023  0.1589 -0.1232  0.1686
 5541W        W23745  12.398   9.374   4.040 -0.3134  0.2052  0.1092
 5542W        W23746   8.337  16.043  11.912 -0.0865  0.1990  0.5201
 5543W        W23747   9.691  12.705   4.485 -0.0296  0.1377 -0.0602
 5544W        W23748   3.417   4.810  14.646 -0.0442  0.3087 -0.0516
 5545W        W23749   3.063  10.769  11.422 -0.1658 -0.0874  0.1384
 5546W        W23750   0.698  14.237  12.152 -0.1324  0.0737  0.0319
 5547W        W23751   3.836   2.085  13.705  0.2130  0.0038 -0.4366
 5548W        W23752  16.424  15.704  12.759  0.0757 -0.4585  0.0404
 5549W        W23753   6.657  17.790   3.636  0.3977  0.0129  0.0613
 5550W        W23754   8.890   9.912  10.834 -0.0636  0.1911 -0.1683
 5551W        W23755   3.937   7.740  12.745 -0.3960 -0.0341  0.0426
 5552W        W23756   2.465  14.142   4.360 -0.0225  0.1854 -0.0070
 5553W        W23757  13.549   8.523   0.082 -0.0199 -0.2217 -0.1107
 5554W        W23758   9.242   2.810   0.634 -0.3070  0.0166  0.0179
 5555W        W23759   4.785  14.271   0.900  0.0405 -0.0299  0.2757
 5556W        W23760  17.882  11.396   4.845 -0.0126 -0.1233  0.2318
 5557W        W23761   3.573  14.328  12.463 -0.2852 -0.0509 -0.3720
 5558W        W23762  13.641  18.419   2.254 -0.2137 -0.1043  0.1218
 5559W        W23763   0.591  17.081   1.511 -0.0156 -0.0853  0.0424
 5560W        W23764  10.466  10.219  11.841 -0.0206 -0.2039 -0.0847
 5561W        W23765   3.757   1.099  10.390  0.1467 -0.0235 -0.0152
 5562W        W23766   1.285   6.975   3.096 -0.0137  0.0487  0.0123
 5563W        W23767  13.729   6.128  12.551  0.4651  0.1096  0.2128
 5564W        W23768   6.663   9.450  13.282  0.0235  0.2029  0.1388
 5565W        W23769   3.467  17.014  13.669 -0.2143 -0.3949  0.3114
 5566W        W23770  10.028  12.585   1.029 -0.0989 -0.1225  0.0966
 5567W        W23771   1.208  14.861   0.606 -0.2795 -0.0028  0.2347
 5568W        W23772   6.916   1.898  14.681 -0.0191  0.0835 -0.0274
 5569W        W23773   4.321  12.530  11.796  0.0588  0.0830 -0.4140
 5570W        W23774   1.097   4.748  11.471  0.1043 -0.0096 -0.2193
 5571W        W23775   1.680   5.213  11.022  0.2206  0.2757 -0.1979
 5572W        W23776   3.230  11.321  11.573  0.0792 -0.0361  0.0796
 5573W        W23777   1.049  14.699   2.667 -0.2522 -0.2977  0.0009
 5574W        W23778   8.183   8.283  14.492  0.0936 -0.1720  0.1206
 5575W        W23779   1.463   7.276   0.383 -0.3213  0.1905 -0.1021
 5576W        W23780   6.791  14.376   2.865 -0.2224 -0.1598  0.0668
 5577W        W23781   3.400  11.894   2.715 -0.1458  0.1458 -0.3693
 5578W        W23782   4.892   4.745   0.543 -0.3621  0.0935  0.4253
 5579W        W23783  12.716  16.259  15.082 -0.2701  0.3304 -0.1939
 5580W        W23784  13.409   3.377  11.927  0.1907 -0.2402  0.1453
 5581W        W23785   9.126   9.308  14.639 -0.0515  0.0220  0.0249
 5582W        W23786   2.036  10.051   3.243 -0.0057  0.0829  0.0168
 5583W        W23787   4.436  13.454   0.387  0.0998  0.1776  0.1112
 5584W        W23788  16.070   7.354   2.062  0.0485  0.2583  0.0770
 5585W        W23789   5.166  16.219   0.583  0.2444 -0.2031  0.0718
 5586W        W23790   3.937  14.674  14.348 -0.1888 -0.1896 -0.2901
 5587W        W23791   9.564   9.779  14.919 -0.1917 -0.0465  0.0830
 5588W        W23792   8.710   5.255   2.941  0.1083 -0.0210 -0.0457
 5589W        W23793   1.214   7.037  11.256 -0.0539  0.1864 -0.4095
 5590W        W23794  17.716  16.771   1.881  0.3109  0.0755 -0.1753
 5591W        W23795  18.542   3.471   3.162 -0.1366  0.1366  0.1639
 5592W        W23796  10.552   5.607   4.280 -0.0696  0.1578 -0.0753
 5593W        W23797  12.550  15.473   0.777  0.0883  0.1060  0.1667
 5594W        W23798  10.939   8.658   4.063  0.1069  0.0725 -0.1488
 5595W        W23799   9.593   5.051  12.396 -0.1486 -0.0956 -0.0029
 5596W        W23800  15.813  16.239   0.653 -0.3501 -0.0808  0.0308
 5597W        W23801   6.115   6.063  13.357 -0.1014  0.1546 -0.0394
 5598W        W23802   9.501  13.464  12.262 -0.1299 -0.4879  0.1101
 5599W        W23803  15.335  10.447   2.358  0.0863 -0.1414  0.1310
 5600W        W23804  12.740  11.467  11.918 -0.1655  0.0002 -0.2522
 5601W        W23805  13.008   7.846   1.327 -0.1499 -0.3009 -0.1836
 5602W        W23806  12.594   9.653   1.611  0.1948  0.1374 -0.0859
 5603W        W23807   6.160  18.618   1.125  0.1097 -0.2562 -0.2536
 5604W        W23808  11.986  13.720  12.933 -0.2403 -0.0423 -0.2664
 5605W        W23809  13.824   0.804   2.027  0.0513 -0.3412  0.1253
 5606W        W23810  18.043  18.298  14.863  0.0512  0.1394 -0.0548
 5607W        W23811   9.536  16.988   1.337 -0.0223  0.2947 -0.0881
 5608W        W23812  13.181   6.802  13.787  0.1967 -0.0814  0.2481
 5609W        W23813  13.485  13.716  13.969 -0.2302 -0.0206 -0.3371
 5610W        W23814   9.490   4.981  11.033  0.1306  0.3830 -0.1942
 5611W        W23815  11.839   7.084  14.291  0.1516 -0.2920 -0.1673
 5612W        W23816  12.916  16.884   4.350 -0.0519  0.0546  0.4066
 5613W        W23817  10.080   4.250   1.204 -0.2199 -0.5355 -0.1339
 5614W        W23818   5.858   6.743  14.483 -0.1930 -0.0051 -0.1537
 5615W        W23819  11.142  17.975  12.049 -0.0817 -0.0024 -0.0188
 5616W        W23820   1.008   5.091  10.399  0.0885 -0.1951  0.0297
 5617W        W23821   7.216  13.064  11.580  0.2157  0.1272  0.0669
 5618W        W23822  16.230  14.968  12.732  0.0515 -0.1448 -0.0582
 5619W        W23823  10.745   1.652  13.913  0.1574  0.0335 -0.0098
 5620W        W23824  18.483   2.233   3.595  0.0802  0.2267  0.1554
 5621W        W23825   0.371  18.387   3.874 -0.1468  0.0905  0.0479
 5622W        W23826   0.386  11.528   4.148 -0.1619 -0.2235 -0.1072
 5623W        W23827  12.637  11.842  15.102  0.5118 -0.5802  0.3050
 5624W        W23828   8.855  12.236  13.616  0.1354  0.1372  0.0759
 5625W        W23829   0.147  10.926  15.175  0.2719  0.1424 -0.0992
 5626W        W23830  11.120  11.162   0.470 -0.1445 -0.4431 -0.3738
 5627W        W23831  12.957   6.286  14.955  0.0191  0.1684  0.2011
 5628W        W23832   0.427   8.443  12.074  0.0323 -0.1461 -0.3209
 5629W        W23833  16.163   0.725  11.046 -0.0607 -0.1777 -0.0937
 5630W        W23834   5.835   3.385   4.036 -0.0533 -0.1249 -0.0536
 5631W        W23835  15.905  16.054   2.013  0.0267 -0.0806 -0.2593
 5632W        W23836   2.040   1.033   1.212  0.1179 -0.1858 -0.0678
 5633W        W23837  15.663  12.589   5.089  0.3275 -0.0575  0.0201
 5634W        W23838  17.155   8.899   1.332 -0.2342 -0.3786  0.1511
 5635W        W23839  14.013  14.020   3.727  0.1116  0.2753 -0.1666
 5636W        W23840  11.041   4.270  12.186  0.0733 -0.3012 -0.0516
 5637W        W23841   0.826   7.179  10.413 -0.1071 -0.1741 -0.3309
 5638W        W23842  17.707  16.224  11.885  0.1206  0.1792  0.0619
 5639W        W23843   6.861   8.297   2.155 -0.4851 -0.2516 -0.0484
 5640W        W23844   1.648  12.077   3.078 -0.1162  0.3647 -0.1136
 5641W        W23845   3.100   3.480   0.029 -0.0864  0.0751 -0.1962
 5642W        W23846   9.485  11.352   3.828  0.0973 -0.1926  0.1687
 5643W        W23847   0.561   9.891   1.240  0.1445 -0.0493 -0.0597
 5644W        W23848  10.373   0.160   4.759  0.3367 -0.0481 -0.3600
 5645W        W23849  18.030   4.480  13.209 -0.1413 -0.1366  0.4397
 5646W        W23850   6.029  16.111   1.208  0.1133  0.1057  0.1019
 5647W        W23851   1.176  14.496   4.633  0.0923 -0.3674  0.1638
 5648W        W23852  11.684   8.968  10.540 -0.1853  0.3289  0.0147
 5649W        W23853  18.375  13.869   2.922 -0.3869  0.0561 -0.0134
 5650W        W23854   4.962   4.553  12.336 -0.0908  0.0988  0.2195
 5651W        W23855   2.809  10.742  14.621 -0.4323  0.1235 -0.0319
 5652W        W23856   0.172   3.514   2.135  0.0835 -0.1192 -0.4690
 5653W        W23857   3.007  17.090   3.465 -0.0028  0.0708 -0.2386
 5654W        W23858   8.896  11.807   2.867 -0.0849  0.1746 -0.1289
 5655W        W23859   0.380  13.004  11.892 -0.1724 -0.1552  0.0770
 5656W        W23860  17.951  17.286  13.752  0.3540 -0.2063  0.1229
 5657W        W23861   4.430   9.317   2.775  0.1312  0.1824  0.3444
 5658W        W23862   1.421   9.382   2.616  0.0601 -0.1614 -0.3845
 5659W        W23863   1.003  14.564   3.114 -0.0400 -0.2398  0.1971
 5660W        W23864  14.661  13.704  11.644  0.0937 -0.1706  0.1677
 5661W        W23865   7.444  10.177  15.322  0.2527  0.0789  0.0784
 5662W        W23866   3.899  14.538   1.248 -0.2411 -0.1159 -0.2920
 5663W        W23867   6.078  16.692   0.027  0.1290 -0.1000 -0.3175
 5664W        W23868  10.334  12.251  12.056 -0.3276 -0.1078  0.3670
 5665W        W23869   6.145  16.756  13.637  0.0787 -0.2495 -0.1574
 5666W        W23870  11.221   4.596  12.601 -0.1148  0.1971  0.2582
 5667W        W23871  17.578   2.458  14.901  0.0269 -0.0764  0.1566
 5668W        W23872   6.924  14.276   4.919 -0.0886 -0.1812 -0.0423
 5669W        W23873   9.227   8.638   3.624 -0.1480 -0.1879 -0.0115
 5670W        W23874   3.362  13.769   2.021 -0.2936  0.0901 -0.0887
 5671W        W23875   1.199  15.632   1.310 -0.2451  0.2651  0.2468
 5672W        W23876   0.711  10.135  14.840  0.1609  0.0394 -0.1119
 5673W        W23877  13.194   5.496   1.683 -0.0399 -0.0050 -0.3958
 5674W        W23878   9.741  16.612   4.636  0.0130  0.0656 -0.3950
 5675W        W23879  16.869   5.778  13.532 -0.1963  0.1118  0.3422
 5676W        W23880   1.178  15.489   0.106  0.2819 -0.0417  0.2298
 5677W        W23881  14.543  14.408   0.139  0.1596  0.1075  0.2769
 5678W        W23882   7.287   0.752   0.213 -0.3912  0.1088 -0.0077
 5679W        W23883   5.323   3.970  12.459  0.1303  0.0286 -0.1641
 5680W        W23884  11.434   6.624  11.839  0.0378 -0.1893  0.1938
 5681W        W23885  10.965  15.938  12.745 -0.1141 -0.1381 -0.1051
 5682W        W23886  11.640   2.039   1.419  0.1748  0.0624 -0.3560
 5683W        W23887   6.015   2.252   3.988 -0.2291  0.1725  0.0299
 5684W        W23888  13.244   8.683  13.856 -0.1958  0.3426  0.1692
 5685W        W23889  12.812  10.815  13.452 -0.0049  0.1437 -0.3201
 5686W        W23890   9.860   2.702   4.392 -0.0522  0.1950  0.0752
 5687W        W23891   0.115   8.692  13.113  0.2901 -0.0010  0.3279
 5688W        W23892   9.736  16.523  10.501 -0.1787 -0.3184 -0.2280
 5689W        W23893  15.858   7.712  10.000  0.0134  0.1944  0.0166
 5690W        W23894  10.361  11.172   4.070  0.2412 -0.3282  0.0079
 5691W        W23895   3.342  18.149  11.239 -0.1827 -0.0557  0.0408
 5692W        W23896  15.462   4.998   3.912  0.2251 -0.1671 -0.0974
 5693W        W23897  13.158   2.186  11.951 -0.1092  0.0562 -0.1433
 5694W        W23898   0.523  12.110   4.344 -0.1057  0.0780 -0.0423
 5695W        W23899  12.852   4.026  14.864 -0.4531  0.0061  0.1277
 5696W        W23900   6.501  10.741  11.992 -0.1224 -0.0211  0.1441
 5697W        W23901   1.758   0.302  14.932  0.1971  0.0804 -0.3940
 5698W        W23902   7.959   2.688  14.917 -0.1112  0.2208 -0.0722
 5699W        W23903   0.549  13.276   0.827  0.1419 -0.1056 -0.0973
 5700W        W23904  13.490   2.216  13.951 -0.0862  0.0389  0.1796
 5701W        W23905   8.289   6.064  13.037  0.2648  0.0096  0.1526
 5702W        W23906   8.142   3.596   4.211  0.0268  0.5900  0.3478
 5703W        W23907  12.301  10.347  14.424 -0.0634 -0.0588 -0.1484
 5704W        W23908  12.047  17.829   0.803  0.0745 -0.1969  0.1386
 5705W        W23909   1.152   8.324   4.401 -0.0945 -0.2964  0.1163
 5706W        W23910  14.608   6.649  12.367 -0.0942  0.2977  0.2127
 5707W        W23911   8.181   8.852  10.965 -0.0843  0.0092 -0.2117
 5708W        W23912   9.124   6.441   1.960  0.1240  0.0832 -0.1106
 5709W        W23913   8.414  11.695  12.594  0.1782  0.2046 -0.0473
 5710W        W23914  15.401   4.366   2.594  0.1318 -0.2238 -0.0032
 5711W        W23915   5.885  15.919   3.880  0.0217  0.0707 -0.0468
 5712W        W23916  18.400   5.784   3.818 -0.0886  0.1323 -0.0700
 5713W        W23917  13.109  15.369  14.658 -0.0892 -0.0085  0.1303
 5714W        W23918   9.372  15.140  15.082 -0.1772  0.0688  0.0869
 5715W        W23919   0.006   8.555   1.025 -0.1071 -0.0508 -0.0214
 5716W        W23920   1.808   8.677   2.834 -0.0775 -0.0214  0.1748
 5717W        W23921  10.855  11.014  14.889 -0.1856  0.0016 -0.2854
 5718W        W23922  10.978  10.421  13.942  0.1329  0.2359  0.0474
 5719W        W23923   6.820   1.472   0.258 -0.2885  0.2895 -0.3277
 5720W        W23924  10.044  13.779   1.753  0.2725  0.3395 -0.0882
 5721W        W23925  14.123   4.703  11.821  0.0336 -0.0151  0.2386
 5722W        W23926   4.404  11.970   1.658 -0.2773 -0.1688  0.0305
 5723W        W23927  10.659  15.573   3.142  0.6328 -0.1464 -0.1062
 5724W        W23928   2.917  10.719  13.808  0.0151 -0.0265  0.0300
 5725W        W23929   8.963  18.490  14.729  0.0668 -0.2012 -0.0032
 5726W        W23930   1.858   3.147  11.799 -0.1092 -0.2021 -0.0707
 5727W        W23931   5.742   9.065   2.274 -0.0700  0.0849 -0.1316
 5728W        W23932   3.542  16.228  14.731 -0.0452  0.0702  0.2168
 5729W        W23933   1.075   4.686  13.056 -0.0338 -0.4105 -0.0836
 5730W        W23934   6.625   3.118   2.727 -0.0046 -0.0947  0.1375
 5731W        W23935  16.399  15.852   1.399  0.2454 -0.2376  0.1755
 5732W        W23936  10.828  12.290  14.157 -0.1490 -0.2388 -0.2707
 5733W        W23937  16.670   7.491  15.407  0.1137  0.2106  0.0344
 5734W        W23938   5.793   7.164   2.676 -0.0223 -0.1094  0.0926
 5735W        W23939  16.347  18.390  14.368  0.0316  0.0422 -0.0689
 5736W        W23940   6.308   1.432   3.977 -0.1140 -0.0351  0.3052
 5737W        W23941   4.938   6.049   4.056  0.0139 -0.1939 -0.0639
 5738W        W23942  16.686   9.886  12.192 -0.2976 -0.1097 -0.0609
 5739W        W23943   9.604  17.284  11.400  0.2207 -0.3508  0.3992
 5740W        W23944  15.032  10.838  15.338 -0.2959  0.0014 -0.1169
 5741W        W23945  18.226   6.203   1.258  0.2680  0.0739 -0.0362
 5742W        W23946  13.593  16.458   3.277  0.1179  0.2389  0.2741
 5743W        W23947  16.101  13.313   1.784  0.0566  0.2987 -0.1613
 5744W        W23948   1.444   7.234  11.657 -0.0664  0.0444 -0.1760
 5745W        W23949   4.676   6.588  13.186 -0.0610  0.1806 -0.1765
 5746W        W23950  17.897  10.740   5.573 -0.0861 -0.0021  0.0968
 5747W        W23951  12.509   6.472   2.634  0.1106  0.0693 -0.1038
 5748W        W23952   0.724   4.043  14.411 -0.2693  0.1410  0.3090
 5749W        W23953  14.008   8.338   3.772 -0.0151 -0.1694 -0.1178
 5750W        W23954   1.423   5.850   1.206  0.0477 -0.1201  0.0980
 5751W        W23955  10.902   1.248  13.645 -0.0952  0.4783  0.0490
 5752W        W23956   9.695  15.599  13.641 -0.1156 -0.1408 -0.1212
 5753W        W23957   2.301   3.159  13.830 -0.0239 -0.2807  0.1184
 5754W        W23958  15.672   1.140   3.476 -0.3857 -0.1016 -0.3505
 5755W        W23959  18.574   8.031  11.251  0.0763  0.1478 -0.1843
 5756W        W23960   8.714  17.798   5.755 -0.1894  0.1888 -0.2001
 5757W        W23961   5.063  12.955   2.302 -0.1054  0.1142 -0.2868
 5758W        W23962   2.183  16.816   3.252 -0.1325 -0.1494  0.1148
 5759W        W23963   1.692  11.452  14.273 -0.0329 -0.0870  0.0788
 5760W        W23964  15.007   4.358  11.074  0.1907 -0.0314 -0.2848
 5761W        W23965   0.723  17.690  11.893 -0.1819  0.2443 -0.0279
 5762W        W23966  15.016  17.182  12.376 -0.0196 -0.4781 -0.1765
 5763W        W23967   2.588   7.872  11.315 -0.2174  0.2468  0.1528
 5764W        W23968  15.828   9.523   1.787 -0.3324  0.1926 -0.0002
 5765W        W23969   1.913  12.860   1.996 -0.0737  0.0114  0.1971
 5766W        W23970  13.794   2.340   4.571  0.2361  0.4234 -0.1340
 5767W        W23971  12.253  14.222   2.293  0.2670 -0.1690 -0.1415
 5768W        W23972  18.508  14.477  13.282 -0.0537  0.0949 -0.3070
 5769W        W23973  14.596   0.091  14.597  0.0891  0.0160 -0.2055
 5770W        W23974   7.913   3.973   0.762  0.0364 -0.1481 -0.4706
 5771W        W23975  12.568   6.609  14.107 -0.1714  0.1112  0.0857
 5772W        W23976  15.435  13.748  11.175 -0.0044 -0.1406  0.0669
 5773W        W23977   5.033  10.101   4.302  0.1940 -0.2665 -0.3221
 5774W        W23978  11.340   9.213  13.307 -0.1569  0.0820 -0.2790
 5775W        W23979  15.430   4.879  12.394  0.2145  0.0575  0.0536
 5776W        W23980  10.809  15.852  13.312 -0.0129  0.3024 -0.1471
 5777W        W23981   0.059   2.516   4.439  0.2885 -0.1341  0.0003
 5778W        W23982   6.223   3.168  11.732  0.4785  0.1144 -0.0874
 5779W        W23983  13.737   0.614  12.655  0.0055  0.1204 -0.0937
 5780W        W23984   5.932   5.179   0.008  0.0900  0.0008  0.0316
 5781W        W23985   8.745   2.394  11.930  0.1267  0.0355  0.1248
 5782W        W23986   4.141  13.587  11.776 -0.1777  0.0852  0.2436
 5783W        W23987  14.885   7.517   0.706  0.3592 -0.1068 -0.0410
 5784W        W23988   8.291   5.008  13.327 -0.1333  0.4999 -0.0440
 5785W        W23989   8.090   6.664  13.770 -0.1868  0.1563  0.1101
 5786W        W23990   2.224   9.403  10.768 -0.2120  0.2143 -0.1157
 5787W        W23991  16.098   5.805   5.168  0.2552  0.2413 -0.0530
 5788W        W23992   8.725  16.779   0.293 -0.1645  0.0336 -0.1206
 5789W        W23993  16.854   5.587  10.933 -0.0501  0.1058  0.1062
 5790W        W23994  14.029  12.850   0.031 -0.1494  0.0592  0.0352
 5791W        W23995  16.748  17.112  14.413 -0.0785  0.0697  0.0184
 5792W        W23996  10.865  10.272   4.653 -0.0458  0.0858  0.0027
 5793W        W23997   9.173  14.172   0.733  0.1728  0.0758  0.0908
 5794W        W23998   2.298  16.034  14.151  0.1439 -0.0645 -0.2938
 5795W        W23999   1.584  12.780  13.653 -0.0288 -0.0935  0.0374
 5796W        W24000   1.743  11.479   1.370  0.0300  0.0439  0.1001
 5797W        W24001   7.264   8.796   2.998 -0.0305 -0.0901  0.0727
 5798W        W24002   7.865   5.813  12.831  0.3261  0.2907 -0.1151
 5799W        W24003   4.815   5.328   3.646  0.2245  0.1551  0.3460
 5800W        W24004   7.067  16.401  11.498 -0.2500 -0.1033  0.1573
 5801W        W24005   7.307   8.442  10.041  0.2966  0.2218 -0.1404
 5802W        W24006  16.201   6.138  13.658  0.2327  0.1617 -0.1215
 5803W        W24007   9.352  11.947  11.437  0.1777 -0.1688  0.1150
 5804W        W24008  10.602   2.174  13.759 -0.1322  0.0851  0.1059
 5805W        W24009   0.473   6.929  14.242  0.2107  0.4002  0.2189
 5806W        W24010  12.704   1.506  11.591 -0.1446  0.1516  0.1381
 5807W        W24011  14.625  15.235   5.180 -0.0384 -0.0150 -0.1091
 5808W        W24012   3.608   2.510  14.378 -0.0307  0.1083 -0.1996
 5809W        W24013   6.025  13.902   1.430  0.0545 -0.3258  0.1150
 5810W        W24014   9.447  15.836   4.152 -0.2185 -0.3659 -0.0372
 5811W        W24015   5.669   5.619  12.722 -0.3106 -0.0634  0.4665
 5812W        W24016  17.494  12.436   4.641 -0.0768  0.2515 -0.2903
 5813W        W24017  10.726   2.769  12.316  0.1003 -0.0246 -0.2622
 5814W        W24018   2.776   3.700  14.125  0.1578  0.0913  0.1160
 5815W        W24019   8.980   6.900   1.049  0.2807  0.2142  0.1281
 5816W        W24020   8.294  13.402  11.559 -0.1550 -0.3761 -0.1913
 5817W        W24021   4.035   3.040  12.859 -0.3132  0.0514  0.2030
 5818W        W24022   8.727   5.029   4.341 -0.1082  0.2582  0.1888
 5819W        W24023   9.526  14.256  11.520 -0.2884 -0.0719 -0.0687
 5820W        W24024   6.014   1.087  11.437 -0.4462 -0.3642 -0.1465
 5821W        W24025   8.953   5.245   3.919 -0.1037 -0.0944 -0.1502
 5822W        W24026   6.399   0.955  14.281  0.3517 -0.1430  0.0904
 5823W        W24027  12.117   2.152   2.941 -0.1938  0.1096 -0.1082
 5824W        W24028   7.935   9.707   2.337 -0.1174 -0.0347  0.0648
 5825W        W24029  17.822   1.083   2.070  0.0114 -0.3008  0.2524
 5826W        W24030   5.302   5.009   1.891  0.0759 -0.1632 -0.2485
 5827W        W24031   2.581   5.450   2.257 -0.5402 -0.1472 -0.0417
 5828W        W24032   2.932   5.596   0.011  0.3173 -0.1567  0.2058
 5829W        W24033   3.147   7.832   0.565 -0.1686 -0.0087  0.0328
 5830W        W24034  17.795   1.853  10.584 -0.0093  0.3517 -0.0425
 5831W        W24035   7.824   5.636  10.527  0.2222 -0.1272  0.3607
 5832W        W24036  15.662   8.805  12.431  0.0931 -0.0082 -0.1419
 5833W        W24037   5.757  15.592   2.457  0.1878  0.1893 -0.1165
 5834W        W24038  18.497   9.374   0.647 -0.0437  0.3963 -0.0132
 5835W        W24039   1.862   0.271  11.010  0.2742  0.1255  0.0252
 5836W        W24040  17.316   7.576   4.497  0.0648  0.1848 -0.0189
 5837W        W24041  12.346   5.082   1.720  0.2657 -0.1144 -0.2132
 5838W        W24042   0.796  14.634   1.780 -0.1105  0.0928  0.1132
 5839W        W24043  15.425  15.677   4.999  0.0527  0.1015 -0.0262
 5840W        W24044   1.749  13.633   0.864  0.0119 -0.0653  0.2607
 5841W        W24045  14.578   6.060   0.595  0.0890  0.0748  0.2414
 5842W        W24046   0.804  13.455  14.315  0.1908 -0.1462 -0.0122
 5843W        W24047  15.073  11.562   4.478  0.0066  0.0001  0.2798
 5844W        W24048  15.999   6.822   2.039  0.0808  0.1319 -0.2891
 5845W        W24049   7.364  17.845  13.770  0.1281  0.0080  0.0109
 5846W        W24050  11.911   9.636  14.264  0.1837  0.0107  0.2269
 5847W        W24051   2.221   7.672   0.295  0.2646 -0.0505  0.2801
 5848W        W24052   5.720  16.864   0.323  0.0863  0.2772 -0.1631
 5849W        W24053   1.168  14.992   0.146  0.0544  0.0140  0.0883
 5850W        W24054  15.933   0.889  14.282  0.2469 -0.0948 -0.0040
 5851W        W24055   7.907   5.290  13.084 -0.0663 -0.1491 -0.0715
 5852W        W24056   3.079  10.364  14.855 -0.1755 -0.0337  0.1427
 5853W        W24057   6.061   9.905   3.164 -0.2535 -0.2402  0.1232
 5854W        W24058  16.887   0.671  12.869 -0.0845 -0.1703  0.1108
 5855W        W24059  17.152   1.789   2.257 -0.2327  0.2918  0.2693
 5856W        W24060   8.717  11.705  13.616 -0.1100 -0.1300  0.0447
 5857W        W24061   8.435  14.135   3.286  0.1018  0.2434 -0.1019
 5858W        W24062   3.900  13.050  13.755 -0.1225 -0.0530  0.1111
 5859W        W24063  18.257   9.122  10.910 -0.2269 -0.0423  0.0432
 5860W        W24064   2.424   5.617  13.838 -0.1525 -0.1090 -0.2191
 5861W        W24065  11.805  13.059   1.278 -0.1560 -0.1051 -0.1329
 5862W        W24066   6.511  18.020   5.704  0.1392 -0.1674 -0.0160
 5863W        W24067  12.549  15.112   2.920 -0.0676 -0.1604  0.0729
 5864W        W24068  13.535   8.717   0.579 -0.3113 -0.1770 -0.2635
 5865W        W24069  13.587  17.766   0.899  0.4083 -0.2223 -0.3897
 5866W        W24070  13.054   2.907   2.469  0.3125 -0.0204 -0.1321
 5867W        W24071   6.381  12.397   0.931 -0.0216  0.0280 -0.0649
 5868W        W24072  10.135  18.600  14.101  0.2388 -0.0409 -0.3713
 5869W        W24073  10.253  12.273  10.739  0.1940 -0.2118 -0.1566
 5870W        W24074   7.850   7.871  14.490 -0.0467 -0.0998  0.0381
 5871W        W24075  16.145   1.345   0.571  0.1480 -0.1511 -0.0522
 5872W        W24076   0.460  14.157   2.648 -0.1868 -0.1961 -0.1852
 5873W        W24077  14.663  13.281   0.315  0.1529  0.1474 -0.2802
 5874W        W24078   1.760  10.728  12.266 -0.1610 -0.0145 -0.3769
 5875W        W24079  17.269   8.762   4.706  0.1686  0.0343 -0.2403
 5876W        W24080   8.881   8.162   4.286 -0.4997 -0.0646 -0.0515
 5877W        W24081   0.572   8.407  15.356  0.1743 -0.1472 -0.2834
 5878W        W24082   7.656  10.225   0.326 -0.0200 -0.0516 -0.3537
 5879W        W24083   5.179  17.253   2.348 -0.0798 -0.1278 -0.3819
 5880W        W24084  10.628  17.039  14.665  0.2268  0.2768  0.2516
 5881W        W24085   0.357   5.253   3.762 -0.0868  0.0675  0.0707
 5882W        W24086   8.258   5.739  12.459 -0.0644  0.0088  0.0550
 5883W        W24087   5.439   5.875  13.987 -0.1209 -0.0730  0.3677
 5884W        W24088   6.571   9.209  12.833 -0.0996 -0.1694  0.1651
 5885W        W24089   0.735  11.936  14.580  0.0417 -0.1028  0.1800
 5886W        W24090   2.841   2.066   2.339 -0.1294  0.1250 -0.2127
 5887W        W24091   1.710  16.114  15.004 -0.0340  0.2572 -0.3222
 5888W        W24092   4.552  16.660  10.346  0.1387  0.1044 -0.0070
 5889W        W24093   1.492   9.238  14.206  0.2318  0.2956  0.0257
 5890W        W24094  10.728  14.134   1.918  0.0798 -0.0213  0.2224
 5891W        W24095   4.497   1.605  11.250 -0.1928 -0.0413 -0.1083
 5892W        W24096   9.858   2.470   3.013  0.0141 -0.2080  0.1794
 5893W        W24097   5.649   7.623  14.347  0.2297  0.0990 -0.0967
 5894W        W24098   4.947  13.784   0.734  0.0349  0.1983  0.2885
 5895W        W24099   6.051   7.228  11.926  0.1481  0.1867  0.5067
 5896W        W24100   5.360   3.168  12.201 -0.3410  0.1006  0.1264
 5897W        W24101   1.775   3.987  11.620 -0.1304  0.3360  0.2140
 5898W        W24102  13.736   5.471   2.431 -0.1569  0.1456 -0.0142
 5899W        W24103   4.530   2.865  12.794 -0.2565  0.4074  0.0907
 5900W        W24104   9.072  15.956  14.091 -0.3345  0.0107  0.0793
 5901W        W24105  17.472   2.858   2.848 -0.2574 -0.3071  0.4029
 5902W        W24106   4.289   0.472  10.970 -0.0083 -0.0536 -0.1585
 5903W        W24107   7.697  17.738   1.436 -0.1532  0.0748 -0.3123
 5904W        W24108  16.830   5.052  14.971 -0.1237  0.2922 -0.0282
 5905W        W24109  16.049   5.577  15.036  0.0410  0.1795 -0.0167
 5906W        W24110  14.387   1.096   3.660 -0.3914  0.4671  0.4580
 5907W        W24111  11.800   4.399   2.872  0.2537 -0.0271 -0.0209
 5908W        W24112  17.756   6.760  10.603 -0.0776 -0.0696 -0.0928
 5909W        W24113   9.730  16.985   4.330  0.1245  0.3565 -0.0113
 5910W        W24114   6.437   3.626   2.760 -0.1098  0.0436 -0.2608
 5911W        W24115   9.578  11.817   0.895  0.0827 -0.0506 -0.1395
 5912W        W24116   6.710   9.022   0.396  0.0905  0.0958 -0.0523
 5913W        W24117  14.654  10.807  13.592  0.0411  0.0526 -0.3162
 5914W        W24118   3.697   0.571  11.826  0.0096 -0.2267  0.2356
 5915W        W24119   0.423  14.725  12.768 -0.0069  0.0666 -0.0717
 5916W        W24120   2.819   1.082   1.910  0.1738 -0.0167  0.0371
 5917W        W24121  14.497  13.004  13.295 -0.2842 -0.3260  0.2880
 5918W        W24122   7.317  17.702  12.186 -0.3053  0.0948  0.1852
 5919W        W24123  11.007  14.833   3.591  0.0875  0.0601 -0.1081
 5920W        W24124  15.199  14.944  15.235  0.0252 -0.1387  0.1019
 5921W        W24125  11.867  12.911   1.761 -0.0589  0.0570  0.0672
 5922W        W24126   4.909  10.804   2.244  0.1373  0.1603  0.1962
 5923W        W24127  16.729  16.538  11.454 -0.1998 -0.1845 -0.1210
 5924W        W24128  18.430  14.790  13.728  0.0061  0.0758 -0.3763
 5925W        W24129  13.956   6.201  11.122 -0.0943  0.1236 -0.1190
 5926W        W24130  16.306  10.440  13.933 -0.1016 -0.1718 -0.0335
 5927W        W24131   9.870  16.102  15.420 -0.0316 -0.0207  0.1100
 5928W        W24132   2.007  14.571  13.711 -0.1315 -0.1072  0.1432
 5929W        W24133   3.130   8.101   2.630  0.4403  0.1416 -0.1149
 5930W        W24134  12.672  17.758  14.638  0.0374 -0.0184  0.1656
 5931W        W24135   7.641   1.345   0.764 -0.2160 -0.1207 -0.0379
 5932W        W24136  14.786   2.467  10.212 -0.2565 -0.3521  0.3345
 5933W        W24137   8.719   4.442   0.933  0.1784 -0.2155  0.0531
 5934W        W24138   4.131   2.873  13.665  0.2900  0.1619  0.0105
 5935W        W24139   1.116  15.938  11.764  0.0462 -0.2739 -0.0614
 5936W        W24140  14.357   9.788  11.090 -0.2734  0.0719 -0.0601
 5937W        W24141   7.865  13.546  14.290  0.2191 -0.0463 -0.3330
 5938W        W24142   4.114   9.287   0.647 -0.0244  0.0268 -0.1865
 5939W        W24143  13.758   9.521   0.143  0.1281 -0.3264 -0.1921
 5940W        W24144  15.695   8.399  11.475 -0.0287 -0.1956 -0.1204
 5941W        W24145   7.966  14.322   3.414  0.0980  0.1389  0.1690
 5942W        W24146  17.209  16.447   0.326 -0.0929  0.0782  0.2172
 5943W        W24147   7.133  18.331   2.226 -0.0893 -0.0684  0.0462
 5944W        W24148   7.981   6.449   1.219 -0.4056 -0.2342 -0.0993
 5945W        W24149  15.263   8.934   3.507  0.0041  0.0875  0.1539
 5946W        W24150  14.084  14.255   5.063 -0.2613 -0.5032 -0.1247
 5947W        W24151   3.352  16.154  12.665  0.0864 -0.4038  0.0485
 5948W        W24152   7.377   6.475  15.195  0.0867 -0.3603 -0.1066
 5949W        W24153  15.357   3.714  13.834 -0.0065 -0.0399  0.1429
 5950W        W24154   7.656   4.932   3.203  0.0923 -0.1330  0.2467
 5951W        W24155  12.936  11.119  11.556 -0.0114  0.0155  0.2886
 5952W        W24156   0.452  17.509  14.512 -0.0620  0.0625  0.3516
 5953W        W24157   1.911  13.959  14.054  0.2011 -0.0354 -0.0048
 5954W        W24158   2.118  13.897  11.871 -0.1804 -0.1392  0.1786
 5955W        W24159  13.202  14.163   2.116  0.1418  0.0595  0.1134
 5956W        W24160   5.809  18.442  12.210  0.1318  0.0491  0.1549
 5957W        W24161  10.668   1.517  12.370  0.0950  0.1558  0.0824
 5958W        W24162   7.378   6.881   0.062 -0.0174  0.4857  0.0981
 5959W        W24163   2.488   9.027  13.547  0.0080 -0.1673  0.3034
 5960W        W24164  10.976  15.940   0.056 -0.2199 -0.0942  0.1384
 5961W        W24165  17.750   0.825  10.723  0.0264  0.0545  0.0055
 5962W        W24166   9.465  10.157  11.478 -0.1468 -0.0139  0.0387
 5963W        W24167   6.386  11.532   0.256  0.1878  0.0133 -0.1740
 5964W        W24168   6.739  16.961  14.962 -0.1947 -0.2016  0.1013
 5965W        W24169  15.646   8.129   0.373 -0.1898  0.2521  0.1460
 5966W        W24170   6.334  17.988   2.748 -0.3399  0.3386  0.2387
 5967W        W24171   5.425  14.097  12.103 -0.0170  0.0250  0.3244
 5968W        W24172   0.533  14.731  11.264  0.1727 -0.0100 -0.0421
 5969W        W24173   0.072   6.684  11.970 -0.1848  0.1405  0.2416
 5970W        W24174  17.408  14.453  10.937 -0.1942  0.0173  0.3363
 5971W        W24175   6.184  15.282  12.091  0.0004  0.2801  0.3142
 5972W        W24176  17.786   1.833  11.955 -0.0814  0.0985 -0.0146
 5973W        W24177  15.025   6.511  15.332  0.2001  0.3517  0.0707
 5974W        W24178  15.912   7.601  10.489  0.0028  0.4014  0.2993
 5975W        W24179  18.604  10.240   2.412 -0.0099  0.1204  0.1925
 5976W        W24180   7.255   4.324   1.437  0.0588 -0.1319  0.0474
 5977W        W24181  14.017   5.423   3.752 -0.0572  0.0404 -0.0545
 5978W        W24182   4.972  17.057  14.442  0.2065  0.1018 -0.0116
 5979W        W24183   9.193   6.244  15.430  0.1342  0.1609 -0.0084
 5980W        W24184  15.128   5.187  13.956  0.1357 -0.1893  0.3225
 5981W        W24185   9.213   0.451   1.767 -0.2600 -0.1382  0.2481
 5982W        W24186   0.855   9.446  12.823 -0.1596  0.1508  0.1003
 5983W        W24187  15.555   6.160   1.903 -0.0320 -0.1493  0.1628
 5984W        W24188   1.497   2.858   2.907  0.0918 -0.2158 -0.2459
 5985W        W24189  10.835  15.482   1.630 -0.2550  0.0790 -0.1079
 5986W        W24190   1.733   6.939  12.859 -0.1132  0.0756 -0.0502
 5987W        W24191  14.602  14.877  14.429  0.1090 -0.2195  0.4036
 5988W        W24192   4.307   8.318   1.476  0.2202 -0.1846 -0.1360
 5989W        W24193   6.836   7.296   2.316 -0.0024  0.0197  0.1514
 5990W        W24194  12.924  15.104   3.819  0.0310 -0.1555 -0.2365
 5991W        W24195   1.907  15.735  13.946 -0.2390  0.0341  0.0137
 5992W        W24196   3.810   1.431   3.092  0.1216 -0.0352  0.1474
 5993W        W24197  11.779   5.488   0.639  0.0000  0.0434 -0.0053
 5994W        W24198  13.141   4.074   0.533  0.1518  0.1835 -0.1797
 5995W        W24199  15.390   4.230  12.992  0.0751 -0.0006  0.0829
 5996W        W24200   2.970   7.071   4.372  0.2501 -0.1563  0.2738
 5997W        W24201  10.598   9.693  12.773  0.2378  0.3798 -0.0124
 5998W        W24202   7.451   2.639  15.086 -0.0652  0.1513  0.3415
 5999W        W24203   9.258  16.386  13.001 -0.1819 -0.0840  0.0041
 6000W        W24204   9.085  15.819  12.785  0.0320  0.2095  0.0704
 6001W        W24205   8.125   2.755   2.233 -0.3750 -0.2119  0.2578
 6002W        W24206  12.082   4.791  13.398 -0.0408  0.3816 -0.0001
 6003W        W24207  11.087  14.973   5.910 -0.4743  0.0164  0.1644
 6004W        W24208  15.354   4.121  11.810  0.0382 -0.1402 -0.0031
 6005W        W24209  10.934   5.812   2.178  0.3168 -0.0469 -0.0013
 6006W        W24210   7.950  16.224  13.936  0.4888  0.0307  0.2071
 6007W        W24211   0.988  11.334   0.670 -0.2141 -0.4024  0.0596
 6008W        W24212   5.031   9.243  13.576  0.1107 -0.4374 -0.0763
 6009W        W24213   9.024   6.836   4.709  0.0064 -0.1399 -0.0170
 6010W        W24214  11.781  13.989   1.374  0.1040  0.0859  0.2060
 6011W        W24215   2.572  18.576   3.044  0.2681 -0.1706  0.1387
 6012W        W24216   0.586   3.438  12.071 -0.2566 -0.0695  0.0949
 6013W        W24217   0.176   3.259  12.333  0.2201 -0.0566 -0.0786
 6014W        W24218  15.748   8.934   3.732  0.1322 -0.0658  0.2641
 6015W        W24219   8.226   2.096   4.278  0.1521  0.0947  0.2439
 6016W        W24220   4.638   3.868   3.394  0.1535 -0.2312 -0.3297
 6017W        W24221   5.203  12.317  10.887  0.0203 -0.2031 -0.0715
 6018W        W24222   9.346   0.015  14.432  0.2467  0.1382 -0.1679
 6019W        W24223   8.173  12.751   0.734 -0.0733  0.1852  0.0210
 6020W        W24224   4.837  17.697  13.412 -0.1475 -0.1323 -0.3175
 6021W        W24225   9.072  11.488  13.309 -0.0691 -0.1542 -0.0759
 6022W        W24226  15.397  16.498  13.542  0.1764  0.1857 -0.1308
 6023W        W24227   4.098  17.017   3.037  0.0713 -0.0857 -0.1373
 6024W        W24228   5.460   4.797   4.280  0.2406 -0.0954  0.3808
 6025W        W24229   2.661  14.182  14.665  0.1184  0.2525 -0.1153
 6026W        W24230  13.654   6.992   0.427 -0.1458  0.1460 -0.2537
 6027W        W24231  14.604   0.713  14.064  0.2333  0.1355 -0.0679
 6028W        W24232   6.548  13.633   2.602  0.1352  0.1104  0.3627
 6029W        W24233   0.060   0.862   0.348 -0.0978 -0.0726 -0.0765
 6030W        W24234  15.993   5.358   0.048 -0.0135 -0.3363 -0.2130
 6031W        W24235  16.168   8.993  12.249 -0.1117 -0.0167  0.0240
 6032W        W24236   3.636  10.963   9.723 -0.1693  0.1157 -0.0629
 6033W        W24237   4.993   4.730  15.440 -0.1705 -0.2102 -0.1635
 6034W        W24238  13.403  11.351   0.282 -0.4373 -0.0124  0.1423
 6035W        W24239   6.953  15.490  13.394 -0.0788  0.2589  0.0021
 6036W        W24240   3.269  11.882  13.104  0.1950 -0.1916  0.2835
 6037W        W24241  10.997  14.022  12.732  0.3230  0.0688 -0.2111
 6038W        W24242   0.891   3.110   1.859 -0.4646  0.1222  0.2023
 6039W        W24243   9.198   5.545  14.008 -0.0522  0.1079 -0.1811
 6040W        W24244   0.930   1.988  12.454  0.3349  0.0139 -0.0863
 6041W        W24245   9.374   5.091   3.449 -0.2021  0.2141  0.2547
 6042W        W24246   2.484   4.035  10.282  0.1032 -0.2005  0.2403
 6043W        W24247  17.784  11.398  12.541  0.4202  0.2030  0.1319
 6044W        W24248  11.435   8.924   0.091 -0.1882  0.0489 -0.2802
 6045W        W24249  15.378   7.978  11.829 -0.1250  0.0581  0.3302
 6046W        W24250  17.780  13.021  12.216 -0.2909 -0.3875  0.1297
 6047W        W24251   8.252  14.593   4.801 -0.1266 -0.0884 -0.0692
 6048W        W24252   9.210   7.584  13.426  0.0885  0.0299 -0.0491
 6049W        W24253   3.028  17.110  13.880 -0.0369  0.0411  0.0226
 6050W        W24254   4.551  16.686  11.649 -0.1538 -0.2461 -0.0066
 6051W        W24255   7.983  13.211   0.556  0.1714  0.0198 -0.2522
 6052W        W24256   6.289   8.851  14.763  0.0973  0.0248 -0.0286
 6053W        W24257  15.226   7.707   0.994 -0.1182  0.0055  0.1654
 6054W        W24258   3.306  18.136  14.432 -0.1947  0.1851  0.0246
 6055W        W24259   6.407   3.699  13.572 -0.0575 -0.1353  0.1674
 6056W        W24260  11.433   8.434  15.318 -0.0087  0.0038  0.0854
 6057W        W24261  14.900   0.847  11.899  0.1773 -0.1758 -0.0396
 6058W        W24262   2.116   7.084  10.891  0.2183  0.4367  0.0781
 6059W        W24263   2.052   5.858  14.083 -0.0297 -0.3947 -0.0577
 6060W        W24264   0.742   8.302  13.562  0.1317 -0.0273 -0.1448
 6061W        W24265  10.707  16.292   3.764 -0.1477  0.1181  0.0335
 6062W        W24266  10.765  15.239   0.573  0.1315 -0.0552 -0.3427
 6063W        W24267   1.521   5.295  13.318 -0.3137  0.1478  0.1255
 6064W        W24268  13.200   4.467  14.047 -0.0348 -0.1187 -0.2906
 6065W        W24269   9.939   2.318   0.326  0.0135 -0.1829  0.0238
 6066W        W24270  12.942   1.842   2.859 -0.3123  0.3348  0.1408
 6067W        W24271  14.770  18.084   0.481  0.3541  0.2543 -0.0835
 6068W        W24272  15.033   3.169  15.027  0.2920 -0.2731 -0.1293
 6069W        W24273   0.640   9.806   0.226 -0.0036 -0.2788  0.0520
 6070W        W24274   8.945   5.534   4.365 -0.2868 -0.0364 -0.0916
 6071W        W24275   5.433   5.548  13.164  0.3112 -0.1839 -0.1347
 6072W        W24276  12.434  17.487   3.952 -0.0255 -0.1615  0.1974
 6073W        W24277   0.026   6.116  11.481 -0.2746 -0.1758  0.3546
 6074W        W24278   1.897   9.764   0.834 -0.0110 -0.1310  0.0531
 6075W        W24279  13.821  13.225  11.422 -0.2909 -0.2690 -0.0766
 6076W        W24280   8.083   7.830   3.760 -0.2042 -0.0517  0.0178
 6077W        W24281   6.983   8.400   3.146 -0.2114  0.1932 -0.0660
 6078W        W24282   6.350   8.262  12.772  0.2543  0.1347  0.0589
 6079W        W24283   1.069  10.543   0.703 -0.0092 -0.1339 -0.2222
 6080W        W24284   8.801  15.464   0.429  0.0406 -0.0627 -0.1646
 6081W        W24285  13.763  12.706   1.509  0.1369  0.0152 -0.0399
 6082W        W24286  17.975   8.741  13.362 -0.3561 -0.1213 -0.4458
 6083W        W24287   3.788   6.709   4.437  0.1038  0.1423  0.2251
 6084W        W24288  13.700   2.555  11.518  0.0021 -0.0504  0.0360
 6085W        W24289   0.968  14.887   1.296 -0.3374 -0.0365 -0.1058
 6086W        W24290  16.502   4.162   1.020 -0.1442 -0.2424 -0.0478
 6087W        W24291  13.215   9.360   4.516  0.2004  0.0772 -0.1028
 6088W        W24292   6.512   9.433  11.368  0.0003  0.1281 -0.3103
 6089W        W24293   3.231   8.841  14.982  0.4213 -0.3275  0.1143
 6090W        W24294  14.899   3.186  13.785  0.1154 -0.0777  0.0324
 6091W        W24295   0.510   9.668   3.367  0.0364  0.3324 -0.2844
 6092W        W24296   0.213  15.643  13.644 -0.0007  0.3495  0.2209
 6093W        W24297   3.901  11.465   3.798  0.1027  0.0720  0.0855
 6094W        W24298   0.094   8.070  12.227 -0.4010  0.0627 -0.2204
 6095W        W24299   0.696   5.200  12.022  0.0636 -0.0697  0.0106
 6096W        W24300  14.471  15.607  14.859  0.0642 -0.2600 -0.1223
 6097W        W24301   0.658   4.877  11.677 -0.1070 -0.3302 -0.3608
 6098W        W24302  12.550  17.435  15.438 -0.1698 -0.2210  0.2936
 6099W        W24303   2.179   8.751   1.910  0.0689 -0.0430  0.1912
 6100W        W24304   8.755   9.350  14.939  0.0684  0.1024 -0.0620
 6101W        W24305  15.383  13.955   2.556  0.0897  0.2112  0.0172
 6102W        W24306  12.497  14.697  13.497 -0.0161  0.1362  0.0776
 6103W        W24307   5.760  14.990  11.401 -0.0033  0.5069  0.3997
 6104W        W24308  11.564  13.571  14.926 -0.2656 -0.0961  0.1537
 6105W        W24309  15.964   5.496  13.134 -0.0517  0.0278 -0.1465
 6106W        W24310  16.770   8.884   4.536 -0.0874 -0.0238  0.1682
 6107W        W24311   4.640  11.513   3.072 -0.0574 -0.2257 -0.0700
 6108W        W24312  12.480   5.678  11.983 -0.1413  0.1797 -0.2711
 6109W        W24313  11.326   5.274   3.142  0.3631  0.2617 -0.0918
 6110W        W24314   7.848  12.117   1.560  0.0062 -0.2724  0.1794
 6111W        W24315  17.289   4.074   0.994 -0.0397  0.0465  0.2719
 6112W        W24316   8.922   2.494   0.422 -0.2165 -0.2507 -0.0257
 6113W        W24317  10.095   1.396   4.309  0.1208 -0.0661 -0.0932
 6114W        W24318  13.688  13.398  14.812  0.0273 -0.1510  0.2757
 6115W        W24319  15.435  14.258   0.540  0.1847 -0.2083  0.2168
 6116W        W24320   5.195   3.385   0.823 -0.2152 -0.2840 -0.0317
 6117W        W24321  10.650  10.650  10.486 -0.1009  0.0456 -0.1709
 6118W        W24322   6.341   6.451  10.669  0.0265  0.0435 -0.2837
 6119W        W24323   2.374   0.623  12.853 -0.0891 -0.1230  0.1196
 6120W        W24324   1.273  18.140   2.439 -0.0612 -0.1666 -0.2445
 6121W        W24325   2.854   2.879   0.677  0.2402  0.2558  0.1250
 6122W        W24326   4.136  18.484   2.984 -0.0607  0.0699 -0.2707
 6123W        W24327   3.779  13.593  15.035 -0.2703 -0.2334 -0.0618
 6124W        W24328  11.343  12.906  14.604  0.1099  0.1649 -0.0320
 6125W        W24329  12.767  15.649   2.949  0.0872  0.2557 -0.1221
 6126W        W24330   7.054   7.617  14.784  0.1839  0.5363  0.2006
 6127W        W24331   0.665  14.440   4.133  0.0947  0.2039  0.0058
 6128W        W24332   3.501   6.467  13.124  0.3114 -0.1928 -0.1296
 6129W        W24333   8.899  10.094   4.533  0.0113  0.0932 -0.1604
 6130W        W24334  13.837  12.253   2.375 -0.1582  0.1128 -0.1111
 6131W        W24335  18.490   0.535   5.051  0.1406 -0.0819 -0.0558
 6132W        W24336   6.537  17.566  13.469  0.3471 -0.2001  0.0279
 6133W        W24337  17.064  12.982  11.331 -0.1131 -0.1974 -0.1015
 6134W        W24338   0.699  18.140  15.207 -0.0565 -0.3407 -0.0624
 6135W        W24339  16.641   1.260  11.364 -0.3343  0.1237  0.1472
 6136W        W24340   7.585  18.095   2.270 -0.0179  0.2748 -0.0783
 6137W        W24341  12.315   1.059  14.714  0.3281  0.0697  0.0238
 6138W        W24342   1.286  11.536  15.176 -0.1194 -0.0874  0.2575
 6139W        W24343  11.276   3.453   2.519  0.0290  0.2687  0.3117
 6140W        W24344   1.163   5.922   2.154 -0.1686  0.1685  0.0401
 6141W        W24345   2.664  17.080  13.292  0.1063  0.2159 -0.0824
 6142W        W24346  17.127  17.490   1.533 -0.1596 -0.1402 -0.1400
 6143W        W24347  11.536  14.934   3.790 -0.0756 -0.0932 -0.0118
 6144W        W24348  16.676  13.698  14.820  0.0375  0.0666  0.3385
 6145W        W24349   6.777  14.400   4.156  0.1037 -0.1155 -0.1536
 6146W        W24350  15.911   4.760  11.492  0.1318  0.1091 -0.0486
 6147W        W24351   0.072   6.063  15.426 -0.1390 -0.1274  0.0633
 6148W        W24352   2.133  12.603   3.799 -0.1787 -0.1727  0.0907
 6149W        W24353  11.768  18.513   3.758  0.2660 -0.2760  0.0217
 6150W        W24354   6.421   1.789  14.876 -0.1844  0.0115 -0.0081
 6151W        W24355   6.116   7.783   9.623  0.1471 -0.3457  0.1071
 6152W        W24356   9.088   6.967   0.508 -0.0300  0.2391 -0.1241
 6153W        W24357   5.061  15.467  14.140 -0.1938 -0.0397  0.0513
 6154W        W24358   9.505  14.678  13.832  0.1844 -0.2634  0.0424
 6155W        W24359   9.959  12.820  14.503 -0.1757  0.0214 -0.0669
 6156W        W24360  11.260  17.805   0.816  0.0144  0.1536 -0.1615
 6157W        W24361  14.925   9.214   1.522  0.0244 -0.1280  0.1034
 6158W        W24362  12.111  15.231  15.354 -0.0752 -0.0128  0.0634
 6159W        W24363  16.197   0.394   1.913  0.3123  0.3542  0.1263
 6160W        W24364  16.992   2.969  13.230 -0.0284  0.0176 -0.0188
 6161W        W24365   3.156   3.337  11.336 -0.0272  0.1911 -0.0302
 6162W        W24366   1.932  17.209  13.046 -0.2367  0.1538  0.0347
 6163W        W24367   0.258  10.085   1.732  0.0680 -0.3024  0.0792
 6164W        W24368  13.335  17.093  11.237  0.2504  0.0218 -0.1455
 6165W        W24369   5.206   1.016  11.707  0.1564  0.1260 -0.0039
 6166W        W24370   1.536   5.604  14.871 -0.0366 -0.2672 -0.1489
 6167W        W24371   6.166   2.758   2.158 -0.0567  0.1807  0.0385
 6168W        W24372   3.624  13.276  15.332  0.1437 -0.1008  0.1589
 6169W        W24373  12.162   4.518   3.585 -0.0718  0.0889  0.1233
 6170W        W24374  14.217   7.257  14.548  0.1617 -0.0889 -0.0508
 6171W        W24375  17.123   1.222  13.732  0.1525 -0.1781  0.1389
 6172W        W24376  10.954   3.086  15.321 -0.2105  0.2598 -0.0036
 6173W        W24377  10.757  18.252   0.684 -0.1459  0.0553 -0.1610
 6174W        W24378   0.220  16.246  12.334  0.0965  0.1964 -0.1772
 6175W        W24379  13.168   6.325  12.178 -0.1598  0.2176 -0.0015
 6176W        W24380   9.026  10.535  12.880 -0.2801  0.0625  0.1214
 6177W        W24381  16.446  17.259   2.941  0.0488  0.2759 -0.2224
 6178W        W24382  10.536  17.649   3.427  0.0029  0.2155 -0.1687
 6179W        W24383  17.121  18.581   0.023 -0.1452 -0.7570  0.1706
 6180W        W24384  15.643   4.405   5.301 -0.1047  0.0753 -0.2359
 6181W        W24385   5.847  11.759   2.964  0.0940  0.1980  0.1415
 6182W        W24386   9.292   6.946   3.390  0.0153  0.2410 -0.1358
 6183W        W24387   3.007  16.122   1.196 -0.3023 -0.0948  0.0825
 6184W        W24388  13.608  18.078   1.385 -0.1121 -0.0608  0.0571
 6185W        W24389  16.578  17.143  12.058  0.1434 -0.0956  0.2688
 6186W        W24390  12.970  13.709   2.531  0.0735 -0.3456  0.1199
 6187W        W24391  12.050   3.821  14.901 -0.2194  0.0778 -0.4128
 6188W        W24392  13.627  13.710   3.837 -0.0095  0.0403 -0.0281
 6189W        W24393   9.902   5.103  14.847  0.0751  0.1985  0.0615
 6190W        W24394   4.443  10.761  14.717 -0.1752  0.1180 -0.1192
 6191W        W24395   4.800   5.417   2.542  0.0022  0.0172 -0.1399
 6192W        W24396   5.001  13.704   4.101 -0.0882 -0.2843 -0.0371
 6193W        W24397  12.552   8.949  12.192 -0.0050  0.0466 -0.0523
 6194W        W24398   5.420  14.956   0.889 -0.0193  0.1965  0.0653
 6195W        W24399  16.601  13.583  15.330  0.0574 -0.2362  0.0195
 6196W        W24400  13.651  18.267  13.085 -0.0901 -0.0824  0.1554
 6197W        W24401  17.245   7.590  10.792  0.0115  0.1651  0.0837
 6198W        W24402  17.510   9.234   4.854  0.1240  0.0719 -0.0040
 6199W        W24403   2.465  13.698  14.809  0.4295  0.1193  0.1864
 6200W        W24404  13.992   8.714  11.307 -0.1618 -0.0538  0.0206
 6201W        W24405  16.345   1.456   0.116  0.0514 -0.0074 -0.2154
 6202W        W24406  15.939  12.351  13.864 -0.1416  0.0789 -0.1565
 6203W        W24407  11.450  17.108   0.696 -0.2504  0.2086 -0.0688
 6204W        W24408  13.283   7.652   2.690  0.0331  0.0471  0.1547
 6205W        W24409   7.549  15.859   3.946  0.0621 -0.0235 -0.0007
 6206W        W24410  12.898   3.135  15.252 -0.0759 -0.1595  0.1193
 6207W        W24411  17.094   2.181  13.441 -0.1598 -0.0244  0.1743
 6208W        W24412  10.867  12.640   2.960  0.0414 -0.0168  0.3189
 6209W        W24413   4.242  13.464  13.878  0.1830  0.0828  0.1048
 6210W        W24414  13.790   4.780   0.955  0.3246 -0.0591  0.1430
 6211W        W24415   7.493  12.611  14.572  0.5697 -0.0240 -0.1880
 6212W        W24416   8.536  14.984   2.745 -0.1937  0.1466  0.2131
 6213W        W24417   9.761   4.999  13.097  0.2555  0.0886  0.3295
 6214W        W24418   2.109  13.363  14.551 -0.0583  0.1002 -0.1289
 6215W        W24419   0.822  12.755  11.713  0.1694  0.0610  0.0962
 6216W        W24420  12.832   1.567  14.078 -0.2310 -0.0310  0.0004
 6217W        W24421  15.890   9.455   3.904  0.0369  0.1662 -0.1636
 6218W        W24422   1.894   0.117  12.294  0.1186 -0.0024 -0.0765
 6219W        W24423   0.572  16.519  14.138 -0.1862 -0.1771 -0.0837
 6220W        W24424  13.188   4.518   0.354  0.1643  0.0889  0.2993
 6221W        W24425   3.366   3.630   0.714 -0.2406  0.1749 -0.0971
 6222W        W24426  15.147   9.429  14.767  0.0168 -0.0543 -0.1781
 6223W        W24427   7.319   3.606   3.894  0.3079 -0.0751 -0.1968
 6224W        W24428   7.533   6.389   0.222  0.1132  0.0423 -0.4756
 6225W        W24429   0.548  15.947  14.526  0.1975 -0.0213 -0.2345
 6226W        W24430  13.513   8.539   1.540  0.0880 -0.0843  0.1269
 6227W        W24431  16.574   0.722  15.444 -0.0316  0.2603 -0.0726
 6228W        W24432  13.170  14.952  11.257  0.0989  0.2423 -0.1544
 6229W        W24433  10.622  17.427   3.945  0.0907 -0.0336 -0.0154
 6230W        W24434  17.825  10.167  12.929 -0.3946  0.1491  0.1304
 6231W        W24435   8.950  12.672   2.710  0.0106 -0.1402 -0.2545
 6232W        W24436  15.815   0.495  13.926 -0.2621 -0.0378  0.0519
 6233W        W24437  11.014  12.941  10.258  0.2064 -0.0284 -0.4341
 6234W        W24438   1.496  16.250  12.423  0.0623  0.0874  0.0048
 6235W        W24439   5.246  11.733   3.843  0.0948  0.0536 -0.1079
 6236W        W24440   3.222  12.767  14.499 -0.1342  0.0037  0.2655
 6237W        W24441  10.394   3.764   0.230  0.0714  0.0421 -0.2713
 6238W        W24442   0.811  17.799   4.310 -0.0729  0.1946  0.0317
 6239W        W24443   2.281  14.022   3.892 -0.1707  0.0556 -0.3985
 6240W        W24444   3.779  13.187   4.604  0.1633 -0.0234  0.1303
 6241W        W24445   7.464   1.529  12.086  0.0359 -0.2485 -0.0587
 6242W        W24446   7.727   6.820   0.474  0.1777  0.2279  0.1416
 6243W        W24447   8.073   8.589   2.033  0.0679 -0.2848 -0.0698
 6244W        W24448   4.527  13.400   1.637 -0.1257  0.0779 -0.0180
 6245W        W24449   3.642   1.915   4.020  0.0694 -0.2115  0.1310
 6246W        W24450  13.142   7.013   1.564 -0.2461 -0.0797  0.1101
 6247W        W24451   3.806   3.747   0.510  0.1869  0.1789  0.3063
 6248W        W24452  12.967   1.869   4.774  0.0699  0.0556  0.1948
 6249W        W24453   3.563  16.316   1.175 -0.2036  0.5478 -0.1072
 6250W        W24454  11.618   9.266  15.130  0.0840 -0.0016  0.1425
 6251W        W24455   6.835   6.259   4.821 -0.1420  0.1027 -0.2549
 6252W        W24456  12.457   5.794  14.050 -0.1384  0.1106  0.3579
 6253W        W24457  13.838   6.886   2.871 -0.2553 -0.0771 -0.0879
 6254W        W24458  13.880   3.451  12.617 -0.2714  0.0776  0.1269
 6255W        W24459   7.521  10.598   2.832 -0.2298  0.0624 -0.0688
 6256W        W24460  15.872  18.284  14.237 -0.0502 -0.0457 -0.0958
 6257W        W24461  13.955   2.922  12.533 -0.1074  0.6585  0.1038
 6258W        W24462   0.595  12.466  13.757 -0.0256  0.1614 -0.2377
 6259W        W24463   9.895  15.680  14.734  0.1247  0.0819 -0.0344
 6260W        W24464   4.567  11.476   1.828 -0.0718  0.0177 -0.1308
 6261W        W24465   5.700   0.465   2.685 -0.0705  0.3839 -0.1238
 6262W        W24466  17.871   4.314  14.543 -0.2172 -0.0935  0.2123
 6263W        W24467  14.414   1.464   2.210 -0.1108 -0.1125  0.1344
 6264W        W24468  13.092   7.326   1.198 -0.0133 -0.1106 -0.0071
 6265W        W24469   1.176   6.269   0.429  0.0342  0.1506  0.0226
 6266W        W24470   0.480  11.372  14.542 -0.2681  0.1838 -0.2696
 6267W        W24471  11.292  14.417  14.961  0.2401 -0.1186  0.0950
 6268W        W24472  11.966  11.764  12.311 -0.0587  0.0850  0.0267
 6269W        W24473  11.093  10.019   1.343 -0.1021 -0.1225  0.2851
 6270W        W24474   0.386  12.619   0.110  0.1843 -0.4083  0.2653
 6271W        W24475  14.802   1.165   5.515 -0.0270  0.0659 -0.1521
 6272W        W24476   1.720   7.181  11.262 -0.0315 -0.0037  0.3601
 6273W        W24477  14.569  15.712  13.839  0.3673  0.0123  0.0890
 6274W        W24478   3.950   9.717   4.290 -0.1746 -0.0270 -0.1776
 6275W        W24479   9.462   8.255   2.044 -0.1729 -0.0613 -0.1485
 6276W        W24480   3.017   9.295  12.689 -0.0954 -0.1834  0.1384
 6277W        W24481  15.397   8.935   2.993 -0.1212 -0.0295 -0.0291
 6278W        W24482  14.380  12.500  13.576  0.1832  0.2275 -0.2076
 6279W        W24483   8.025  14.810   3.148  0.3902  0.1282 -0.1536
 6280W        W24484  11.084   2.120   3.128  0.0721 -0.1306 -0.0972
 6281W        W24485   0.449  14.791  13.316  0.1777 -0.2360  0.1528
 6282W        W24486  16.137   9.883   1.006  0.1003  0.0363 -0.2242
 6283W        W24487   9.597   0.586   0.543  0.2879  0.0429  0.3093
 6284W        W24488   9.189  10.244  11.939  0.1459  0.1330 -0.0202
 6285W        W24489   6.658   2.311  14.813  0.3689 -0.0490 -0.1735
 6286W        W24490   3.604  11.481   0.478 -0.1378  0.3102  0.0451
 6287W        W24491   6.395   6.481  12.233 -0.2012  0.0698  0.0770
 6288W        W24492   9.773   6.666  11.343 -0.3347  0.0254 -0.0208
 6289W        W24493  17.302  12.832   0.476  0.0305 -0.1160 -0.1152
 6290W        W24494  11.465  17.065   3.532  0.1155 -0.3442  0.0770
 6291W        W24495   3.472   0.622   1.517  0.2332 -0.0498 -0.0661
 6292W        W24496  13.051   5.351   4.731  0.0565 -0.0052  0.0851
 6293W        W24497  17.729   5.622  10.504 -0.1341  0.0051 -0.1912
 6294W        W24498   6.135  11.348   1.195 -0.1194  0.2877 -0.0054
 6295W        W24499  17.159   8.908   4.190  0.0335  0.2127  0.1631
 6296W        W24500   4.977  12.103   3.522 -0.1773  0.3246  0.2013
 6297W        W24501  13.885   4.774  12.289  0.0902  0.3780 -0.0290
 6298W        W24502   2.098  14.557   4.022 -0.1637 -0.1101  0.2332
 6299W        W24503   5.834   2.365   3.501 -0.1303 -0.1811  0.2551
 6300W        W24504   8.227   3.088   1.118  0.1581  0.1268 -0.1194
 6301W        W24505  18.588   1.597   1.850 -0.2641  0.0275  0.0786
 6302W        W24506   5.595   2.484  14.827  0.1916  0.1765 -0.1949
 6303W        W24507  13.526  15.805  11.555  0.0961 -0.1516  0.0744
 6304W        W24508   7.494   9.447  15.012 -0.2081  0.1256 -0.1873
 6305W        W24509  17.931   3.618   0.026  0.3222 -0.1904  0.2918
 6306W        W24510   4.884  11.592  12.243  0.0670 -0.3614 -0.0586
 6307W        W24511  16.259  12.604   5.843 -0.0379  0.1237  0.0439
 6308W        W24512   0.769  17.559   5.132 -0.2884  0.1857  0.0875
 6309W        W24513   2.562   7.283   2.134 -0.3079 -0.2004 -0.0424
 6310W        W24514   0.895  15.830  13.105  0.0718  0.0780 -0.2529
 6311W        W24515   3.032  18.231   5.089 -0.2783  0.0166 -0.1523
 6312W        W24516   6.629  16.731  11.447 -0.0325  0.1110  0.1446
 6313W        W24517  13.237  14.345   1.006 -0.0902 -0.0769 -0.1622
 6314W        W24518   7.243   1.892   0.779 -0.4065  0.2055 -0.0849
 6315W        W24519   0.116  11.504   0.525 -0.1098 -0.2756 -0.2304
 6316W        W24520   2.629   9.572  10.406 -0.1474  0.0439  0.1211
 6317W        W24521  11.819   4.258  11.160 -0.0028 -0.4596 -0.2726
 6318W        W24522   5.027  11.327   1.673  0.0882  0.1945  0.1368
 6319W        W24523  10.499   1.621  11.945  0.2047  0.1323  0.3324
 6320W        W24524   3.550   0.224   2.777  0.1400  0.3490 -0.0708
 6321W        W24525   7.163   7.107  15.044 -0.0147 -0.1051  0.0801
 6322W        W24526   6.392  15.717   3.830 -0.0322 -0.2568 -0.1486
 6323W        W24527  13.316  13.305  13.584 -0.2967  0.2720  0.1517
 6324W        W24528   3.532  17.385  13.274 -0.2820  0.0994  0.0190
 6325W        W24529  16.659   3.863  11.082  0.0286 -0.0411 -0.1365
 6326W        W24530  12.313   7.902  14.374 -0.1926  0.0782  0.1650
 6327W        W24531   7.683   3.860   4.303  0.0131 -0.3083  0.0723
 6328W        W24532  14.154  10.920   0.625  0.1795 -0.0921  0.1422
 6329W        W24533  10.581   4.331   3.068  0.1466  0.0933  0.1108
 6330W        W24534   6.925  15.589   0.832  0.2195  0.2838 -0.0544
 6331W        W24535   3.458  12.291   3.091  0.2861 -0.0254  0.0611
 6332W        W24536   8.223  13.097  11.933  0.0108 -0.0228  0.0909
 6333W        W24537  14.219  13.806   0.249 -0.0026  0.0520 -0.0163
 6334W        W24538  11.463  10.867  15.119 -0.1362  0.1509  0.3092
 6335W        W24539  14.202   5.521  14.442 -0.3133  0.1818  0.0027
 6336W        W24540  17.111  15.726  13.447 -0.0781  0.0614  0.2977
 6337W        W24541   6.514  17.729  11.353  0.4640 -0.2013 -0.0852
 6338W        W24542   0.798   1.692   2.012 -0.1638 -0.1575 -0.2260
 6339W        W24543   9.544   1.994   5.446  0.0580 -0.0687  0.1035
 6340W        W24544   5.889   4.927   1.314  0.1618 -0.1370  0.0975
 6341W        W24545  12.416  10.180   3.236 -0.0570  0.2322 -0.1582
 6342W        W24546  10.616   4.804  14.527 -0.0855 -0.0807  0.0504
 6343W        W24547  14.895   5.953  12.930 -0.1555  0.1533  0.0190
 6344W        W24548  17.056   0.352  11.525  0.3608  0.2110  0.0000
 6345W        W24549  11.303  17.878   4.428  0.1205  0.0494  0.0565
 6346W        W24550  16.934   7.454  13.478  0.3472  0.4429 -0.1612
 6347W        W24551   4.251  11.223  14.380 -0.0947 -0.2268  0.2638
 6348W        W24552   7.650   8.497   2.653 -0.2664  0.1341  0.1370
 6349W        W24553  17.099  14.069   0.343 -0.3624 -0.1262  0.0256
 6350W        W24554  11.251   1.574  13.367 -0.0719  0.3006  0.2662
 6351W        W24555   3.364  13.191   3.071 -0.2474 -0.2308  0.0664
 6352W        W24556   5.150   7.537  12.989  0.1057 -0.0255 -0.1820
 6353W        W24557   7.975  15.431   0.978 -0.0414  0.1775 -0.1216
 6354W        W24558  12.029  12.569   3.793 -0.1128  0.0670 -0.3980
 6355W        W24559   5.689   7.463   2.061 -0.1177 -0.1642 -0.5441
 6356W        W24560   7.111  17.813   3.995 -0.1924  0.2105  0.1203
 6357W        W24561   2.535   2.739   0.121  0.1748 -0.2353 -0.3304
 6358W        W24562   5.533  10.370   2.979  0.2319 -0.1722  0.2353
 6359W        W24563  15.708   0.740  11.327 -0.0376  0.3173  0.1076
 6360W        W24564  14.059   8.352  15.028  0.1467 -0.2324 -0.1960
 6361W        W24565  13.970   8.275   3.299  0.2200 -0.0156 -0.2384
 6362W        W24566   3.840   3.207  13.331  0.1023  0.1602  0.1532
 6363W        W24567  15.114  16.266   2.220 -0.3566 -0.0982 -0.0549
 6364W        W24568   2.823   0.639   4.915 -0.2898 -0.2164 -0.0141
 6365W        W24569  14.269   4.491   3.477 -0.0220 -0.0981 -0.0994
 6366W        W24570  10.176  13.423   0.303  0.5168 -0.1208  0.1581
 6367W        W24571  17.407  15.107  10.316  0.2537  0.1733  0.5425
 6368W        W24572   8.998  14.428  14.367  0.1811 -0.0448  0.1377
 6369W        W24573  17.578  18.589  14.054  0.1459  0.3264 -0.1838
 6370W        W24574  14.547  17.438   2.777 -0.0339 -0.1511 -0.0774
 6371W        W24575   4.625   9.231   0.819  0.0840  0.1546  0.0942
 6372W        W24576   9.515   7.428  11.795 -0.1634 -0.1092 -0.2505
 6373W        W24577  14.338  16.625   1.394  0.0929 -0.5029  0.1763
 6374W        W24578  11.926  15.903  15.085  0.0454 -0.1120  0.0816
 6375W        W24579   1.575  11.179  12.185 -0.0995 -0.0813  0.5235
 6376W        W24580   7.789  10.261  14.865 -0.2228  0.0016  0.1480
 6377W        W24581   4.767  16.344   4.561  0.1997  0.1368 -0.0821
 6378W        W24582  14.253   5.938  11.831  0.0778  0.0546 -0.2745
 6379W        W24583   8.609   6.368  14.347  0.1248  0.0250 -0.0996
 6380W        W24584   2.162   1.634   4.967  0.1667  0.0137 -0.3953
 6381W        W24585  18.098  16.499   0.528  0.1241  0.1538  0.3432
 6382W        W24586  13.216   0.732  14.727  0.1810  0.4006  0.1956
 6383W        W24587  16.361   6.365  11.001 -0.0282 -0.2263 -0.3407
 6384W        W24588  17.758  15.566   2.583  0.1070 -0.0408 -0.3152
 6385W        W24589  11.767   6.889  14.881 -0.2327  0.1270 -0.0118
 6386W        W24590  12.223  12.006   1.021  0.0516 -0.0258  0.0629
 6387W        W24591  15.300  13.851  15.066  0.1672  0.0645 -0.1403
 6388W        W24592  10.172   2.080   2.081 -0.1281 -0.2309 -0.1861
 6389W        W24593   5.714   0.638  15.200 -0.0501  0.1161  0.0333
 6390W        W24594   2.307  10.746   2.480  0.0619 -0.0435 -0.3329
 6391W        W24595   6.945   5.615  15.107  0.1235  0.0364  0.0641
 6392W        W24596   6.903  18.202   0.896 -0.1572 -0.0593  0.0041
 6393W        W24597   9.661  11.986  12.754 -0.0031 -0.0414 -0.2269
 6394W        W24598   5.250  11.301  10.934 -0.2820 -0.0781 -0.2281
 6395W        W24599  14.651   1.491   0.722 -0.1053  0.0693  0.1808
 6396W        W24600  17.845  12.613   3.147 -0.0120  0.0544  0.0270
 6397W        W24601   6.994   6.550  12.739 -0.0678 -0.0122 -0.4233
 6398W        W24602   2.023  18.079   0.127  0.4543  0.2108 -0.1450
 6399W        W24603   3.784  10.991   3.723  0.1156  0.2173 -0.1667
 6400W        W24604   0.416   6.984  15.144  0.0421 -0.3281 -0.0678
 6401W        W24605   4.644   3.796  15.204 -0.3353 -0.2902  0.0777
 6402W        W24606  16.904  15.889   2.374 -0.1926  0.1535  0.0777
 6403W        W24607   5.170   5.209   3.139 -0.0848  0.0513  0.0134
 6404W        W24608  12.494  17.101   4.267 -0.0771 -0.1189 -0.0263
 6405W        W24609   0.601  17.337  11.442 -0.0914 -0.2732  0.0846
 6406W        W24610   3.127  15.124   3.181 -0.1855  0.2543 -0.0886
 6407W        W24611  13.612   9.770  14.837  0.5019  0.2489  0.0685
 6408W        W24612   5.766   0.831   3.294  0.1237  0.0919  0.1404
 6409W        W24613   9.752   4.017   1.666 -0.1739  0.0670 -0.3106
 6410W        W24614   6.805  14.196  13.909 -0.0042  0.0331 -0.2810
 6411W        W24615   5.336  15.159   4.225 -0.3223 -0.1775  0.1782
 6412W        W24616   1.882   2.320   3.438  0.1397 -0.0903  0.4510
 6413W        W24617   9.028   3.159  12.579  0.0456  0.0486 -0.1158
 6414W        W24618  16.092  12.802   3.733  0.2325 -0.0245  0.1366
 6415W        W24619   1.164   1.900   3.290 -0.4428 -0.0738  0.0107
 6416W        W24620  18.339  18.560  10.134  0.0622  0.0267 -0.0888
 6417W        W24621   4.326   0.738   2.820 -0.1640 -0.1670  0.3725
 6418W        W24622  10.803  11.770  13.088  0.0269 -0.1446  0.1642
 6419W        W24623  16.153   1.539  14.808  0.1393 -0.1009  0.0199
 6420W        W24624   8.534   2.590   1.996 -0.2970 -0.3480  0.2285
 6421W        W24625  17.258  14.650  11.345  0.0022  0.2176  0.0110
 6422W        W24626  15.720  11.946  10.500  0.0000 -0.1912 -0.1026
 6423W        W24627  12.863   2.004   1.728 -0.0105 -0.2751  0.1816
 6424W        W24628  14.541   6.562  13.553 -0.1862  0.2351 -0.1342
 6425W        W24629   1.675  13.947  11.625  0.0126  0.1414  0.0251
 6426W        W24630  18.044  16.010  15.354  0.2663 -0.2664  0.1166
 6427W        W24631  13.361  12.066   5.003  0.1470  0.1567  0.0287
 6428W        W24632   2.320  10.079  14.171 -0.0752 -0.1446  0.0549
 6429W        W24633   5.765   6.702   2.898  0.1534 -0.1582  0.2534
 6430W        W24634   5.476  16.863   2.787 -0.1838  0.0462  0.1874
 6431W        W24635   2.227  18.272   1.299  0.1492 -0.0085 -0.2062
 6432W        W24636  18.326  16.445  14.971 -0.1476 -0.1870 -0.1284
 6433W        W24637  11.542  15.559  12.963  0.1671 -0.0624  0.2655
 6434W        W24638  15.866   9.897   0.559  0.0460 -0.2651 -0.0000
 6435W        W24639   5.570  16.242  14.300  0.0286 -0.1937  0.0020
 6436W        W24640  10.592   9.747  13.659  0.2394 -0.0396 -0.1474
 6437W        W24641  15.431   7.360   0.651  0.1054 -0.0336 -0.0159
 6438W        W24642  18.137  17.202   5.208  0.0804 -0.4501  0.0225
 6439W        W24643   4.760  17.457  13.004  0.1085 -0.3556  0.2873
 6440W        W24644  12.048   4.539  12.938 -0.1016 -0.1963 -0.0339
 6441W        W24645   3.528   0.729  11.350  0.1731 -0.0935 -0.2522
 6442W        W24646   0.126  16.620   2.522  0.2665  0.0984  0.3132
 6443W        W24647   5.372   2.310  11.525  0.1124  0.2862  0.0146
 6444W        W24648  17.995  11.889  11.936 -0.0459 -0.1853 -0.1182
 6445W        W24649   1.140   3.504  11.945  0.2281  0.0109 -0.2434
 6446W        W24650  14.729  17.035  14.653 -0.0730 -0.1021  0.1213
 6447W        W24651   1.833   2.512   2.973 -0.1208  0.1189 -0.2374
 6448W        W24652  16.613   9.893  14.971 -0.0960  0.0026  0.1553
 6449W        W24653   9.186  13.937   3.869  0.1214  0.0005 -0.0986
 6450W        W24654   4.563  12.877   2.398  0.1835 -0.1472 -0.2179
 6451W        W24655  12.654   7.927  13.573  0.1827  0.0219  0.0353
 6452W        W24656   6.797  17.877   1.799 -0.0978 -0.3181  0.0770
 6453W        W24657   7.991   4.381   2.134 -0.0811  0.0804  0.1431
 6454W        W24658   6.734  11.352   1.875 -0.4511 -0.1064 -0.1527
 6455W        W24659  11.695  10.084  11.670  0.2426  0.2305  0.0231
 6456W        W24660   8.112   7.905   4.758 -0.0637  0.2365 -0.0474
 6457W        W24661   2.508   9.651  11.862  0.3731  0.0352  0.0262
 6458W        W24662   5.911   3.866   4.286 -0.0447  0.0487 -0.0210
 6459W        W24663   9.719  13.391  11.829 -0.0851 -0.0068  0.1759
 6460W        W24664   7.303  17.330   2.193 -0.2305  0.0503 -0.1444
 6461W        W24665   3.970   0.715   3.658 -0.1438  0.3553 -0.0748
 6462W        W24666   8.707   0.630   1.622 -0.1144  0.0153  0.4121
 6463W        W24667   6.750   1.462   1.757 -0.1090 -0.0451 -0.1238
 6464W        W24668  12.543  12.337  11.942 -0.2513  0.0990 -0.1920
 6465W        W24669  17.332  16.374   1.652 -0.1944 -0.1950  0.0895
 6466W        W24670  18.557   9.155   2.415 -0.3229  0.0339 -0.1562
 6467W        W24671   2.638   3.080   4.209  0.0145  0.1970 -0.1168
 6468W        W24672  17.690  17.689   3.048  0.3630 -0.0254  0.0549
 6469W        W24673  16.184   5.285  12.018  0.3762  0.1289  0.1084
 6470W        W24674  10.869  17.116   4.929 -0.0070 -0.0775  0.1433
 6471W        W24675  13.511  14.148  11.697 -0.0710 -0.1910 -0.1468
 6472W        W24676  12.415  15.715   4.177 -0.1538  0.1436 -0.0419
 6473W        W24677  17.879   2.924  11.154 -0.0818  0.0363  0.1450
 6474W        W24678  12.720   0.885   4.406  0.3562 -0.1249  0.3715
 6475W        W24679  15.937   5.426  14.556  0.1261  0.1539 -0.2548
 6476W        W24680   4.364   5.568   1.724 -0.1619  0.1126  0.1360
 6477W        W24681   6.458  14.909  15.116 -0.2883 -0.0222 -0.1186
 6478W        W24682   0.573  13.891  12.640  0.1161  0.0727  0.4319
 6479W        W24683   0.136  11.406  13.582 -0.0450 -0.0459  0.0450
 6480W        W24684   8.661   7.026  15.164 -0.1018  0.0512 -0.0636
 6481W        W24685   5.216  17.572  14.773 -0.1092 -0.0151  0.3305
 6482W        W24686   8.623   8.296  14.680  0.0184  0.0335  0.2154
 6483W        W24687  17.606   1.826  14.431  0.3671  0.0834 -0.1836
 6484W        W24688  13.611   8.936  14.696  0.0771 -0.2315 -0.0856
 6485W        W24689  18.570  16.703   1.998  0.0236 -0.0335 -0.1555
 6486W        W24690  13.729  13.630   2.873  0.2586 -0.0045 -0.3007
 6487W        W24691   5.330   5.516   5.479  0.0492  0.0041  0.0952
 6488W        W24692   6.716  13.734   0.734  0.0547 -0.2768  0.2476
 6489W        W24693   1.394   4.447  12.709  0.0157  0.0437  0.0319
 6490W        W24694   0.559   6.021   1.656  0.0899  0.1789 -0.0305
 6491W        W24695   0.315   9.310   1.991  0.0852  0.0222 -0.0276
 6492W        W24696   0.105   2.594   3.900  0.3601  0.0538  0.1508
 6493W        W24697   9.514  12.659  12.574  0.0842  0.1241 -0.1817
 6494W        W24698  13.567   7.606   3.910  0.1293  0.2319 -0.2650
 6495W        W24699   1.080  17.774   2.173  0.0344 -0.4064  0.1625
 6496W        W24700   5.780  10.671   0.899 -0.0372  0.2178 -0.2582
 6497W        W24701   7.475  13.507  13.459 -0.0735 -0.2649  0.1324
 6498W        W24702  18.463   0.496  13.733 -0.1508  0.1776  0.0614
 6499W        W24703   0.830   8.110   1.458 -0.3428  0.0641  0.1847
 6500W        W24704  12.286   6.718   4.426 -0.1092  0.0557 -0.0411
 6501W        W24705  12.939  15.702   3.951  0.1433  0.1577 -0.4340
 6502W        W24706   7.924   7.491  14.200  0.1145 -0.2108  0.0945
 6503W        W24707  18.235  17.624  14.350 -0.4859  0.1365 -0.1701
 6504W        W24708  17.519   9.741   1.519 -0.0983  0.0667  0.1005
 6505W        W24709   5.514   4.396   2.592  0.3579  0.0318  0.1538
 6506W        W24710  18.122  13.733  11.903 -0.0550 -0.0544 -0.0117
 6507W        W24711   5.833   2.099  15.216 -0.0087 -0.1994 -0.0153
 6508W        W24712   1.108   2.627   3.864 -0.4480 -0.0343  0.1965
 6509W        W24713  18.274   5.397  14.337 -0.1295 -0.2210 -0.0227
 6510W        W24714   6.857   0.300   3.009  0.0751  0.0866 -0.0123
 6511W        W24715   1.493   1.561  12.157 -0.1776  0.1003  0.0344
 6512W        W24716   3.523  12.259  13.800  0.0065  0.0529 -0.2666
 6513W        W24717  12.161  16.643  10.931  0.0046  0.0131 -0.3529
 6514W        W24718   4.299   3.518  11.986  0.1568  0.3681  0.1140
 6515W        W24719   5.205   0.334   3.935  0.3905 -0.1383 -0.1773
 6516W        W24720   6.694   7.748   2.144  0.0978  0.2241  0.2605
 6517W        W24721   0.688  11.675   2.511  0.1959 -0.1383 -0.1604
 6518W        W24722  11.246  14.695   0.774  0.1380 -0.0449  0.1260
 6519W        W24723  10.993   9.753  10.974 -0.0103  0.1790  0.2826
 6520W        W24724  15.489   6.732  14.135  0.1405 -0.1356 -0.2846
 6521W        W24725   8.505  15.219  11.348  0.1168  0.0172  0.0591
 6522W        W24726  13.951  13.769  15.220  0.1472  0.0885  0.0413
 6523W        W24727  10.045   2.421  11.810  0.3165 -0.1399  0.1983
 6524W        W24728   0.598  17.281   2.217  0.2868  0.0103 -0.0942
 6525W        W24729  14.856  12.804  12.076  0.0649 -0.0614  0.0354
 6526W        W24730  12.364   8.129  11.035  0.0082 -0.2009 -0.1747
 6527W        W24731  16.786  15.236  11.416 -0.0308  0.1057 -0.0137
 6528W        W24732  16.805  15.925   4.116 -0.1818 -0.2373  0.0152
 6529W        W24733   5.429   0.488  11.612  0.1012 -0.1032  0.0476
 6530W        W24734   7.992  11.435  12.530 -0.0018 -0.2749 -0.0118
 6531W        W24735  11.713   6.262  12.876  0.1126  0.2629 -0.1682
 6532W        W24736  17.743   4.394   2.100  0.3411  0.2988 -0.0590
 6533W        W24737  17.688   6.449  13.288  0.0952  0.3536 -0.1623
 6534W        W24738  12.228  14.055  14.110 -0.0864 -0.1922 -0.0800
 6535W        W24739   9.003  15.015   0.281 -0.0806 -0.0984  0.0769
 6536W        W24740   6.588   1.282   4.464  0.1459  0.0960 -0.1952
 6537W        W24741   9.932   0.660  10.855 -0.1327 -0.0686 -0.1562
 6538W        W24742  14.879  14.271  11.650 -0.1789  0.2709  0.0700
 6539W        W24743   8.106  17.940  13.848 -0.1085  0.1128 -0.1252
 6540W        W24744   3.689  17.508   4.136 -0.3096  0.2079 -0.1077
 6541W        W24745   5.021   1.352  13.151 -0.1294  0.0481  0.1000
 6542W        W24746  11.555   2.265   0.379  0.2835  0.1148 -0.1946
 6543W        W24747  13.637  13.325  15.283 -0.2798  0.0605 -0.0039
 6544W        W24748   3.023  13.467   5.400 -0.0487  0.1134 -0.0619
 6545W        W24749   5.138   4.174  11.093  0.3846  0.0978  0.3209
 6546W        W24750   9.314  16.683   4.230  0.2754 -0.0310  0.0198
 6547W        W24751  11.688   1.284   4.148  0.0492 -0.0248 -0.0579
 6548W        W24752  13.671   6.190  14.278  0.0440 -0.1531 -0.1999
 6549W        W24753  12.736  12.142  11.220 -0.2343  0.1179  0.3324
 6550W        W24754   1.356  11.159   0.005  0.1132 -0.2388  0.0490
 6551W        W24755  11.317  15.963  13.181 -0.1085 -0.2128  0.0635
 6552W        W24756  13.361   9.481   4.017  0.0375  0.0762  0.0451
 6553W        W24757   0.938   9.087   4.485  0.1943 -0.1350  0.0092
 6554W        W24758  13.868  10.775   1.622  0.5009 -0.0214 -0.0739
 6555W        W24759   0.215  17.694   2.167 -0.1815 -0.1141 -0.2502
 6556W        W24760  13.918  14.684  13.797 -0.2731  0.0516  0.0175
 6557W        W24761   7.905   7.918   2.768 -0.3331 -0.2022  0.1714
 6558W        W24762  11.848  16.512   5.804 -0.0756 -0.1876 -0.2975
 6559W        W24763   1.691   2.651   3.775  0.0906  0.1439 -0.0410
 6560W        W24764   5.062   6.109   1.460 -0.3290  0.1236 -0.2444
 6561W        W24765   4.503  11.431   4.037  0.0357 -0.2613 -0.0110
 6562W        W24766  10.450   4.297   0.021 -0.1856 -0.0122  0.2426
 6563W        W24767   7.111   7.050  11.817  0.1365 -0.0341 -0.1569
 6564W        W24768   8.468   3.068   2.059 -0.0801  0.0545 -0.2222
 6565W        W24769  13.157   1.262   4.218  0.0288 -0.0908 -0.0079
 6566W        W24770  11.064   4.843  15.317  0.2108 -0.2709  0.3041
 6567W        W24771   2.145  10.644  11.776  0.0952  0.0144 -0.2738
 6568W        W24772   4.398   3.395  15.102  0.3452 -0.2559 -0.0412
 6569W        W24773   1.316  18.258   3.357 -0.0300 -0.1190 -0.0317
 6570W        W24774  16.458   9.256   4.631  0.2833  0.2346  0.2853
 6571W        W24775   6.281   5.091   2.623  0.0499 -0.0630 -0.1208
 6572W        W24776  14.906  16.470  11.962  0.0343 -0.2128 -0.3363
 6573W        W24777   6.286   0.710   2.463 -0.0986  0.3377 -0.0519
 6574W        W24778   5.970   3.927   1.342  0.0699 -0.0820  0.0398
 6575W        W24779   2.978   8.705  14.351 -0.0349  0.0258 -0.1906
 6576W        W24780  10.313   6.718   0.696 -0.2818 -0.1400 -0.0293
 6577W        W24781   4.722   3.484  13.334 -0.1585  0.1489  0.0152
 6578W        W24782   4.646   1.317   2.220  0.0491 -0.0286  0.1279
 6579W        W24783   6.740  12.381   0.530 -0.1894  0.1700 -0.1196
 6580W        W24784  10.918   0.683  15.308  0.1001 -0.0726  0.0466
 6581W        W24785   3.272   1.781  11.811  0.0566  0.3337  0.0700
 6582W        W24786   7.957   4.359  12.862  0.1434 -0.0421  0.3043
 6583W        W24787   3.113   3.732   3.925  0.2711 -0.1765 -0.1969
 6584W        W24788  14.269   3.215   4.266  0.1171  0.0114 -0.1983
 6585W        W24789  11.498   0.886   0.987 -0.0511  0.0265 -0.3349
 6586W        W24790   2.344  16.217   3.186  0.0313  0.0336 -0.3321
 6587W        W24791   3.745   2.852  11.087  0.0828  0.2912  0.3691
 6588W        W24792  13.775   9.125  15.262  0.0993  0.2609 -0.1621
 6589W        W24793   4.797  10.648   0.432  0.2047  0.3834 -0.0915
 6590W        W24794  16.587   1.773  12.710  0.2203  0.1949  0.4635
 6591W        W24795  11.249  13.432   1.300  0.1674  0.0903  0.1005
 6592W        W24796   7.679   4.588   1.756  0.1175 -0.1016  0.2388
 6593W        W24797  16.308   0.585  15.048 -0.2558 -0.2595 -0.0038
 6594W        W24798   9.291  18.258   3.707 -0.1590  0.0278 -0.1209
 6595W        W24799  14.537  13.014  15.351  0.0396 -0.1593  0.0425
 6596W        W24800   8.936  12.619  12.528 -0.0374 -0.1979 -0.1454
 6597W        W24801  17.395   1.900   3.318  0.0957  0.0609  0.0404
 6598W        W24802   7.111  11.620   3.204 -0.0175  0.3007 -0.0536
 6599W        W24803  14.897   8.827   0.054  0.0770  0.0262  0.0681
 6600W        W24804  17.892  10.324   4.729 -0.0749  0.2307 -0.0953
 6601W        W24805   8.592  12.081   5.308  0.0182 -0.2000  0.1305
 6602W        W24806  16.257  13.283  13.129 -0.2313  0.2225 -0.0912
 6603W        W24807   0.364  15.199   0.098  0.2745 -0.1694 -0.0845
 6604W        W24808  14.221   1.189  13.605  0.1668 -0.4298  0.2206
 6605W        W24809   3.982   5.282   3.063 -0.0267  0.0460  0.1173
 6606W        W24810   0.899  12.989  14.486  0.1597 -0.5744 -0.1351
 6607W        W24811  13.309   3.805   1.894  0.3615  0.0044  0.0045
 6608W        W24812   4.405   7.018  13.023  0.1569 -0.0180  0.1357
 6609W        W24813  14.621  15.984   2.208 -0.2198  0.0202 -0.0197
 6610W        W24814  12.511  10.021  12.836 -0.2488 -0.2489  0.1676
 6611W        W24815   5.729  11.098   4.205 -0.1107  0.2022  0.0446
 6612W        W24816  15.091  10.551  13.756  0.0714 -0.0464  0.3288
 6613W        W24817  12.655  11.188  14.548 -0.0719 -0.2266 -0.0232
 6614W        W24818  13.859   2.809   3.303 -0.3955  0.1145  0.0585
 6615W        W24819  14.805  11.106   1.699  0.3269  0.0534  0.4072
 6616W        W24820   3.579  17.543   1.776 -0.0512 -0.2079 -0.1292
 6617W        W24821   7.721   0.590  11.832 -0.2847 -0.2551  0.0781
 6618W        W24822   6.772   4.713  12.272  0.2104 -0.0700  0.0846
 6619W        W24823  10.673   4.688  13.479  0.1365  0.0852 -0.0324
 6620W        W24824   3.769  11.712  12.292  0.2820  0.1748 -0.1845
 6621W        W24825   8.486   4.065  13.573 -0.1997  0.2952 -0.2242
 6622W        W24826   6.364  12.890   1.267 -0.2372 -0.0463  0.0541
 6623W        W24827  17.329   5.654  13.248 -0.1179  0.1969  0.1067
 6624W        W24828  12.165   6.427   3.140 -0.1685  0.1063 -0.0164
 6625W        W24829   4.786  12.347   2.180 -0.0327  0.1668 -0.3084
 6626W        W24830  12.701   8.348  11.336 -0.1409 -0.0828  0.0661
 6627W        W24831  10.850  17.557   2.516 -0.2229  0.0550  0.0770
 6628W        W24832   8.812   0.836   3.546 -0.0932 -0.1168  0.1909
 6629W        W24833   4.458  11.401   0.990 -0.0702 -0.2649 -0.0629
 6630W        W24834   5.947  13.066  12.793 -0.2751 -0.1164  0.1575
 6631W        W24835  10.612   6.713   4.562  0.0317  0.2376 -0.4012
 6632W        W24836   3.859   1.721   4.443 -0.1037  0.1596 -0.0303
 6633W        W24837   2.363  16.546   2.306 -0.0210  0.1984 -0.3366
 6634W        W24838   4.336   7.902   1.162  0.2358  0.2775 -0.0283
 6635W        W24839   6.606  15.833   1.329 -0.1981  0.0779 -0.1552
 6636W        W24840   0.327   1.688  12.998 -0.2352  0.2665  0.1684
 6637W        W24841  17.616   8.485   4.380  0.0967 -0.1924  0.1362
 6638W        W24842   0.037   5.170  13.970 -0.1518  0.1256  0.0930
 6639W        W24843  17.148  15.468   2.653 -0.1186 -0.1718 -0.0650
 6640W        W24844  17.800  14.634   0.580 -0.1420 -0.3704  0.0788
 6641W        W24845   5.777   8.474  13.707 -0.0173  0.0802  0.0495
 6642W        W24846   3.814   1.684   2.250 -0.1362 -0.0435 -0.0116
 6643W        W24847   2.206  18.589  15.185 -0.0780  0.0775  0.1444
 6644W        W24848   5.129  16.365   1.057  0.0828  0.1917  0.4499
 6645W        W24849  14.363  18.183  12.063 -0.0659 -0.0095  0.1074
 6646W        W24850   0.369   2.956  14.076 -0.0937 -0.1632 -0.0365
 6647W        W24851  18.292  11.116  14.275 -0.1214  0.4249 -0.2000
 6648W        W24852  10.844  17.906   3.805  0.1306  0.0182  0.0293
 6649W        W24853   6.102  12.500  13.025 -0.1420  0.1599 -0.2726
 6650W        W24854  16.119   8.070  10.586  0.1788 -0.3830  0.2005
 6651W        W24855   3.377  14.181  11.623  0.0864  0.2580 -0.0974
 6652W        W24856   0.657  15.575   1.458  0.1587 -0.2541 -0.0756
 6653W        W24857  18.066  15.796   1.901  0.0991 -0.3159  0.0011
 6654W        W24858   4.168  14.542   0.061 -0.1401 -0.1979  0.0128
 6655W        W24859  17.117  16.800   0.760 -0.1695 -0.0469  0.0895
 6656W        W24860  17.477  18.117  13.901  0.0370 -0.4474  0.2483
 6657W        W24861   2.585   2.623  12.111  0.0583 -0.0936 -0.1922
 6658W        W24862  11.338   5.418   3.615 -0.0305  0.1390  0.1677
 6659W        W24863  10.606   2.921   1.030 -0.0031  0.0069 -0.0652
 6660W        W24864   3.557   2.429  10.870 -0.4157  0.0908 -0.0979
 6661W        W24865  17.122  10.290  13.430 -0.2851 -0.0458  0.1263
 6662W        W24866  14.614   0.990  12.431 -0.3709  0.1214 -0.1238
 6663W        W24867   2.532  12.028  13.453  0.2614  0.0942 -0.0406
 6664W        W24868   5.141  10.602  13.549 -0.1026  0.2471  0.1346
 6665W        W24869  15.296  16.423  10.974 -0.1272  0.2301 -0.1738
 6666W        W24870  16.913   0.732  10.517  0.3564 -0.0734 -0.2561
 6667W        W24871  11.183   4.090   4.841  0.3515 -0.0183 -0.0524
 6668W        W24872  16.938  18.370   0.565 -0.1040 -0.0568 -0.1379
 6669W        W24873   7.459   4.957  13.697 -0.1321  0.2828 -0.2080
 6670W        W24874   1.877   6.359  10.283  0.1149 -0.1089  0.2208
 6671W        W24875   6.056   6.785  13.428 -0.0493  0.0561  0.2188
 6672W        W24876  10.783  13.599  12.860 -0.0425 -0.1778  0.0284
 6673W        W24877   9.748   8.715  14.049 -0.0492  0.2575  0.0436
 6674W        W24878   4.974  12.314  12.400 -0.2373  0.0671  0.0738
 6675W        W24879  11.687   0.084  13.775  0.3373 -0.0252 -0.0615
 6676W        W24880  13.462   8.300  12.040 -0.2693 -0.0510 -0.1254
 6677W        W24881   7.102   5.674   2.223  0.0716  0.0633 -0.0446
 6678W        W24882   4.134  14.669  10.866  0.1151  0.0230 -0.0144
 6679W        W24883   6.424   6.402  14.065  0.0110 -0.2080 -0.2066
 6680W        W24884  13.929   0.924  11.530 -0.0996 -0.0155 -0.1510
 6681W        W24885  17.488   3.725  12.722 -0.2721  0.1691  0.3072
 6682W        W24886   1.315   1.372   3.536  0.0929  0.0567 -0.1236
 6683W        W24887  15.522  11.534  15.158 -0.2605 -0.4384  0.1395
 6684W        W24888   7.305   7.971  13.120 -0.1916 -0.1732 -0.2066
 6685W        W24889   1.838   4.348   1.150 -0.2296  0.1739 -0.3351
 6686W        W24890   6.990   0.609   1.186  0.2530  0.2130 -0.0325
 6687W        W24891  11.567   1.330   2.727 -0.3006  0.2272  0.2507
 6688W        W24892  15.160   6.681   1.167 -0.3829  0.0286 -0.0041
 6689W        W24893   8.512  14.199  14.337  0.0015  0.0750  0.0417
 6690W        W24894   5.550   7.928  14.836  0.4180  0.2469  0.0927
 6691W        W24895   3.154  14.833  14.468  0.0981  0.5572  0.0606
 6692W        W24896  17.471   3.725  12.133  0.2711 -0.2434  0.2170
 6693W        W24897   9.988   5.588   3.274 -0.1092  0.0240 -0.1046
 6694W        W24898   2.906   2.933   1.505 -0.2035 -0.2737 -0.0435
 6695W        W24899  17.079  10.229  14.571 -0.3355 -0.2238  0.2219
 6696W        W24900   9.530   1.311  11.179 -0.1334  0.1970  0.1570
 6697W        W24901  18.293  16.076   0.713 -0.3277 -0.1407 -0.3806
 6698W        W24902  15.054   2.639   1.770  0.1262  0.0552 -0.2951
 6699W        W24903   7.472   4.234  12.586 -0.0736 -0.1153  0.1628
 6700W        W24904   4.606  18.239   4.958 -0.2939 -0.0218 -0.1623
 6701W        W24905   9.477   2.514   1.011  0.0758 -0.2723  0.3706
 6702W        W24906  17.118   6.832  12.584  0.0751 -0.2065 -0.2120
 6703W        W24907  15.294   2.855  13.784  0.0655 -0.3983  0.1664
 6704W        W24908  15.778   6.010  13.130  0.4424  0.3829 -0.4075
 6705W        W24909   9.176  15.953  10.934  0.2332  0.1071 -0.1795
 6706W        W24910   4.280  10.475  12.478 -0.0279 -0.1997  0.0672
 6707W        W24911   9.121  15.761   2.776 -0.0060 -0.2627 -0.1695
 6708W        W24912   0.412  10.816  12.711 -0.0074 -0.0687  0.2511
 6709W        W24913   9.354  15.914   0.968 -0.3780 -0.0502 -0.2303
 6710W        W24914  14.985  16.001   2.621 -0.0617 -0.4159  0.1247
 6711W        W24915   3.632  13.963   0.662  0.2601 -0.5139  0.2670
 6712W        W24916   4.419  12.359   2.575 -0.1824 -0.0867  0.2259
 6713W        W24917  18.052  17.090   4.632 -0.1397  0.0536 -0.0887
 6714W        W24918   7.088  13.772  13.240  0.1317  0.0712  0.2933
 6715W        W24919  11.753   7.484   3.361 -0.1408 -0.0318  0.3598
 6716W        W24920  13.244  16.447   4.114 -0.1695  0.0091 -0.0030
 6717W        W24921  13.010  16.928   0.869  0.0569  0.2238 -0.1028
 6718W        W24922   9.837   2.203  10.737  0.2225 -0.4106 -0.1432
 6719W        W24923   0.517   9.684   1.669 -0.1354 -0.0103  0.0164
 6720W        W24924  12.764   3.283  12.690 -0.0757 -0.0412 -0.0649
 6721W        W24925   9.671   6.395   0.009 -0.1096  0.0093 -0.0769
 6722W        W24926   7.737  10.625  11.018 -0.1719  0.0287 -0.0054
 6723W        W24927  17.142   9.825  12.970 -0.3844  0.0278  0.3947
 6724W        W24928   8.720  15.504   1.893  0.0378  0.4170 -0.0565
 6725W        W24929  10.244   1.308  15.311  0.2002 -0.0736  0.1849
 6726W        W24930   7.939  16.550  13.525  0.1585  0.5385  0.2161
 6727W        W24931  14.071   4.588  13.023 -0.0187 -0.1273  0.2989
 6728W        W24932   0.783   7.594  10.722  0.0660 -0.0238 -0.0519
 6729W        W24933   9.720  12.265  15.035 -0.0869 -0.0042 -0.0865
 6730W        W24934   9.864  13.778   2.949 -0.2254  0.3137 -0.0101
 6731W        W24935   0.293   3.057  10.667  0.0557 -0.0291 -0.1109
 6732W        W24936   1.648   1.492   0.440  0.2037  0.2034  0.1405
 6733W        W24937   3.107   7.409   2.166  0.2908  0.0327  0.0868
 6734W        W24938   5.377   6.659  11.290 -0.0818 -0.0003 -0.0267
 6735W        W24939  14.727  17.564   4.376  0.0491  0.0703 -0.0272
 6736W        W24940  12.152  17.671   3.556  0.1167 -0.2469 -0.1868
 6737W        W24941   4.413  13.393  14.840  0.4100 -0.0715  0.0026
 6738W        W24942   3.724  18.499  11.371  0.0366 -0.4157 -0.1621
 6739W        W24943   2.982  10.185   1.070 -0.0472  0.2222  0.2124
 6740W        W24944   5.044   0.765   1.438 -0.2000  0.0502 -0.3111
 6741W        W24945  18.419  11.953  12.157  0.0397 -0.1438 -0.1429
 6742W        W24946  12.063  17.945   3.963 -0.2321  0.0610 -0.1895
 6743W        W24947   9.087   6.435  13.994  0.0642  0.1309  0.2254
 6744W        W24948  12.039   2.449   0.535 -0.2228  0.0778  0.0519
 6745W        W24949   9.875   1.608   4.912  0.1496  0.0636  0.0508
 6746W        W24950  10.484  15.326  14.276  0.1482 -0.0243  0.1077
 6747W        W24951   0.712   3.402   3.408 -0.0849 -0.2683 -0.4650
 6748W        W24952   7.367  16.519   2.010  0.0622  0.0008 -0.0965
 6749W        W24953  16.859  17.326   1.956 -0.2992 -0.2687  0.1398
 6750W        W24954  11.010   9.531  11.444  0.0485  0.0084 -0.2069
 6751W        W24955   3.322   1.733   4.501 -0.3050  0.0687  0.0398
 6752W        W24956   1.152  13.508   0.297  0.4525 -0.1481 -0.2222
 6753W        W24957   2.938   3.524  13.259 -0.2652  0.2581 -0.0115
 6754W        W24958  14.735   6.238   3.203  0.1842  0.1468  0.3836
 6755W        W24959   7.856   3.232  12.040 -0.0484 -0.0647 -0.1127
 6756W        W24960  13.510  18.123  13.938  0.0449  0.1146 -0.2517
 6757W        W24961   5.962  18.121  13.893  0.1267  0.1357  0.1041
 6758W        W24962   6.564   7.221  14.138 -0.0825  0.2285  0.2443
 6759W        W24963   5.922  14.166  12.283 -0.3309 -0.0786 -0.1048
 6760W        W24964   0.294  13.402  15.426  0.2894  0.0501  0.0787
 6761W        W24965   9.676  16.332   2.907  0.2871 -0.2597  0.0180
 6762W        W24966  16.420   3.252  10.666 -0.0817  0.2178  0.0209
 6763W        W24967   1.158  12.181  13.044  0.2542 -0.0678  0.3880
 6764W        W24968  14.999  15.826   4.607  0.1119 -0.3981 -0.1145
 6765W        W24969   4.187  14.281   5.459 -0.2131 -0.1052 -0.1005
 6766W        W24970  10.558  16.177  13.651 -0.1364 -0.3288 -0.1153
 6767W        W24971  13.949   9.779  15.175 -0.1795  0.4203 -0.0926
 6768W        W24972  16.138  11.835  12.672 -0.3406 -0.0764  0.0848
 6769W        W24973  17.922  16.841  12.819  0.2890 -0.0194  0.0975
 6770W        W24974  11.063   4.465   0.253  0.3883  0.0125  0.3100
 6771W        W24975   9.881  11.177   4.286 -0.4047 -0.4376  0.1157
 6772W        W24976  16.223   4.085  12.090  0.1454 -0.3783  0.1426
 6773W        W24977   1.316   0.676   0.306 -0.0297 -0.0751  0.0513
 6774W        W24978  18.365   2.122   1.521 -0.1172  0.0570  0.2252
 6775W        W24979   4.464   9.252  14.390 -0.2020 -0.0852 -0.0161
 6776W        W24980   6.778   2.712   1.228 -0.1848  0.3844  0.2429
 6777W        W24981   4.853   7.166  12.767  0.0866  0.0544 -0.0483
 6778W        W24982  16.106   5.003  14.344 -0.0449 -0.2573 -0.0054
 6779W        W24983  15.639  11.011   2.027 -0.0020 -0.0432  0.0461
 6780W        W24984   9.352  11.815   3.136  0.2078 -0.0295  0.1808
 6781W        W24985  10.618   1.772   4.133  0.3000  0.0036 -0.1649
 6782W        W24986   0.453  12.975   2.759  0.0707 -0.2184  0.0562
 6783W        W24987  10.976  15.420   0.111  0.0686  0.0256  0.1498
 6784W        W24988   7.972   0.672   3.028 -0.0304 -0.1982 -0.2695
 6785W        W24989   8.231  16.378   2.519 -0.0780  0.1428 -0.2476
 6786W        W24990  13.165  10.656   4.205  0.0816 -0.0080 -0.1449
 6787W        W24991  18.223  16.320  13.558  0.1269  0.4920 -0.0300
 6788W        W24992   9.365   7.827   2.696  0.2147 -0.1418 -0.0400
 6789W        W24993  12.507  14.647   1.365  0.1705  0.0552  0.0624
 6790W        W24994  11.529  17.270   0.150 -0.0632 -0.0399  0.2669
 6791W        W24995   9.101   2.937   2.781  0.1098 -0.0791  0.1034
 6792W        W24996   2.058   0.533  13.578 -0.1408  0.1053  0.1048
 6793W        W24997  16.403   7.489  13.598  0.0388  0.1924 -0.1401
 6794W        W24998  14.442   5.812  14.020  0.0822  0.2614  0.3993
 6795W        W24999   0.912  11.354   0.027  0.2121  0.1718  0.2010
 6796W        W25000  16.831  11.462   4.020 -0.1108  0.1427  0.0111
 6797W        W25001   9.224   0.503  14.001 -0.0490  0.1430 -0.0519
 6798W        W25002  14.376  12.630   0.931  0.1452  0.0671 -0.1176
 6799W        W25003  15.448  12.601  15.352 -0.2223 -0.0099 -0.2429
 6800W        W25004   8.911   6.095   0.712  0.0911  0.1495  0.1818
 6801W        W25005   9.077   7.839  13.986  0.1766 -0.0877  0.0453
 6802W        W25006  18.585   0.411   2.030  0.0025  0.1645 -0.0908
 6803W        W25007   1.311   2.887   2.042  0.1068 -0.3693 -0.0019
 6804W        W25008  13.651  11.096  10.914  0.0322  0.1295 -0.2698
 6805W        W25009  17.464   7.174  12.793 -0.0910  0.2493  0.1031
 6806W        W25010  16.442  11.986  15.066  0.1395 -0.1886  0.2758
 6807W        W25011  17.976  18.397   3.524 -0.2904 -0.2461 -0.0070
 6808W        W25012  18.309  17.341   3.623 -0.1819  0.0333 -0.1032
 6809W        W25013   1.278  15.970   3.071  0.2208  0.1369  0.1715
 6810W        W25014   5.420   8.046  13.072  0.0979  0.3471 -0.1520
 6811W        W25015  15.832   8.066   1.446  0.0594  0.2339 -0.1060
 6812W        W25016   5.638   2.331   4.299  0.1976 -0.1346  0.1844
 6813W        W25017   4.073  15.195  14.018 -0.4266 -0.1806 -0.0523
 6814W        W25018  13.927   0.994   0.851  0.0666 -0.3281 -0.2351
 6815W        W25019   7.736   5.416   2.837 -0.0507  0.0201  0.1257
 6816W        W25020   4.211   3.189   2.185 -0.1265  0.1279 -0.3988
 6817W        W25021   1.688   6.736   2.959  0.0023  0.1230 -0.2656
 6818W        W25022  14.222   6.126  13.620  0.0940 -0.3714  0.0322
 6819W        W25023  14.117   4.269  10.987 -0.3821  0.1454  0.0273
 6820W        W25024   8.274  18.137  12.345  0.0942  0.2266 -0.0839
 6821W        W25025   7.521  13.977   3.209  0.0448 -0.1455  0.1201
 6822W        W25026  13.519   2.466  14.768  0.0807  0.1482  0.1290
 6823W        W25027  17.659  11.210  14.863 -0.2006 -0.1658 -0.0712
 6824W        W25028  16.990   5.598   0.808 -0.0835 -0.0185 -0.2622
 6825W        W25029   8.879   3.201   2.330 -0.0171 -0.1625 -0.1838
 6826W        W25030  11.524  13.944  12.775  0.3803 -0.1508 -0.0091
 6827W        W25031  12.727  17.489   4.389  0.0101  0.0736  0.2097
 6828W        W25032  12.578  18.326   0.622 -0.0011 -0.1015 -0.2729
 6829W        W25033  15.762   2.336  14.288 -0.2832 -0.0566  0.0949
 6830W        W25034  17.624  13.597  13.531  0.1360 -0.2078 -0.1148
 6831W        W25035  14.443  17.990   2.927  0.1721  0.0501  0.2824
 6832W        W25036  12.754   3.675  11.946  0.0674 -0.1043  0.3237
 6833W        W25037   4.479   5.914  10.959 -0.1196  0.0504  0.0861
 6834W        W25038  16.493   4.197  14.952  0.0852 -0.0912  0.0086
 6835W        W25039   4.001  13.670   3.465 -0.0021  0.1444 -0.2138
 6836W        W25040   1.070   0.948   3.264  0.0024  0.0897 -0.0523
 6837W        W25041   4.671  14.320  15.387 -0.0649 -0.2493 -0.0648
 6838W        W25042  14.537  10.689   0.085 -0.4029  0.0754 -0.2008
 6839W        W25043  14.075   3.479  13.332  0.1622  0.4363 -0.2391
 6840W        W25044   7.353  12.831   3.753  0.0801 -0.1470 -0.0936
 6841W        W25045  13.048   2.985  14.275 -0.2343 -0.1655 -0.0520
 6842W        W25046   0.919   9.470   2.498  0.2148  0.2018  0.2846
 6843W        W25047   8.130  17.856   3.354  0.1941 -0.1024 -0.1870
 6844W        W25048   5.104  13.135  15.341 -0.2134  0.2951 -0.2071
 6845W        W25049  14.607  14.472  12.633  0.1585 -0.1340  0.0386
 6846W        W25050   2.369   6.511   4.023 -0.0150 -0.0698 -0.0614
 6847W        W25051  14.563   1.345   1.344  0.0808  0.3031 -0.0784
 6848W        W25052   2.954   3.483  14.541 -0.0649  0.0180 -0.1350
 6849W        W25053   3.319   1.376  12.079 -0.1494  0.2562  0.0432
 6850W        W25054  13.032  16.119   1.020 -0.0044  0.0633  0.0599
 6851W        W25055   4.140   2.695   4.375  0.3189  0.0853  0.1934
 6852W        W25056  15.833   4.400  13.187  0.4120 -0.1540  0.1631
 6853W        W25057   8.930   2.779  13.569  0.0081 -0.2958 -0.2436
 6854W        W25058  12.738  13.062   1.647 -0.0031 -0.0378  0.3369
 6855W        W25059  13.064   5.544  13.003 -0.0165  0.0229  0.2890
 6856W        W25060  13.526  12.824   4.215  0.0329 -0.0298 -0.0532
 6857W        W25061   3.012  18.029  12.956 -0.0861  0.0326  0.0579
 6858W        W25062   1.166  10.583  14.414  0.1465  0.0759 -0.2247
 6859W        W25063   3.140  10.100   9.703  0.1342  0.1133  0.1782
 6860W        W25064  16.244   9.203  13.876  0.0025  0.0441 -0.2237
 6861W        W25065   6.460   4.310  12.354 -0.1578 -0.0163 -0.0693
 6862W        W25066  14.121   6.043  14.375 -0.0317 -0.2442  0.4572
 6863W        W25067  18.475  17.389  13.662 -0.1995  0.0881 -0.1793
 6864W        W25068  11.153   7.570  14.794  0.2284  0.1789  0.0533
 6865W        W25069   5.285   8.156   1.373 -0.0436 -0.1468  0.1636
 6866W        W25070   7.692  18.135  13.580  0.2939  0.0821 -0.1275
 6867W        W25071   0.168  10.759  14.272  0.0073 -0.1395  0.1219
 6868W        W25072   1.135   6.888   3.595 -0.0322  0.2312 -0.0932
 6869W        W25073  12.674  18.072  14.159  0.2107  0.0945 -0.0259
 6870W        W25074   0.255   7.779   2.027 -0.1396 -0.1835 -0.3186
 6871W        W25075   7.987   5.690   3.197  0.1842  0.1628  0.0213
 6872W        W25076   4.729   5.540   2.061  0.3035  0.0464  0.0305
 6873W        W25077  18.406   4.926  11.666 -0.1966 -0.1010  0.2612
 6874W        W25078  17.546   3.733   4.363 -0.2418 -0.0407  0.2564
 6875W        W25079  11.751   8.461  12.292  0.3859 -0.2605  0.0265
 6876W        W25080   7.782  15.735   4.453  0.0846  0.1995  0.0712
 6877W        W25081   5.525  15.425   1.053 -0.1617  0.0208  0.1427
 6878W        W25082  12.635   4.106  13.985 -0.2597  0.2023  0.2023
 6879W        W25083   9.211  13.580  15.438  0.0275  0.0594 -0.0104
 6880W        W25084   5.484   4.741   0.060  0.3486  0.0595  0.1196
 6881W        W25085   9.588   9.457   4.448  0.1736  0.0329 -0.1277
 6882W        W25086   0.196   1.487  11.730  0.0349  0.0416 -0.2118
 6883W        W25087   6.072  10.764  13.653 -0.0683  0.1295  0.0514
 6884W        W25088  13.834  14.280  12.095  0.0418  0.1910 -0.2919
 6885W        W25089  17.184   6.685  14.295  0.3774  0.0687 -0.2033
 6886W        W25090  11.216   1.000  14.928 -0.1401 -0.2844 -0.2166
 6887W        W25091   6.331   0.191   4.800  0.3240 -0.1441  0.4759
 6888W        W25092   1.798  16.229  14.019 -0.0117 -0.1548  0.3010
 6889W        W25093   7.332  13.867   3.719  0.0426  0.1821 -0.2100
 6890W        W25094   7.176   2.802  11.740 -0.1058  0.3296  0.0035
 6891W        W25095   4.687  11.491  10.886  0.1272 -0.0333 -0.0610
 6892W        W25096  11.247   7.930  13.350 -0.0244 -0.2872 -0.0052
 6893W        W25097  18.046   2.738  14.825 -0.0038  0.1631 -0.4185
 6894W        W25098  12.181  15.249   3.561 -0.0074 -0.3329 -0.3023
 6895W        W25099   4.348   9.176   1.799 -0.2240 -0.0496 -0.0116
 6896W        W25100   6.865   2.104   3.527  0.0840 -0.3708  0.2373
 6897W        W25101   6.490   1.035   1.912 -0.3194  0.3380  0.1457
 6898W        W25102   8.677  15.805  11.500 -0.2201  0.2127 -0.1010
 6899W        W25103   8.528  14.556   1.912 -0.1012 -0.0396 -0.0654
 6900W        W25104  10.033  10.748   2.374  0.0192  0.1226  0.0156
 6901W        W25105  11.304   7.516  11.415 -0.1453 -0.0895  0.0618
 6902W        W25106   7.803   5.054  11.146  0.0890  0.0544  0.1656
 6903W        W25107   8.776  17.654   1.203  0.1423 -0.1454 -0.2311
 6904W        W25108   4.303   7.694   3.166  0.0989  0.2802  0.3460
 6905W        W25109  10.053  14.106  14.328 -0.1190  0.1635 -0.3115
 6906W        W25110   2.307  11.475  11.726  0.1532 -0.0911  0.0764
 6907W        W25111   4.389  12.012   0.477 -0.0009  0.0310  0.0757
 6908W        W25112   6.475   0.727  13.753  0.1473  0.0997  0.1675
 6909W        W25113   5.207   6.013  13.407  0.1464 -0.0209 -0.1248
 6910W        W25114  14.825  14.490  15.131 -0.2766  0.2422  0.3159
 6911W        W25115  17.177   6.852   0.908  0.2816 -0.0010 -0.3798
 6912W        W25116  17.999   5.410   1.651  0.2695  0.1032  0.0206
 6913W        W25117  18.216  17.771   0.628 -0.0520 -0.0771 -0.0030
 6914W        W25118  11.089   1.915  11.344  0.1130 -0.1018  0.1299
 6915W        W25119   8.997  17.271  11.389 -0.0055  0.2098  0.1435
 6916W        W25120  17.703   4.721   3.946  0.2585 -0.0296 -0.0180
 6917W        W25121  12.741  16.122  11.281 -0.2606  0.1620  0.2167
 6918W        W25122   3.577  10.913   4.152 -0.1009  0.0569  0.0330
 6919W        W25123   9.318   3.731  15.446  0.1404 -0.1781 -0.2892
 6920W        W25124  16.052  12.325  10.766 -0.1775  0.3115  0.1284
 6921W        W25125  14.367  17.746   4.050 -0.1718  0.1753  0.3104
 6922W        W25126   1.011  18.300  10.597  0.0152 -0.2429  0.0433
 6923W        W25127  11.448  11.726   3.317  0.2617  0.0819 -0.1615
 6924W        W25128  18.503   8.166  14.695 -0.3515 -0.0602  0.2452
 6925W        W25129  14.065  14.628   0.845  0.0551 -0.1855  0.2060
 6926W        W25130  17.721   7.371  12.284  0.0337 -0.0864 -0.1812
 6927W        W25131   9.443   9.714  13.050  0.0354  0.0132  0.1514
 6928W        W25132   9.611  10.322  14.792  0.1551 -0.0593  0.1879
 6929W        W25133  18.506   7.966   1.020 -0.0746 -0.2539  0.1232
 6930W        W25134  15.642  16.488   3.931 -0.0923  0.2451 -0.1562
 6931W        W25135  16.751   1.883   1.909  0.3629  0.1673 -0.1657
 6932W        W25136  16.761  12.481  11.376  0.1400 -0.1214  0.1297
 6933W        W25137  10.408   4.688   4.411  0.0393 -0.1140  0.1095
 6934W        W25138   2.827   5.964   3.762  0.1431 -0.4632 -0.2066
 6935W        W25139  11.627   6.642  13.333 -0.1151  0.2687 -0.0268
 6936W        W25140  13.951   4.241  10.413  0.0876  0.1629 -0.3313
 6937W        W25141   0.310   1.675  15.366 -0.1338 -0.0086 -0.3030
 6938W        W25142   9.178   3.239   0.778 -0.0966  0.1021  0.2808
 6939W        W25143  16.990  18.181  12.036 -0.0726 -0.0873 -0.1212
 6940W        W25144  16.636   4.045  12.556 -0.0287  0.0105  0.1056
 6941W        W25145   7.746   9.234  11.477 -0.1705 -0.2319 -0.2104
 6942W        W25146   5.937  11.076  12.986 -0.0598 -0.2154  0.3625
 6943W        W25147   9.024   5.026  15.251 -0.0534  0.0229  0.3367
 6944W        W25148   0.636  15.344  13.408 -0.1119 -0.0456  0.1166
 6945W        W25149   0.639   5.146   0.867  0.1211 -0.0091  0.4030
 6946W        W25150   2.558   9.001   4.396 -0.0914 -0.1002 -0.1177
 6947W        W25151   0.376  11.014   2.670  0.1361  0.2146 -0.0625
 6948W        W25152   9.985   6.483  13.471 -0.2691 -0.0105 -0.1299
 6949W        W25153  13.509   0.957  12.985 -0.2561  0.2151 -0.1660
 6950W        W25154  14.696   4.518   1.365  0.0518  0.1150  0.2915
 6951W        W25155  17.285  15.551  12.120 -0.0852  0.0147  0.1841
 6952W        W25156  11.013   3.390  13.758  0.0478 -0.0246  0.1700
 6953W        W25157  14.827  12.659   0.779 -0.2029  0.0862  0.1568
 6954W        W25158  15.812   4.366   2.269 -0.1627  0.1464  0.0718
 6955W        W25159   0.408   7.041  13.453 -0.0278 -0.0796 -0.1614
 6956W        W25160  11.833   9.041   1.218  0.0618  0.2191 -0.0558
 6957W        W25161  12.224   8.194  14.819  0.0187  0.0305  0.1215
 6958W        W25162   9.329   9.740  11.172 -0.1433  0.2621  0.1060
 6959W        W25163  11.520  15.310  13.757 -0.0322 -0.2473  0.2664
 6960W        W25164  15.209  13.045   5.115 -0.2407 -0.2401  0.4493
 6961W        W25165  12.822  14.365   0.267 -0.0409  0.1210  0.0039
 6962W        W25166   0.937   7.693   1.857 -0.2373  0.1786 -0.3009
 6963W        W25167  14.212  11.195   4.065  0.0896  0.1589 -0.0763
 6964W        W25168  12.817   2.483   3.588 -0.0263  0.0641  0.3321
 6965W        W25169   5.957  16.057   2.346 -0.3917  0.1816 -0.0590
 6966W        W25170  11.324   3.474   3.194  0.0104 -0.1936 -0.2319
 6967W        W25171  16.857  11.949   4.071  0.4723 -0.1277  0.2250
 6968W        W25172   7.423  13.696  14.654 -0.1133  0.0251  0.1383
 6969W        W25173   2.892   1.201   3.545 -0.2490 -0.1685 -0.2330
 6970W        W25174   7.920  15.946  12.375 -0.1657 -0.0515  0.0135
 6971W        W25175   0.501  18.297  12.705 -0.4357  0.0153  0.1797
 6972W        W25176   0.072   9.004   4.034 -0.1047  0.0413 -0.2302
 6973W        W25177   7.986   0.648  15.224 -0.0375  0.3207 -0.0090
 6974W        W25178  14.330  13.133   4.282  0.0801 -0.1700 -0.2025
 6975W        W25179  15.360   3.135   3.742 -0.1794 -0.0740 -0.4866
 6976W        W25180  15.162  11.312   1.980  0.0881  0.1179  0.0451
 6977W        W25181   3.809   2.878   4.733  0.2896  0.4559 -0.1097
 6978W        W25182   6.440  10.978   2.886  0.0319  0.2008  0.0891
 6979W        W25183  11.892  11.022  15.267 -0.4780 -0.0916  0.0902
 6980W        W25184   4.463   4.293  12.293  0.0453 -0.1439 -0.0874
 6981W        W25185  13.408  17.165   5.276 -0.4771 -0.0786 -0.2161
 6982W        W25186   5.342   6.888   3.260  0.1333  0.0692  0.0256
 6983W        W25187   5.956   4.972   4.231 -0.3489  0.2491  0.2768
 6984W        W25188  14.547  16.805  11.472 -0.0380  0.2197  0.3020
 6985W        W25189  13.846   3.042   2.853  0.1402  0.2900 -0.1476
 6986W        W25190   1.686   3.789   3.003  0.1404  0.0515 -0.1157
 6987W        W25191   1.808  12.854   1.496 -0.2045  0.1515 -0.2424
 6988W        W25192   1.722  12.573   0.485 -0.2842  0.0708  0.1294
 6989W        W25193  11.735  13.982   0.410 -0.2100  0.2504  0.0618
 6990W        W25194  11.733   0.758  13.538 -0.0358  0.2486 -0.1081
 6991W        W25195   6.509   6.283  13.079  0.2224  0.1324 -0.0387
 6992W        W25196   0.345   4.717  13.723  0.2968 -0.0884  0.0402
 6993W        W25197   7.604   2.271  13.635  0.1152  0.1259  0.1797
 6994W        W25198   4.796   3.554   2.550 -0.1201 -0.1355 -0.0674
 6995W        W25199   3.297  18.479  12.232 -0.4095  0.3643  0.2019
 6996W        W25200  12.324   5.930   2.801  0.1759  0.1638 -0.2048
 6997W        W25201   4.782  16.698   3.579 -0.2027  0.0848  0.2395
 6998W        W25202   1.892   5.231  11.463 -0.0715  0.1627  0.0721
 6999W        W25203  12.764   2.153  12.249  0.2937  0.0427 -0.0471
 7000W        W25204  15.349   9.567   2.056  0.0225  0.4075  0.5357
 7001W        W25205   3.763  10.070  12.320 -0.0880 -0.0197  0.1068
 7002W        W25206   8.927  11.685   1.223 -0.2046  0.1394  0.3416
 7003W        W25207   1.893   0.559   4.171  0.2598 -0.3433 -0.0010
 7004W        W25208   1.914   6.451  14.721  0.1111 -0.0744 -0.1279
 7005W        W25209   9.715  17.984  15.288 -0.1284  0.4421  0.1012
 7006W        W25210  12.498   6.656   1.665  0.1987 -0.3060 -0.1032
 7007W        W25211   9.055   7.158  14.873 -0.0174 -0.1682  0.0706
 7008W        W25212   3.268   6.268   1.271  0.1152 -0.0960  0.1005
 7009W        W25213  13.619  15.516  12.289 -0.4736  0.0394  0.0831
 7010W        W25214   4.091  16.778  15.209  0.1573 -0.0597  0.0709
 7011W        W25215   1.502   2.924  15.366  0.0363 -0.2528 -0.1296
 7012W        W25216  13.925  10.228  14.776 -0.1607 -0.1084  0.0810
 7013W        W25217   0.579   9.327   1.131 -0.1682 -0.0882  0.1675
 7014W        W25218   5.534  14.250  14.429 -0.1920 -0.0328  0.4614
 7015W        W25219  15.897  16.238   1.534 -0.0218 -0.0555  0.0021
 7016W        W25220   1.755   7.567   9.800  0.0902  0.3551 -0.1011
 7017W        W25221   6.000   8.132  12.427  0.4548 -0.3300 -0.2668
 7018W        W25222   5.708  15.204   0.581 -0.1342 -0.0381 -0.1347
 7019W        W25223  13.717   4.089   4.404  0.0220 -0.0701  0.1110
 7020W        W25224   5.614  16.418  11.124  0.1993  0.3040  0.2860
 7021W        W25225  13.405   4.018   1.022 -0.0736 -0.0069 -0.0775
 7022W        W25226   3.636   7.140  10.747  0.0291  0.2087 -0.0661
 7023W        W25227   5.475   1.658   4.077  0.0165 -0.1236 -0.1005
 7024W        W25228  13.785  13.328   4.207  0.0901  0.3795 -0.1600
 7025W        W25229   2.527  13.652   2.082  0.0408 -0.2477  0.1687
 7026W        W25230  13.431  13.034   2.448 -0.4640  0.2529 -0.0451
 7027W        W25231  14.562  16.009   4.528 -0.0137 -0.4115  0.2069
 7028W        W25232  17.194  18.072  14.677  0.1421  0.0396 -0.0669
 7029W        W25233  14.635   5.554  11.125  0.2637  0.2441  0.0341
 7030W        W25234  17.705   8.388  12.412  0.0581  0.1576  0.0937
 7031W        W25235  13.513   0.798   0.572  0.3806 -0.1990 -0.2199
 7032W        W25236  13.501   6.729  14.188 -0.6498  0.0820 -0.0527
 7033W        W25237  10.130  10.684  15.333  0.0664 -0.1036 -0.2017
 7034W        W25238  16.314  16.348   2.780 -0.1237 -0.1436 -0.0427
 7035W        W25239   1.335  10.292   0.303 -0.1154  0.1992  0.1379
 7036W        W25240  13.709   8.896   2.737  0.1325 -0.1296 -0.1323
 7037W        W25241   1.745  10.881  13.288  0.1069 -0.0828 -0.0519
 7038W        W25242   3.322  15.080  13.625 -0.0268 -0.1482  0.2667
 7039W        W25243   0.709   2.791  10.001 -0.0967  0.0192  0.2271
 7040W        W25244   0.909   1.585   1.425 -0.2852  0.3055 -0.0096
 7041W        W25245   4.829   9.348  12.502  0.3388  0.0675 -0.0964
 7042W        W25246  11.348   2.114   4.025 -0.0874  0.1437  0.2310
 7043W        W25247   3.468  12.380   0.481  0.1880  0.4596  0.1252
 7044W        W25248  12.358  14.357   0.888  0.4314 -0.2775 -0.2022
 7045W        W25249   8.516   2.135  15.214  0.3026  0.0867  0.0163
 7046W        W25250  17.079  17.157  12.128 -0.0102 -0.2641 -0.3909
 7047W        W25251  12.872  10.857   1.892  0.4654  0.2364  0.0198
 7048W        W25252  13.533   3.576  11.469  0.1233  0.4373  0.1892
 7049W        W25253   8.326  16.669  14.993 -0.0097  0.0030  0.1838
 7050W        W25254   7.370   3.198  14.285 -0.1094  0.0177  0.1080
 7051W        W25255   6.223  13.213   0.517  0.0702 -0.0032 -0.0985
 7052W        W25256   8.703   1.473  14.094  0.0225 -0.2879  0.1909
 7053W        W25257  17.485   2.751   0.251  0.2234 -0.0603 -0.1789
 7054W        W25258  15.491  10.325   4.297  0.1745  0.3805  0.0313
 7055W        W25259   0.788  13.251   1.706  0.1973  0.1277  0.2724
 7056W        W25260   1.379  18.588   0.767  0.1128  0.2511 -0.0273
 7057W        W25261  13.807  14.882   5.648 -0.0038  0.1355 -0.0998
 7058W        W25262   6.189  12.167  11.721 -0.3756  0.3490 -0.0340
 7059W        W25263   4.884   8.419   2.957  0.0212 -0.1000  0.1517
 7060W        W25264  16.582   1.691  11.604  0.0725  0.2644  0.2232
 7061W        W25265   1.234  12.303   2.144 -0.2111 -0.0252  0.1403
 7062W        W25266  12.633  14.754  11.069  0.3533  0.0045  0.0879
 7063W        W25267  13.495   1.015   3.874 -0.1043 -0.1145 -0.0705
 7064W        W25268   7.657  17.471  11.706  0.0278  0.0126 -0.2432
 7065W        W25269   2.164  14.854   4.470 -0.0617  0.1265  0.0235
 7066W        W25270   9.308   3.161  12.174  0.0187 -0.3077 -0.1954
 7067W        W25271   6.010   3.457   3.545  0.2246  0.0992 -0.2046
 7068W        W25272  11.109  15.103   4.005  0.1111  0.0461 -0.0852
 7069W        W25273  10.940   9.804   9.816 -0.2504 -0.1430  0.3084
 7070W        W25274   0.837  11.879   5.529 -0.0813 -0.1003 -0.0741
 7071W        W25275   3.654   1.863   1.152 -0.1417 -0.1536 -0.5965
 7072W        W25276  10.285  17.203  13.140 -0.1065 -0.1940  0.1116
 7073W        W25277  17.538  10.210  15.068  0.0402  0.0769 -0.1225
 7074W        W25278  16.650   9.622  13.294  0.4639  0.3959 -0.2586
 7075W        W25279   0.760  12.179  11.941  0.2270 -0.2359  0.3535
 7076W        W25280   7.220  14.742   0.493 -0.0211  0.1289 -0.2770
 7077W        W25281   4.770  18.280   4.489 -0.2963  0.0243 -0.3718
 7078W        W25282   8.627   9.213  14.433  0.0343 -0.0555 -0.4306
 7079W        W25283  12.344  14.690   0.088 -0.2802  0.0406  0.1495
 7080W        W25284  11.281  14.235  13.096 -0.2252 -0.1449 -0.0673
 7081W        W25285   9.474  12.926  11.620 -0.5105 -0.2108 -0.0210
 7082W        W25286   0.395   9.381   4.659  0.0460  0.0391  0.3260
 7083W        W25287   2.391   7.470   4.993  0.0542  0.1326 -0.0386
 7084W        W25288   4.963   7.841   3.703 -0.0096 -0.1126  0.2618
 7085W        W25289   7.442  12.402   1.631 -0.0864 -0.0018  0.1280
 7086W        W25290  12.824   5.528   2.857 -0.1940 -0.0306 -0.0353
 7087W        W25291  18.048   6.901   9.751  0.4331  0.0072 -0.2934
 7088W        W25292   6.653   5.298  13.489  0.1698 -0.0703 -0.3819
 7089W        W25293   6.753  16.485   3.841  0.1952 -0.0713  0.0105
 7090W        W25294  10.331  11.448  13.251 -0.0999  0.3319 -0.3562
 7091W        W25295  17.869  15.702   4.234 -0.0898  0.2611  0.0306
 7092W        W25296  15.856  12.104  12.295 -0.1372  0.0512 -0.3695
 7093W        W25297   8.839   0.481   3.916  0.3635  0.0540 -0.0591
 7094W        W25298  12.047   7.606  14.005  0.2350  0.0496 -0.3024
 7095W        W25299  17.048   6.409  13.842  0.0196  0.2772  0.1193
 7096W        W25300  16.135   8.144   3.781 -0.1364  0.4615 -0.3700
 7097W        W25301  14.066  17.980  11.743  0.0419  0.0706  0.0469
 7098W        W25302  11.006   6.616   1.576 -0.0709  0.0888 -0.0411
 7099W        W25303  10.391   5.879   1.471  0.0300 -0.1432  0.3431
 7100W        W25304   7.202   4.546  11.620  0.1564 -0.1092 -0.1585
 7101W        W25305   2.626  16.502  10.069  0.0168  0.0815  0.1414
 7102W        W25306  10.912  18.066  13.897 -0.1915 -0.0927 -0.0256
 7103W        W25307   7.618   4.950   2.710 -0.1260  0.1005 -0.1072
 7104W        W25308   2.071  16.356  14.435  0.0821  0.1568 -0.4981
 7105W        W25309   6.841  10.840   1.895  0.0208  0.3157 -0.3302
 7106W        W25310   8.319   4.814  10.424  0.0099  0.4123 -0.1251
 7107W        W25311  11.838   4.651  12.040  0.0960 -0.2847 -0.0211
 7108W        W25312   7.277   5.737   2.706 -0.0890 -0.0039 -0.2832
 7109W        W25313  12.750   8.945  14.949 -0.0046  0.1021  0.3030
 7110W        W25314   6.372   4.661   2.144 -0.0031  0.1960  0.1468
 7111W        W25315  11.839   7.781   1.857  0.1502 -0.0556  0.2243
 7112W        W25316   3.419   9.485  12.330  0.0803  0.1584  0.1028
 7113W        W25317   1.059  12.643  13.255  0.0854 -0.0894  0.3755
 7114W        W25318  15.771   2.544   2.208  0.2200 -0.1006 -0.1148
 7115W        W25319  13.149  13.828   3.975 -0.0537  0.0194  0.1429
 7116W        W25320  17.299  12.786   2.966 -0.0556 -0.0319  0.1216
 7117W        W25321   3.117  16.441  15.071  0.2381 -0.1183  0.2325
 7118W        W25322   0.960   2.954  11.295  0.4408 -0.0764  0.4926
 7119W        W25323  18.441   4.987  10.751 -0.0604  0.0430 -0.4850
 7120W        W25324  15.626  15.561   2.004 -0.3137 -0.0674  0.0869
 7121W        W25325  11.272  11.643  12.959 -0.3542 -0.1198  0.0182
 7122W        W25326  13.740   7.589   0.034 -0.1418 -0.4201 -0.1341
 7123W        W25327  14.056  15.697  14.041 -0.2865  0.3278 -0.2697
 7124W        W25328  15.232   7.122   2.488 -0.4650  0.0978 -0.0051
 7125W        W25329  14.061  10.674  11.021 -0.2023 -0.1749 -0.0842
 7126W        W25330   3.807   1.348   0.823 -0.2078  0.1521 -0.1557
 7127W        W25331   7.486  17.392   4.751 -0.1973  0.1672 -0.0930
 7128W        W25332   7.360  10.796  11.338 -0.0694  0.1514  0.1828
 7129W        W25333   0.606  16.015   1.846 -0.0956  0.2402  0.0138
 7130W        W25334  17.268  17.836  12.297 -0.2090 -0.3165 -0.0885
 7131W        W25335  16.206   2.086  10.443  0.0886  0.0449  0.2180
 7132W        W25336  15.483  17.040  11.547  0.0837  0.1136  0.4445
 7133W        W25337   0.067  10.869   3.495  0.1007  0.0739  0.1954
 7134W        W25338   2.278  13.125  13.287  0.0461  0.0363  0.1042
 7135W        W25339   1.809   0.930  11.713  0.1230  0.0064  0.2458
 7136W        W25340   4.247   8.982  10.760 -0.0138  0.1368 -0.3019
 7137W        W25341   6.834   3.516  14.615  0.0292 -0.1834 -0.1247
 7138W        W25342  11.557  12.074   2.485  0.1340  0.0853  0.2324
 7139W        W25343  12.242   9.792   0.658 -0.1955 -0.0613 -0.0406
 7140W        W25344   2.015  13.406   0.037  0.2427 -0.3584 -0.1398
 7141W        W25345   4.357   3.304   2.725 -0.0556  0.2230 -0.0915
 7142W        W25346  12.184  12.471   4.220 -0.0939  0.2705  0.2425
 7143W        W25347  17.278  11.284   4.191  0.1496  0.0663  0.2572
 7144W        W25348  13.969  11.174   2.642  0.0481 -0.0658  0.0390
 7145W        W25349   3.970  11.464  13.425  0.2579 -0.0486 -0.1110
 7146W        W25350   2.557   9.406   5.656  0.2501  0.2723  0.0128
 7147W        W25351   3.891  14.082  11.709  0.0993  0.3711 -0.2666
 7148W        W25352   9.055  11.934   4.348 -0.0099  0.0107  0.2232
 7149W        W25353   7.613  17.212  14.855  0.0101  0.2834 -0.0964
 7150W        W25354   6.437   3.118  13.796 -0.0945 -0.1088  0.1726
 7151W        W25355   0.731  13.926  13.134 -0.3545 -0.3072  0.3115
 7152W        W25356  16.589   6.148  14.985 -0.2121 -0.0629  0.1734
 7153W        W25357  10.023   2.909   3.640  0.0202  0.0891  0.2589
 7154W        W25358  17.624  11.939   2.952  0.0586 -0.0931 -0.0844
 7155W        W25359  17.296  15.652   1.504 -0.1626  0.1979  0.4070
 7156W        W25360   9.406   9.804  12.050 -0.0673  0.0898  0.0305
 7157W        W25361  15.344   9.710  15.286  0.2589  0.0366  0.0807
 7158W        W25362   9.636   1.453  12.399  0.0235 -0.1266  0.2012
 7159W        W25363  16.709  17.178  14.897  0.1753 -0.1342  0.1136
 7160W        W25364  11.076   8.376   2.759  0.2219 -0.1797  0.1297
 7161W        W25365   5.374  11.480  12.283 -0.0712 -0.2765  0.0675
 7162W        W25366   7.522  18.187  12.186 -0.1629  0.3049  0.0046
 7163W        W25367   9.737   5.383   1.379 -0.0902 -0.0359  0.1519
 7164W        W25368  16.095   8.638  11.704 -0.1997  0.2956 -0.3542
 7165W        W25369   6.471   9.224   2.663  0.1705 -0.0220  0.2232
 7166W        W25370  14.710   3.527  11.144  0.2306  0.1225  0.0435
 7167W        W25371   7.735   2.286   4.121 -0.1270 -0.0627 -0.0227
 7168W        W25372  12.978  14.690   1.488 -0.0260  0.0580 -0.1095
 7169W        W25373   6.758  14.958  10.988 -0.1913  0.1539  0.1839
 7170W        W25374  15.704   1.685   2.617 -0.4668  0.0392  0.3167
 7171W        W25375  18.340   4.385   2.142 -0.1598  0.0142  0.0235
 7172W        W25376   4.719   9.947   2.147  0.2630 -0.0533 -0.4722
 7173W        W25377  14.442   6.258  11.416 -0.2805  0.1695 -0.1487
 7174W        W25378   8.977   4.650   4.600 -0.1909  0.0347 -0.4498
 7175W        W25379   1.093  11.748  11.917 -0.3290  0.2155  0.1118
 7176W        W25380  15.854  10.712  14.991 -0.0993  0.1965 -0.0874
 7177W        W25381   0.686   1.691   3.853 -0.1616 -0.0206  0.0424
 7178W        W25382   8.088  12.889   0.045  0.2537  0.2243 -0.0085
 7179W        W25383  18.478   2.456   1.158  0.1841  0.2068 -0.0655
 7180W        W25384  15.416  15.464   2.455  0.1515  0.0974 -0.0811
 7181W        W25385   0.653  16.293   2.307  0.2242  0.1479 -0.1566
 7182W        W25386  16.611  16.590   1.493  0.1604 -0.2397 -0.1138
 7183W        W25387   0.663   3.471   0.359 -0.3072 -0.1238  0.0223
 7184W        W25388   3.687   6.251  10.403 -0.0880  0.1016 -0.2046
 7185W        W25389  17.777   7.674  10.692  0.1354  0.2603 -0.1996
 7186W        W25390  13.424   5.484  12.603  0.0511 -0.3928 -0.1329
 7187W        W25391  16.782  15.109   2.574 -0.2047 -0.2898  0.1557
 7188W        W25392   1.372  16.153  11.438 -0.0409  0.1346 -0.0474
 7189W        W25393   2.174   0.228   4.441  0.0996  0.3431  0.0523
 7190W        W25394   2.712   5.596  11.358 -0.0047  0.1222  0.0375
 7191W        W25395  15.817  15.992   4.729  0.1663 -0.3855 -0.2745
 7192W        W25396   0.858  14.371  11.241  0.0106  0.0013  0.2675
 7193W        W25397   8.332   2.978  15.279  0.0912  0.0242 -0.2860
 7194W        W25398   5.948   3.869   3.776 -0.1516  0.0772 -0.0422
 7195W        W25399   3.219   4.569  11.859 -0.1265 -0.0657 -0.0103
 7196W        W25400  11.019  12.277   4.374  0.4243 -0.2514  0.0507
 7197W        W25401   0.295  14.410   0.862  0.0708  0.0055  0.1250
 7198W        W25402   6.910  13.046   4.900  0.2328 -0.1485  0.0184
 7199W        W25403   9.280   6.523   0.354 -0.1485 -0.2496  0.1975
 7200W        W25404  10.172   7.242  11.909 -0.0540  0.4217  0.3566
 7201W        W25405   4.346  12.535   0.376  0.1895 -0.0263  0.2626
 7202W        W25406  12.684   2.864  11.729  0.0703  0.0650 -0.0305
 7203W        W25407   8.589  15.959   5.884 -0.0472 -0.1053  0.0489
 7204W        W25408  14.819   2.091  11.157  0.1731  0.1093  0.2104
 7205W        W25409   6.801   9.124  13.641  0.1670 -0.3270 -0.0734
 7206W        W25410  14.312   6.774  11.572 -0.0899 -0.1003 -0.3253
 7207W        W25411   4.402   3.422   0.220 -0.1520 -0.2512  0.1115
 7208W        W25412  13.267  12.201   3.039 -0.3103  0.1005  0.1104
 7209W        W25413  12.834  17.279  14.594 -0.0922  0.0086 -0.0874
 7210W        W25414  14.668   7.507  11.089  0.2563  0.1156 -0.1653
 7211W        W25415  15.649  16.865   1.551  0.0831 -0.3363  0.0173
 7212W        W25416  12.590  15.482  14.760 -0.1807 -0.1104 -0.1157
 7213W        W25417  11.376   6.283  14.156  0.0412  0.0222  0.2119
 7214W        W25418  11.097  12.164   1.599  0.3550  0.2500  0.0241
 7215W        W25419  11.564  15.950   4.448 -0.1773  0.4289 -0.2199
 7216W        W25420  14.746   3.062   3.319 -0.1052  0.3653 -0.0868
 7217W        W25421   1.982  17.460   1.788 -0.1045 -0.0729 -0.0006
 7218W        W25422   2.290  14.640  11.459  0.4158  0.0079 -0.0514
 7219W        W25423  13.714   4.485  12.666 -0.0962 -0.1062  0.2177
 7220W        W25424  17.463  15.777  11.744 -0.1258 -0.0805 -0.0283
 7221W        W25425   4.356  11.801   3.697  0.2800  0.3487  0.0148
 7222W        W25426   5.894   0.422   3.564 -0.0275  0.1280 -0.0705
 7223W        W25427   7.932  15.841  14.503  0.0320 -0.1901 -0.2123
 7224W        W25428   0.156  12.990  12.292 -0.2593 -0.0293  0.0247
 7225W        W25429   0.018   2.847   0.883 -0.0736  0.1916  0.1552
 7226W        W25430   1.739  15.861  13.495 -0.0826 -0.0821  0.2370
 7227W        W25431  14.802   9.958   3.798 -0.1250  0.3445 -0.1719
 7228W        W25432   2.774  15.651   1.943  0.2440  0.0516  0.0902
 7229W        W25433  14.340   4.218   1.647 -0.1212 -0.0888 -0.4228
 7230W        W25434   2.706   4.838   3.022 -0.0806  0.6182  0.0459
 7231W        W25435   8.641   0.660  11.660 -0.3631 -0.0930 -0.3185
 7232W        W25436   3.979   6.141  11.713  0.0909  0.1490 -0.0408
 7233W        W25437   8.843  13.265   4.598  0.2392 -0.1145 -0.0143
 7234W        W25438  16.611   5.108  11.052 -0.0308 -0.0664 -0.2437
 7235W        W25439   6.085  13.484   0.044 -0.0966 -0.1436  0.1142
 7236W        W25440  14.642  12.249   3.443 -0.0064  0.0469 -0.1426
 7237W        W25441  10.309  16.523  11.437 -0.1706  0.1389 -0.0463
 7238W        W25442  10.538  15.923   2.687 -0.2121  0.0005 -0.0476
 7239W        W25443  17.078  16.793   4.510 -0.2813  0.0044  0.1226
 7240W        W25444  11.861  14.819  11.780 -0.1863 -0.0479 -0.1387
 7241W        W25445   2.786  16.738  14.728  0.0518 -0.1600  0.1518
 7242W        W25446   5.238  15.082  14.483 -0.0363 -0.1662  0.2346
 7243W        W25447   0.058   4.690   1.546  0.0657  0.1407 -0.0798
 7244W        W25448   1.322  18.341  13.040  0.1475  0.1673 -0.0726
 7245W        W25449  14.547  15.716   2.588  0.0898 -0.4508 -0.1021
 7246W        W25450   9.075   6.127  14.413  0.0623  0.2695  0.2165
 7247W        W25451   3.161   0.857   0.345 -0.0281 -0.0931 -0.0774
 7248W        W25452  10.628   9.916   1.540 -0.0236  0.0106 -0.0755
 7249W        W25453   2.776  14.810  14.848  0.2543  0.0320 -0.4319
 7250W        W25454   5.328  13.416   0.557  0.0667  0.0054 -0.1800
 7251W        W25455   2.323   7.058   4.036  0.1542 -0.0027 -0.1884
 7252W        W25456   5.333   4.764   3.027 -0.0955 -0.2020  0.0003
 7253W        W25457   7.855   5.388  12.595 -0.3626  0.0532 -0.0040
 7254W        W25458  16.352  17.833  15.372  0.1731  0.0307  0.1734
 7255W        W25459  11.787   3.672  14.462 -0.1000 -0.0292 -0.0040
 7256W        W25460  18.565   5.528   0.144 -0.1898  0.0870 -0.0316
 7257W        W25461   6.080  16.527  12.124 -0.2326  0.2425  0.1030
 7258W        W25462   4.825   8.042   1.159  0.0455 -0.2638 -0.0697
 7259W        W25463   5.693   7.374  12.236  0.2251 -0.0221 -0.0696
 7260W        W25464  13.682  13.885  14.616  0.2337  0.4223  0.2351
 7261W        W25465  13.742  12.941  11.808  0.0705  0.1999  0.2737
 7262W        W25466   8.744  16.715   3.420 -0.0626 -0.2328 -0.1000
 7263W        W25467  18.138  12.049   3.757 -0.2046 -0.2677 -0.1581
 7264W        W25468   7.469  10.594  15.064  0.2190 -0.0089  0.1891
 7265W        W25469   4.026  14.222   2.843  0.3009 -0.0091  0.2132
 7266W        W25470   2.585  18.402  13.877 -0.1473 -0.3480 -0.3322
 7267W        W25471  15.505  17.568  14.859  0.1902 -0.1798  0.1830
 7268W        W25472  12.280   8.220  13.311  0.3240 -0.4281  0.1486
 7269W        W25473  17.031  10.588   2.861  0.1350 -0.0390  0.1015
 7270W        W25474   7.553  11.961  10.231  0.2527 -0.0332 -0.0291
 7271W        W25475  14.804  18.484   4.429 -0.2292 -0.0347  0.1140
 7272W        W25476   3.038  17.564  14.220  0.1652 -0.0916  0.2376
 7273W        W25477   6.347  11.668  11.777 -0.0189 -0.1746 -0.2499
 7274W        W25478  14.999   1.669   0.267 -0.0220  0.0874  0.3035
 7275W        W25479   6.919   9.483   9.976 -0.0314  0.0211  0.2663
 7276W        W25480  18.463   3.943  12.543 -0.0842  0.4006  0.2139
 7277W        W25481  16.225  13.130  12.334  0.0818 -0.1510 -0.1572
 7278W        W25482  14.587   3.202  13.319 -0.0001 -0.1481 -0.0219
 7279W        W25483  17.147  15.256   5.837  0.2617 -0.2632 -0.0731
 7280W        W25484   2.616  13.819  12.003  0.2863  0.0743 -0.0037
 7281W        W25485   2.101  11.695  15.176 -0.4183  0.0186  0.4559
 7282W        W25486  16.174   7.708   1.564  0.0124 -0.5659 -0.2015
 7283W        W25487   6.551  10.873  13.454 -0.0569 -0.3677  0.0036
 7284W        W25488  12.067   8.732  10.784  0.3575  0.0305 -0.1459
 7285W        W25489  15.848   3.404  10.840  0.2393 -0.1901 -0.2602
 7286W        W25490  10.087   9.422   1.724 -0.0351  0.2256  0.0563
 7287W        W25491  10.795   7.717  10.441  0.1814 -0.1441  0.0884
 7288W        W25492  10.451   4.909   1.139  0.2038  0.0158  0.2653
 7289W        W25493  16.182  16.737   0.920  0.0578 -0.0293  0.0993
 7290W        W25494  16.548   7.988   1.830  0.0489 -0.1357  0.1736
 7291W        W25495  14.568   2.076   2.365 -0.1717 -0.0122  0.1629
 7292W        W25496   7.642  10.188   3.138 -0.0953 -0.0980  0.2358
 7293W        W25497  17.100   5.044  13.027  0.0472 -0.0243 -0.0358
 7294W        W25498  12.467   0.151   2.333  0.1512 -0.0169 -0.2674
 7295W        W25499  11.438  14.238   4.332 -0.1921  0.2194  0.1593
 7296W        W25500  16.394   6.694   0.327 -0.0114 -0.2533  0.1436
 7297W        W25501   0.673  14.191   1.526  0.3931  0.0608  0.0754
 7298W        W25502   2.801  16.200  13.935 -0.0651 -0.1616  0.3752
 7299W        W25503  17.926   0.423   0.176  0.1803 -0.0311 -0.0137
 7300W        W25504  11.562  10.434   0.548  0.0551 -0.3065  0.0276
 7301W        W25505  17.750  11.554  13.252  0.0898 -0.0913  0.0515
 7302W        W25506  13.928   8.325   1.139  0.2231  0.1609  0.1340
 7303W        W25507   7.200  17.421  11.552  0.2246 -0.0528  0.1444
 7304W        W25508   2.637   6.676  12.831 -0.4130 -0.1155  0.0764
 7305W        W25509   7.745  17.629  14.127  0.1136  0.0022 -0.0219
 7306W        W25510  16.630  16.585   0.831 -0.3279 -0.1919  0.0865
 7307W        W25511   0.207  11.824  15.446  0.1099 -0.1994  0.1165
 7308W        W25512  11.586   4.553  14.371 -0.0154 -0.0233  0.1290
 7309W        W25513   1.386  14.925   3.928 -0.3807  0.1420  0.0597
 7310W        W25514  16.065   0.786   2.723  0.2225  0.3614  0.0837
 7311W        W25515   2.246  15.499   4.220 -0.2109 -0.0229 -0.0643
 7312W        W25516   5.326   9.804  13.384  0.0269  0.2224 -0.0783
 7313W        W25517   9.601   2.904   2.850  0.1457  0.3199  0.4772
 7314W        W25518  18.277   2.031   3.159  0.3755  0.3832 -0.0372
 7315W        W25519  18.414   4.450  10.873 -0.0782  0.1123 -0.3241
 7316W        W25520   0.840  10.514   3.325  0.0753 -0.0326  0.1031
 7317W        W25521  15.473  11.555  13.669 -0.0223  0.1295 -0.1397
 7318W        W25522  15.523   6.901  12.002  0.1332 -0.1258  0.1052
 7319W        W25523   8.818   6.612  11.685 -0.0853 -0.0349 -0.1915
 7320W        W25524  17.531  17.933   2.169 -0.1312 -0.0281 -0.1709
 7321W        W25525   4.787  10.776  12.770  0.2527  0.1738  0.3155
 7322W        W25526   4.979   0.982  15.279 -0.3104 -0.3657  0.0722
 7323W        W25527   4.236  15.987   0.725  0.0529  0.1719  0.1738
 7324W        W25528  12.798  10.263  11.596 -0.3022  0.0987  0.0821
 7325W        W25529  14.767  10.465  12.421  0.1739 -0.0961 -0.1766
 7326W        W25530  17.533  17.080   0.982 -0.0031 -0.1768  0.2589
 7327W        W25531   0.526   0.178  14.452  0.3579  0.2117 -0.0125
 7328W        W25532   6.380  14.205  14.962 -0.0326  0.2693  0.0453
 7329W        W25533   4.851   5.859   0.596 -0.0509  0.0366 -0.1257
 7330W        W25534  13.093  16.249   3.232 -0.2374 -0.2068 -0.3198
 7331W        W25535  10.535  10.589  11.390 -0.2458  0.0723  0.0554
 7332W        W25536   6.540   1.465  11.207  0.1038  0.0093 -0.0247
 7333W        W25537   1.407  16.701   4.047  0.0412  0.1069 -0.0538
 7334W        W25538   6.737  18.379   2.568  0.2916  0.1596 -0.4849
 7335W        W25539  11.190   2.481   0.119 -0.1826 -0.1939  0.0565
 7336W        W25540   7.374  18.412  13.792 -0.3310 -0.2891 -0.0619
 7337W        W25541  18.431  10.545  11.101  0.1751  0.2860  0.2626
 7338W        W25542   3.813  11.089   5.172  0.1181  0.0848  0.0200
 7339W        W25543  13.939  16.676   1.753 -0.0041 -0.2312  0.1998
 7340W        W25544  16.435  13.493  11.384  0.1772  0.0152  0.0254
 7341W        W25545  11.271  12.117   3.999 -0.2563  0.0281 -0.1475
 7342W        W25546   1.830   3.177   5.232  0.2552 -0.0380  0.1915
 7343W        W25547  11.875   7.031   4.347 -0.0606 -0.1045  0.1584
 7344W        W25548  10.960   6.293  11.995 -0.2867  0.1714  0.2421
 7345W        W25549  11.876   4.995  12.993  0.1203  0.2046  0.0153
 7346W        W25550  11.720   2.967   3.111  0.0813 -0.0588 -0.1167
 7347W        W25551   0.443   7.536   3.163  0.1967 -0.0545 -0.0520
 7348W        W25552   7.555  15.821  12.774 -0.1271  0.2164  0.0203
 7349W        W25553   6.673  16.138  14.947  0.2863 -0.0865  0.0002
 7350W        W25554  12.533   1.399   0.306 -0.0199  0.0135 -0.3093
 7351W        W25555  10.297   7.704  11.965  0.1940 -0.2169  0.2208
 7352W        W25556   3.663  13.021   1.985 -0.4343 -0.2453  0.0566
 7353W        W25557   4.935   4.695   1.768  0.1288  0.2464  0.0251
 7354W        W25558   0.426  11.781  14.162  0.1227 -0.1175 -0.2304
 7355W        W25559  17.226   7.116  13.800  0.1610 -0.0816  0.0397
 7356W        W25560  12.045   1.755   4.702 -0.0916  0.0612 -0.1974
 7357W        W25561  16.929  16.616  14.607  0.0268  0.1087 -0.2077
 7358W        W25562  13.921  10.161  10.870  0.1385 -0.1210 -0.0952
 7359W        W25563   3.837   3.842  14.732 -0.2142 -0.0844 -0.0687
 7360W        W25564   6.970   5.529   3.569 -0.0471 -0.1610  0.1467
 7361W        W25565   7.149  13.822  12.713  0.0559 -0.1877  0.2395
 7362W        W25566   8.203   3.387  13.121 -0.0037  0.0121 -0.0350
 7363W        W25567  11.526   7.007  12.134  0.0236  0.0236  0.1106
 7364W        W25568   6.313  18.520  14.265  0.0118 -0.2594 -0.0785
 7365W        W25569  10.776  16.740  11.405  0.1170  0.2180  0.0295
 7366W        W25570   2.095  13.054  15.086  0.0321 -0.2390  0.2562
 7367W        W25571  18.391  11.492   0.182 -0.1563 -0.1792  0.2155
 7368W        W25572  17.123  16.488  15.253 -0.1788 -0.2893  0.0877
 7369W        W25573  13.311   3.915  14.505  0.4139 -0.3642  0.1972
 7370W        W25574   5.739   7.964  10.758  0.1483 -0.0362  0.2605
 7371W        W25575   7.061   7.524  12.952  0.3182 -0.3213 -0.1592
 7372W        W25576   6.566   3.956  12.035 -0.1107  0.1361 -0.0958
 7373W        W25577   2.868  17.371   1.746  0.0038 -0.2086  0.0600
 7374W        W25578   0.036  15.032  12.574 -0.0285 -0.0986  0.0118
 7375W        W25579   5.028   4.452   2.306 -0.0531  0.0484 -0.1727
 7376W        W25580   1.393  16.832  14.372  0.1406 -0.1311 -0.1578
 7377W        W25581  18.269  10.760   3.219  0.2479  0.3027  0.2246
 7378W        W25582   6.232   0.830  15.314 -0.1995 -0.0494  0.1500
 7379W        W25583  18.099  16.609  10.374 -0.1011  0.0527  0.0499
 7380W        W25584  15.015   4.068  13.491  0.0571 -0.0196  0.0360
 7381W        W25585  16.731   0.336   4.373  0.0019 -0.1091 -0.1366
 7382W        W25586  12.041  12.929  15.256  0.0378  0.0938  0.4144
 7383W        W25587   5.356   1.601   2.433  0.1535 -0.0607  0.1532
 7384W        W25588   4.476   4.193  14.041  0.0197 -0.0397 -0.0342
 7385W        W25589   0.503  11.928  10.188  0.0735  0.2522 -0.1473
 7386W        W25590  10.076   1.666  14.464  0.1187 -0.1476 -0.2334
 7387W        W25591  10.702   3.198  11.079  0.0294 -0.2979  0.0284
 7388W        W25592   9.297   8.743   2.094 -0.4038  0.2055 -0.1672
 7389W        W25593   6.636  15.617  14.895 -0.0075 -0.0245 -0.1717
 7390W        W25594   2.238  17.486  15.169 -0.1113  0.1866  0.1132
 7391W        W25595   7.135   2.433   4.808 -0.3766 -0.3818  0.1037
 7392W        W25596   1.093  12.684  13.741  0.0366  0.2927  0.1789
 7393W        W25597   0.741   3.734  10.919 -0.3346  0.2622  0.2179
 7394W        W25598   1.712   3.877   0.895  0.1978  0.1161  0.1385
 7395W        W25599  16.883  13.256   0.878  0.4062 -0.0333  0.1822
 7396W        W25600  17.836   0.850  14.476 -0.1133  0.1148  0.1098
 7397W        W25601  12.499  15.976  14.687 -0.0103 -0.0722  0.1567
 7398W        W25602  11.639  12.031  13.218 -0.5919  0.1758 -0.1312
 7399W        W25603   2.525   1.688   2.625 -0.0501 -0.2695 -0.0265
 7400W        W25604  17.020   9.222   4.734  0.0283 -0.3733  0.3636
 7401W        W25605   8.654  16.799  12.446 -0.1087 -0.0897  0.0117
 7402W        W25606   8.633   3.323   0.011  0.1312  0.0335 -0.0031
 7403W        W25607   8.222   7.675   0.457  0.1149 -0.1241 -0.0327
 7404W        W25608   2.496  12.407   4.515 -0.0072 -0.1784  0.2033
 7405W        W25609   1.526  10.499   3.381  0.2443  0.0772 -0.1131
 7406W        W25610   2.149   6.311  12.566 -0.0262  0.1395  0.1452
 7407W        W25611  14.930   1.731   4.237 -0.0655  0.1569  0.2128
 7408W        W25612   7.434  17.341  13.671  0.1803 -0.0571 -0.1534
 7409W        W25613   1.948   4.682   3.624 -0.1600 -0.0441  0.0257
 7410W        W25614   6.298   7.433   3.433 -0.2200 -0.2084 -0.0749
 7411W        W25615   4.239  10.358   4.824 -0.1670 -0.4154  0.0048
 7412W        W25616   0.626   7.184  12.317  0.1685  0.0222 -0.2475
 7413W        W25617   1.068   9.436  11.534  0.0843  0.0082  0.0927
 7414W        W25618   7.660  15.837   0.059  0.1987 -0.0846 -0.3661
 7415W        W25619  15.421   0.384  12.493  0.0012 -0.2744  0.2668
 7416W        W25620   2.602   7.909  12.644 -0.2699 -0.2691  0.2928
 7417W        W25621  10.718  12.196   5.214 -0.0956  0.3209  0.2553
 7418W        W25622  12.502   6.931  13.732 -0.1141  0.0937  0.3004
 7419W        W25623  15.047  13.110  11.694  0.0095 -0.1357  0.2467
 7420W        W25624   1.052   7.493  13.052 -0.0383 -0.0465 -0.1097
 7421W        W25625   3.306  11.817   3.752 -0.3371 -0.1438  0.1208
 7422W        W25626  15.254   6.096   0.932  0.1217  0.2632  0.3509
 7423W        W25627   7.322  11.886   3.594  0.0095 -0.2669  0.5721
 7424W        W25628   7.720   3.231  12.529  0.1814 -0.4244 -0.0968
 7425W        W25629   3.234  15.250  11.631  0.1969 -0.4113  0.2894
 7426W        W25630   0.597  11.838  10.690 -0.0982  0.0703 -0.0800
 7427W        W25631   0.730   7.899  11.639 -0.1787  0.0445  0.0757
 7428W        W25632  17.330   9.390   3.888  0.1388 -0.1605  0.0996
 7429W        W25633   8.121  13.707  12.124 -0.2611  0.2633  0.3017
 7430W        W25634  18.112  14.127   4.863 -0.1749  0.0084 -0.0774
 7431W        W25635  10.209  15.356   4.298  0.0888  0.3520 -0.0464
 7432W        W25636  18.558   2.288  11.723  0.1333  0.2208 -0.0249
 7433W        W25637  18.583  16.235  14.175 -0.1621 -0.0572  0.0129
 7434W        W25638   7.164  15.315  11.179  0.3900 -0.1322  0.1635
 7435W        W25639   3.755   0.936  12.167 -0.0374  0.2201  0.2186
 7436W        W25640   8.495  15.088   0.197  0.0339 -0.1667  0.0576
 7437W        W25641   3.616   1.202  14.173  0.1350 -0.0356  0.1458
 7438W        W25642   6.476   0.614  13.264 -0.1508 -0.2565 -0.0507
 7439W        W25643  16.330  14.169   4.359 -0.0414  0.0112 -0.0301
 7440W        W25644   6.073   1.435  11.913  0.1714  0.0972  0.1099
 7441W        W25645   7.655  18.545  14.267  0.1459  0.0563  0.0051
 7442W        W25646  17.597   8.303  11.883  0.0208  0.0784  0.3899
 7443W        W25647   7.996  17.443  11.089  0.1156 -0.3659  0.1765
 7444W        W25648   0.260  15.579   3.636 -0.0612  0.1686 -0.2870
 7445W        W25649   7.660  14.556  11.263 -0.1787 -0.1809 -0.3738
 7446W        W25650  10.797   7.329  14.998  0.0902 -0.0439  0.0585
 7447W        W25651  15.768  12.461  11.716 -0.2014 -0.2912  0.0674
 7448W        W25652  14.877  12.096  14.607  0.0207  0.2878  0.1111
 7449W        W25653  18.472  10.258   2.859  0.3181 -0.0615 -0.0953
 7450W        W25654  11.242   2.257   4.552 -0.1034 -0.1372  0.1233
 7451W        W25655   4.906   3.233  12.036 -0.3917  0.3302  0.1226
 7452W        W25656   8.895   5.629  13.584  0.3862  0.2909  0.1083
 7453W        W25657  18.312  10.956  11.357 -0.0962 -0.0887  0.0784
 7454W        W25658  13.334   9.008   3.164  0.2033  0.3861  0.3849
 7455W        W25659   1.908  16.443  13.554 -0.0011 -0.0389 -0.3103
 7456W        W25660   4.115  11.061   4.089 -0.0641 -0.1319 -0.0230
 7457W        W25661  10.150   6.762   2.854 -0.0891 -0.1121 -0.0522
 7458W        W25662   7.134   8.004   0.981  0.3805  0.1537  0.1802
 7459W        W25663   1.840  13.846   4.655 -0.3161  0.0969 -0.0592
 7460W        W25664  10.956  10.611  14.422 -0.1803  0.0109 -0.0283
 7461W        W25665   8.144   8.050  10.692 -0.3164  0.1529  0.0564
 7462W        W25666  15.196   1.556   2.797 -0.0135  0.0231 -0.1122
 7463W        W25667   4.641  17.888   1.934 -0.0087  0.3389  0.1220
 7464W        W25668  16.481   8.294  11.010 -0.0474  0.1671  0.2153
 7465W        W25669  15.422   3.384   2.659 -0.2670 -0.2357  0.1324
 7466W        W25670   5.603   8.880  10.959  0.0259  0.2759 -0.1242
 7467W        W25671  12.149  16.356  14.428 -0.0792 -0.5169  0.1922
 7468W        W25672   4.097  16.534  11.886 -0.0577 -0.0228 -0.3022
 7469W        W25673  14.387   8.525   2.022 -0.1480 -0.1027 -0.1631
 7470W        W25674  10.555  18.530   5.713 -0.0904  0.0548 -0.1596
 7471W        W25675   3.463   2.282  11.776 -0.0775  0.2117 -0.0114
 7472W        W25676  12.909  15.777  14.981 -0.3048 -0.0245  0.1680
 7473W        W25677  13.268  13.022   3.348 -0.0886 -0.0988 -0.3654
 7474W        W25678  13.802  16.258  13.774 -0.1928 -0.3807 -0.0743
 7475W        W25679  15.905   4.240  12.627  0.1787  0.1812 -0.0939
 7476W        W25680  15.615  13.817   5.698  0.2527  0.1341 -0.0815
 7477W        W25681   8.868   8.716  12.682  0.2555  0.0628 -0.0714
 7478W        W25682  11.667  10.582   3.775 -0.1567 -0.1796 -0.0673
 7479W        W25683  11.641   1.857  10.545 -0.0633  0.0838 -0.0226
 7480W        W25684   6.821  14.671  12.849 -0.2233  0.3979 -0.1291
 7481W        W25685  10.368  14.050   3.342  0.4642 -0.3674  0.4362
 7482W        W25686   4.766   3.036   2.830 -0.1194 -0.1028 -0.3207
 7483W        W25687   6.961   0.167  14.413  0.0452  0.0482 -0.0025
 7484W        W25688  11.421   1.632   3.719  0.0152  0.1252  0.1480
 7485W        W25689  17.548   3.247   1.456  0.2806 -0.2030  0.0847
 7486W        W25690   7.426  16.224   4.324  0.0620  0.2580  0.0606
 7487W        W25691   6.797  12.874   3.815 -0.0328  0.3463  0.1519
 7488W        W25692   9.575  15.116  11.451  0.1024 -0.0070  0.0368
 7489W        W25693   4.678  10.301   4.593 -0.0245 -0.0053  0.1535
 7490W        W25694  14.151   9.804  14.713 -0.0142  0.0906  0.0794
 7491W        W25695   3.905   6.120  12.788 -0.3112  0.1657 -0.0669
 7492W        W25696  11.726   1.419  13.608 -0.1060 -0.2838  0.1384
 7493W        W25697   8.785   3.637   2.894 -0.0175  0.0871  0.1855
 7494W        W25698  11.649  11.525  12.030 -0.1510  0.1118 -0.2638
 7495W        W25699  11.837  16.724  12.390 -0.1521 -0.0449  0.0363
 7496W        W25700  11.602   4.013   0.884  0.2775 -0.0889  0.0198
 7497W        W25701  13.587  14.597   4.024 -0.3612 -0.1402 -0.0641
 7498W        W25702  10.157  15.575  11.740  0.2006  0.3375 -0.0369
 7499W        W25703   3.040  11.410  15.211  0.5535  0.0992  0.0450
 7500W        W25704  12.339   2.511   3.267  0.0941  0.2740 -0.0254
 7501W        W25705  17.962  16.586   1.040 -0.1573 -0.0705 -0.0280
 7502W        W25706   6.102  12.609  12.118  0.1775 -0.3377 -0.0023
 7503W        W25707   7.355   7.482   1.010 -0.1464 -0.2206  0.1420
 7504W        W25708   8.028  11.855   3.343 -0.1172  0.0113  0.2274
 7505W        W25709   0.878   5.759   3.529 -0.0237  0.1180 -0.0514
 7506W        W25710   3.134  16.249  12.247 -0.1863 -0.1781  0.1836
 7507W        W25711  15.766  13.850   0.648  0.0718  0.3250 -0.1466
 7508W        W25712   2.896  10.188  15.381  0.1794 -0.3733 -0.1473
 7509W        W25713   6.790   4.914  14.204  0.0042 -0.2063  0.0698
 7510W        W25714   4.924   9.764   0.437  0.0882 -0.0916 -0.0640
 7511W        W25715   9.677  11.826   1.760 -0.4728 -0.0529  0.1361
 7512W        W25716  14.049   9.674   3.228 -0.1105  0.0456  0.1936
 7513W        W25717   3.100  13.517   3.375 -0.0271 -0.1404 -0.0379
 7514W        W25718   6.458  11.031   1.411  0.2342  0.1338 -0.3821
 7515W        W25719  17.907   0.747  11.833 -0.3346  0.0206 -0.0289
 7516W        W25720   9.085   0.361  15.356 -0.0047 -0.3012  0.0350
 7517W        W25721  16.003   3.997  14.081  0.2246  0.0277 -0.1299
 7518W        W25722   7.318  17.733  14.432  0.0879 -0.2002 -0.1492
 7519W        W25723  16.490  12.156  12.841  0.0445  0.0771  0.0503
 7520W        W25724  10.372   2.428  11.475  0.0817  0.1310  0.1932
 7521W        W25725  17.052  14.239  14.017  0.0354 -0.1346  0.1735
 7522W        W25726  15.844   3.562   1.067 -0.3105  0.0641  0.0524
 7523W        W25727   8.292   7.219   0.486  0.0282 -0.0938  0.1297
 7524W        W25728  15.497  12.064  11.485 -0.0304 -0.2801  0.0434
 7525W        W25729  10.380  16.309   5.135  0.0105 -0.1156  0.1299
 7526W        W25730   9.726  11.810   5.478  0.2879  0.0950 -0.1584
 7527W        W25731  14.840   5.708   3.994 -0.1469 -0.1689  0.0864
 7528W        W25732  10.474  11.646  11.339  0.2052 -0.3436  0.1689
 7529W        W25733   4.509   0.189   4.455  0.1279  0.4865  0.3612
 7530W        W25734  14.693  12.413   1.226 -0.2314 -0.1643  0.1077
 7531W        W25735   3.586  17.189   3.498  0.0351 -0.0695  0.1756
 7532W        W25736   2.551  14.918  13.782  0.0758 -0.2135  0.0317
 7533W        W25737  15.759  17.069  12.358 -0.3565  0.1852 -0.1266
 7534W        W25738   4.727   5.520   4.138 -0.0072 -0.1772  0.1879
 7535W        W25739  17.291   6.988   2.780  0.4269  0.1518  0.0315
 7536W        W25740   2.657   7.793   3.757 -0.0361 -0.3268  0.1465
 7537W        W25741  12.266  14.845  12.565 -0.0983 -0.1168  0.2729
 7538W        W25742   4.700  14.848   0.197  0.0620  0.0463 -0.2292
 7539W        W25743  18.068   2.483  14.000  0.2098  0.0788  0.1281
 7540W        W25744   3.320   7.438  13.149 -0.0165  0.1680 -0.0473
 7541W        W25745  15.369   7.137   4.852  0.2908  0.0870 -0.3128
 7542W        W25746  11.401  16.519  10.782  0.0321 -0.2543 -0.0645
 7543W        W25747   2.098  15.165  13.820  0.2085  0.0066 -0.0018
 7544W        W25748   6.004   0.299  12.188  0.2730 -0.4073  0.0983
 7545W        W25749  14.284  13.139  12.870 -0.0157  0.0289  0.2648
 7546W        W25750   1.010   7.582   0.530  0.4773 -0.2345  0.3584
 7547W        W25751   5.000  16.813   2.589 -0.0794 -0.1334  0.0215
 7548W        W25752   4.512   1.962   1.432 -0.2930 -0.1425 -0.3262
 7549W        W25753   6.411  17.182  11.862 -0.1566 -0.3276  0.0209
 7550W        W25754  12.534   2.269  14.672 -0.1776 -0.1768  0.2468
 7551W        W25755   4.373  10.589  12.980  0.2718  0.0542  0.2124
 7552W        W25756   8.996   1.987   0.279  0.1799  0.2598 -0.3657
 7553W        W25757   1.572  10.466  14.092  0.0340 -0.0420  0.2244
 7554W        W25758  13.764   9.484  12.712 -0.1733 -0.3868  0.1819
 7555W        W25759  17.617   5.522   1.312  0.4236  0.0766  0.1398
 7556W        W25760   4.316  16.517  14.337 -0.1449 -0.0256 -0.1961
 7557W        W25761  11.301   5.087   4.548 -0.2700 -0.0823  0.1505
 7558W        W25762  13.557   3.924   1.445  0.0157  0.0539  0.1668
 7559W        W25763  16.314   7.404   4.377  0.0239  0.0883 -0.3144
 7560W        W25764  16.187   3.985   0.342 -0.0688  0.0069 -0.0901
 7561W        W25765  13.580   9.889  13.006  0.0153 -0.0867 -0.2635
 7562W        W25766  11.125   7.601  13.733 -0.4134  0.0603 -0.1617
 7563W        W25767  15.900  14.317   1.837  0.3367 -0.1859  0.1770
 7564W        W25768  10.218   8.243   2.435  0.1831  0.0417  0.0433
 7565W        W25769  14.195   0.353  12.774  0.0758  0.0994  0.0526
 7566W        W25770   7.545   6.690  14.430  0.0456  0.1510 -0.0066
 7567W        W25771   5.238  12.983   4.900 -0.0272  0.1764  0.0279
 7568W        W25772   3.521   7.432  12.673  0.3347 -0.0925 -0.0887
 7569W        W25773   8.593   8.629   4.265  0.0919  0.2533  0.1428
 7570W        W25774   2.240  10.071   0.613  0.1038  0.1047 -0.1691
 7571W        W25775  18.419   6.488   0.096 -0.1027 -0.1184 -0.2683
 7572W        W25776  18.320  15.123   3.688  0.2362  0.0273  0.1698
 7573W        W25777   5.463  13.934   2.378 -0.0886  0.0257  0.2961
 7574W        W25778   7.314   3.173  13.288 -0.0034  0.0595  0.1821
 7575W        W25779  16.102   3.747  12.656  0.0436  0.0748 -0.1688
 7576W        W25780   9.489   8.531  12.608 -0.0946 -0.1618  0.3072
 7577W        W25781   9.480  13.242  11.074 -0.0510  0.3201 -0.0766
 7578W        W25782   5.927  18.385  13.078  0.0836 -0.0536 -0.3594
 7579W        W25783  12.798   5.690   4.444  0.2275 -0.0331  0.0168
 7580W        W25784   3.997   7.796  13.685 -0.0354  0.1878 -0.0541
 7581W        W25785   8.511   2.481   4.096 -0.0428 -0.2405  0.0034
 7582W        W25786   8.793   9.103  13.010 -0.0940  0.0313  0.2612
 7583W        W25787   7.651  13.141   5.679  0.2273 -0.1428 -0.0886
 7584W        W25788   8.323  13.037  12.421 -0.3552 -0.2709 -0.0726
 7585W        W25789  13.155  12.324  10.933  0.0201  0.1493 -0.0065
 7586W        W25790   0.886   7.283   1.534 -0.1620 -0.1668  0.0161
 7587W        W25791   0.611   1.790  11.944 -0.1383  0.2075 -0.0819
 7588W        W25792  14.536   5.857   2.950  0.0692 -0.1120  0.1052
 7589W        W25793  16.610  15.720  11.393  0.1535 -0.0011  0.0134
 7590W        W25794   0.979  14.228   2.751 -0.1075  0.0050  0.1724
 7591W        W25795  13.298  12.138  12.155 -0.0528  0.2475 -0.1653
 7592W        W25796   3.652  11.332  11.825 -0.3380 -0.0382 -0.0681
 7593W        W25797   3.365   5.432   4.096 -0.2397 -0.0601  0.1436
 7594W        W25798  14.053  15.025  11.398  0.0858 -0.3707  0.2211
 7595W        W25799   9.788  14.783   0.831  0.0741 -0.6100  0.0599
 7596W        W25800  14.743  12.642   1.763 -0.0342  0.1369 -0.1609
 7597W        W25801  11.296  11.354   0.872  0.1705 -0.0102 -0.0397
 7598W        W25802   2.809   0.138   1.322 -0.0775 -0.1033  0.2515
 7599W        W25803   9.264   4.692  14.329  0.3608  0.2363  0.0997
 7600W        W25804   2.978   2.111  12.703  0.3683 -0.0174  0.0207
 7601W        W25805   0.400   9.005  13.474  0.0334 -0.1063 -0.0211
 7602W        W25806   6.082   2.093  11.370 -0.2789 -0.1861 -0.0255
 7603W        W25807   9.486   7.242   2.054 -0.0576  0.4898 -0.0901
 7604W        W25808   8.706   9.118   4.408 -0.0519  0.1587  0.1556
 7605W        W25809  12.081  16.750   1.537  0.0127 -0.0158 -0.1801
 7606W        W25810   9.830   4.112  13.873  0.0800 -0.2618  0.1163
 7607W        W25811  11.124   7.792   3.850  0.1040 -0.1159 -0.2297
 7608W        W25812  14.211   1.345  12.202 -0.1663 -0.1708  0.2203
 7609W        W25813   5.185   4.221   1.749 -0.0140 -0.4368  0.0895
 7610W        W25814  10.010   3.635   2.927  0.0410  0.1561  0.3498
 7611W        W25815  13.421   1.592  12.693  0.1669  0.2522  0.0024
 7612W        W25816  14.596   9.355  11.082  0.2663 -0.1328 -0.0211
 7613W        W25817   0.659  16.264  10.899 -0.1125  0.0435 -0.3723
 7614W        W25818   4.463  12.478  14.293  0.1610  0.0040  0.4684
 7615W        W25819   1.309   4.147   0.990 -0.2586  0.0748 -0.0026
 7616W        W25820  10.690   9.967   3.497 -0.3944 -0.1911 -0.1293
 7617W        W25821  14.587  13.062   2.680 -0.0830  0.3732  0.2626
 7618W        W25822  17.204  16.265  11.145  0.0875  0.0954  0.3355
 7619W        W25823  15.363  10.656   4.614 -0.3789  0.0261 -0.0792
 7620W        W25824   6.930   2.070   4.147  0.1816  0.0605  0.1610
 7621W        W25825   6.360   7.506  14.861  0.2116  0.0082 -0.0034
 7622W        W25826   3.203   7.182  14.299 -0.2090  0.1616 -0.2961
 7623W        W25827   9.523  18.326  12.798 -0.0807 -0.1168 -0.1534
 7624W        W25828   7.163   2.420   1.494  0.0563 -0.2054 -0.1786
 7625W        W25829   5.834  10.558   4.486  0.2016 -0.0875 -0.2379
 7626W        W25830   4.959  13.171   3.344 -0.1229  0.1623  0.2483
 7627W        W25831   0.734  14.978  15.304 -0.0924 -0.1059  0.1159
 7628W        W25832   0.445   0.566  11.566 -0.0488 -0.2840  0.0147
 7629W        W25833  16.204  13.683   4.288  0.4012  0.0310  0.0604
 7630W        W25834  12.033  10.900   3.129 -0.1833 -0.0833 -0.2080
 7631W        W25835   4.398  10.975   3.101  0.1597  0.1361 -0.0286
 7632W        W25836   9.315  14.216  13.785 -0.0293  0.1073 -0.0376
 7633W        W25837  12.574  12.304   0.860  0.0949  0.2321  0.2445
 7634W        W25838  12.766   2.734   1.058 -0.1015 -0.1568  0.1354
 7635W        W25839  16.754  14.669   1.847 -0.0275  0.0838  0.0734
 7636W        W25840   3.067  11.116   2.167 -0.0712  0.0833  0.3310
 7637W        W25841  13.169   0.950  12.129 -0.0647 -0.2456  0.1974
 7638W        W25842   6.887   2.820  13.107  0.1728  0.3575  0.4269
 7639W        W25843  15.915   0.010   0.152  0.0118  0.3303  0.0614
 7640W        W25844   1.502  11.905  11.683 -0.0304  0.1592 -0.0605
 7641W        W25845  13.176   7.603  11.891  0.0723 -0.2104  0.0975
 7642W        W25846   5.534   1.503  13.648  0.1670 -0.1800 -0.1504
 7643W        W25847  11.039  13.259  13.195  0.0649  0.0297  0.1749
 7644W        W25848  15.739   4.033   0.631 -0.4048 -0.0237  0.3661
 7645W        W25849  14.675   9.195   0.402  0.1032 -0.1249  0.2786
 7646W        W25850   8.763  16.337   3.878 -0.0091 -0.1212 -0.0794
 7647W        W25851  16.118   1.146   4.326  0.0991  0.3980  0.0512
 7648W        W25852   6.521   5.746   1.387  0.0072 -0.1538  0.1981
 7649W        W25853  10.303  12.337   1.437 -0.0250 -0.0629  0.1213
 7650W        W25854   3.747  13.110   4.085 -0.0424  0.1995  0.1820
 7651W        W25855   6.604  11.881  13.596 -0.3369  0.0199 -0.4332
 7652W        W25856  17.852  16.108   2.432 -0.2162 -0.0907  0.2658
 7653W        W25857  11.855  16.510  15.195 -0.0633  0.0157 -0.1927
 7654W        W25858  14.043   4.105  15.378  0.2307  0.1361 -0.0989
 7655W        W25859   0.327   8.884   4.461 -0.0165 -0.0397 -0.1320
 7656W        W25860  11.533   0.727   3.498 -0.0775  0.2468 -0.0487
 7657W        W25861   9.946   6.560   2.482  0.0279 -0.0839  0.2647
 7658W        W25862  14.561  14.765   3.281 -0.1185 -0.0442  0.1155
 7659W        W25863  17.023   1.914  10.990 -0.3306 -0.4113  0.1434
 7660W        W25864   0.039   0.677   1.606 -0.2945 -0.0865 -0.1537
 7661W        W25865   5.660  17.868  12.896  0.1610 -0.2889  0.1908
 7662W        W25866   8.273  10.599   4.245  0.0310 -0.2176  0.4330
 7663W        W25867   9.197   2.757  11.840  0.2026 -0.0199  0.1342
 7664W        W25868   3.016   4.905  12.286 -0.1261 -0.1777 -0.1218
 7665W        W25869   8.776  13.558  13.990  0.0551 -0.1240 -0.1492
 7666W        W25870   6.213  15.332  11.540  0.2355  0.2225 -0.1871
 7667W        W25871  16.986  12.999   1.318 -0.1031 -0.2212 -0.0150
 7668W        W25872  14.862  17.057   3.687  0.2912  0.5440 -0.1077
 7669W        W25873  15.860  12.510   2.029  0.1601 -0.0551  0.2578
 7670W        W25874   9.108  18.618   2.342 -0.3432 -0.0556  0.0690
 7671W        W25875  17.613   3.138  14.193  0.0271  0.0061 -0.0752
 7672W        W25876   6.467   7.061   2.026  0.1365 -0.1217  0.1230
 7673W        W25877  13.908   7.884  14.110 -0.0368 -0.0607  0.2752
 7674W        W25878   5.528  11.920  10.083  0.2525 -0.1120  0.1434
 7675W        W25879  13.567  16.410  12.750 -0.1572 -0.1020 -0.0362
 7676W        W25880  11.780  11.206  12.358 -0.0513 -0.0762 -0.0646
 7677W        W25881   2.055  18.568  11.413 -0.0388  0.0809  0.0118
 7678W        W25882  17.938  13.434  12.536  0.0252  0.0014 -0.0858
 7679W        W25883  15.320  18.270  11.957  0.0971 -0.3250 -0.2004
 7680W        W25884  16.353   7.842   4.552  0.0158 -0.1711 -0.3541
 7681W        W25885   0.972   4.234  10.007  0.2695 -0.4342  0.0827
 7682W        W25886  12.251   3.255   1.608 -0.1648  0.0405  0.2366
 7683W        W25887   3.360   1.398   3.538 -0.0022 -0.1744 -0.2274
 7684W        W25888  16.942   1.450  12.382 -0.1661  0.3716 -0.0049
 7685W        W25889   7.706  17.246   1.464 -0.3060 -0.0831  0.1050
 7686W        W25890   1.670  17.518   5.398 -0.0307 -0.1582 -0.2452
 7687W        W25891   0.417   3.790   2.983  0.0206 -0.1519  0.1400
 7688W        W25892   4.351  16.518   6.205  0.0768 -0.2533 -0.1354
 7689W        W25893   6.816   1.998   2.346  0.1043  0.2496 -0.0600
 7690W        W25894  17.740   1.064   3.988  0.2802 -0.0153  0.1804
 7691W        W25895  11.417  10.390  13.746  0.0550  0.2684 -0.2230
 7692W        W25896   6.303  13.092   1.720 -0.0904  0.0068 -0.1657
 7693W        W25897  17.710  11.961   4.587 -0.0394 -0.0999  0.0019
 7694W        W25898   8.081   0.443   3.483 -0.3957  0.0667  0.1140
 7695W        W25899  14.916   8.494   4.566  0.0743 -0.0961  0.1420
 7696W        W25900  17.050  17.104   1.161 -0.1147 -0.3126  0.1316
 7697W        W25901  14.139   3.814  14.227 -0.1159  0.0737 -0.0721
 7698W        W25902  12.518   4.735   0.458  0.0966  0.0678 -0.0389
 7699W        W25903   9.339   3.901   2.838  0.5585  0.1655 -0.0420
 7700W        W25904   1.457   9.338   1.562  0.1229  0.2151  0.3408
 7701W        W25905   0.268   4.193   2.757  0.0417 -0.2490 -0.0829
 7702W        W25906  16.014  12.831  11.093  0.1857 -0.2147 -0.2458
 7703W        W25907  13.524   1.391  13.280  0.1239  0.0190 -0.1448
 7704W        W25908   8.158  16.140  14.967  0.0643 -0.4093 -0.0194
 7705W        W25909   1.597  13.575   3.789 -0.0352  0.3329 -0.0205
 7706W        W25910  17.887   7.448  13.292  0.2663 -0.3422 -0.3102
 7707W        W25911   0.926  10.972  12.829 -0.0155 -0.1735  0.0323
 7708W        W25912   4.764  16.705   0.794 -0.0226 -0.0234 -0.2437
 7709W        W25913  15.611   1.218   2.516 -0.0556 -0.3364  0.0253
 7710W        W25914   9.258   9.100   4.654  0.1813  0.2166  0.1440
 7711W        W25915  14.696   8.565  14.762 -0.1669  0.1520  0.4593
 7712W        W25916   3.188  14.921   4.146  0.1235 -0.0715  0.1561
 7713W        W25917   5.866  16.133  12.487 -0.1480 -0.1667  0.0134
 7714W        W25918  18.161   9.605  12.162  0.2301 -0.0498  0.0070
 7715W        W25919   0.862  13.509  13.356  0.3089 -0.0709  0.3792
 7716W        W25920  10.558  14.431  12.188 -0.6619  0.0606  0.1773
 7717W        W25921   1.262  11.647   2.719  0.1130 -0.0313 -0.1927
 7718W        W25922  10.867   2.558  15.242  0.2165 -0.0056  0.1225
 7719W        W25923  13.481  16.630  13.742  0.0501  0.1995 -0.2155
 7720W        W25924   1.400   9.580  12.763  0.0180  0.3051  0.2292
 7721W        W25925  14.086   8.971   4.441 -0.1558 -0.3852 -0.2522
 7722W        W25926   4.748  16.499   4.094 -0.3667 -0.0021 -0.0494
 7723W        W25927   4.549   6.798   3.759  0.4884 -0.1892  0.0611
 7724W        W25928  14.546   5.891   2.395  0.0099  0.1022  0.0713
 7725W        W25929   8.350   2.201  11.419 -0.0346 -0.0503  0.3950
 7726W        W25930  11.076   6.774  10.978 -0.1742 -0.2519  0.1906
 7727W        W25931   8.350  12.595  12.145  0.2734 -0.2158  0.1534
 7728W        W25932  16.373  12.358  11.130 -0.1233  0.1112  0.1645
 7729W        W25933  15.850   7.138   4.868  0.2860  0.2171  0.3691
 7730W        W25934  14.399   2.047  14.052  0.1971  0.0699  0.1549
 7731W        W25935  10.276   1.619   0.954  0.1868  0.0649  0.3063
 7732W        W25936  14.333   5.951   4.361  0.0702 -0.1442  0.0322
 7733W        W25937  14.543  10.956   0.962 -0.1736 -0.2601  0.0344
 7734W        W25938  11.742  14.242   5.463  0.1367  0.1816  0.0474
 7735W        W25939  16.662  14.580  15.248  0.0256  0.1682 -0.0086
 7736W        W25940  16.099   8.697  12.614 -0.0973 -0.0986 -0.1033
 7737W        W25941  11.899   8.591  15.328 -0.0091  0.1923 -0.0362
 7738W        W25942   4.183  15.026  15.292  0.3707  0.0601 -0.1618
 7739W        W25943  10.909   9.954   3.961  0.5140 -0.0864 -0.0712
 7740W        W25944  18.309   0.056   3.795  0.0699  0.4119  0.2198
 7741W        W25945  11.367  10.562   2.446 -0.1933  0.1013 -0.2494
 7742W        W25946   3.024  18.548   4.324  0.1486 -0.2374  0.1222
 7743W        W25947  14.613  16.166   4.054  0.0655  0.0436  0.2880
 7744W        W25948   0.943   5.864   1.474  0.0761 -0.2767 -0.3022
 7745W        W25949  12.774  13.899  13.797 -0.2640 -0.0300 -0.0332
 7746W        W25950   7.668   1.635   2.503 -0.0918 -0.0533 -0.0051
 7747W        W25951   3.309  14.309   0.565 -0.2326  0.1735  0.1654
 7748W        W25952  12.765   5.999   1.924  0.3444  0.0447  0.0424
 7749W        W25953   2.167  16.017  14.806 -0.2124 -0.2131  0.2717
 7750W        W25954   1.915  16.902  11.452 -0.2940  0.0535  0.0061
 7751W        W25955   9.396   3.628  13.502 -0.1469 -0.0194 -0.2487
 7752W        W25956   5.765   8.385   3.519 -0.1686 -0.0423 -0.1946
 7753W        W25957   7.205  13.394  12.404 -0.1645 -0.2969 -0.0877
 7754W        W25958  16.245  14.758   2.636  0.1621 -0.2738  0.0264
 7755W        W25959   5.490   7.377   1.610 -0.0876  0.0102 -0.0019
 7756W        W25960  15.462  17.395  14.385  0.3013  0.1549 -0.3008
 7757W        W25961  15.600  18.564  12.339  0.0111  0.1844  0.0134
 7758W        W25962   3.635   2.136  11.292  0.1434 -0.1324  0.0014
 7759W        W25963   1.381  12.262  10.727 -0.0022 -0.2495  0.0732
 7760W        W25964   4.172   3.965  15.155  0.3299 -0.0381  0.1872
 7761W        W25965   2.606   3.688   0.205 -0.4077 -0.1523 -0.0714
 7762W        W25966   0.845  14.311   5.065 -0.0473 -0.1364  0.0684
 7763W        W25967  17.266   2.293  11.299 -0.1076 -0.0785 -0.0731
 7764W        W25968  15.510   6.033   0.478  0.0752 -0.3016 -0.0916
 7765W        W25969  10.828  13.013  12.142 -0.0001 -0.3617 -0.5080
 7766W        W25970   1.182  18.221  11.215 -0.2795  0.2625 -0.0551
 7767W        W25971   3.636  11.483  13.093 -0.0198  0.1557  0.1016
 7768W        W25972  14.530  15.365  12.184  0.1383  0.1536  0.2766
 7769W        W25973  16.373   5.640  12.908  0.0379  0.2330  0.3963
 7770W        W25974  11.469  17.145   4.017 -0.2057 -0.0463  0.1125
 7771W        W25975  10.766  14.604  11.140  0.2127  0.0890  0.3339
 7772W        W25976  17.691   4.999   1.393  0.0630 -0.1949 -0.4987
 7773W        W25977   4.743  17.903  13.962 -0.1601  0.2181 -0.2840
 7774W        W25978  16.234  11.716  14.694  0.2608  0.1946  0.2219
 7775W        W25979   0.640   1.963   2.544 -0.0638  0.1446  0.0144
 7776W        W25980  11.443  14.448  12.139 -0.1807  0.3756 -0.2040
 7777W        W25981   6.717   9.957  13.396 -0.0688  0.0410  0.3764
 7778W        W25982   4.204   1.563   3.794 -0.2113 -0.1291 -0.1247
 7779W        W25983  16.557   4.768   4.839  0.1675  0.1800 -0.0945
 7780W        W25984   6.290   5.041   3.156  0.0799 -0.0229  0.4750
 7781W        W25985  12.945   7.729  12.731 -0.0650  0.2837  0.1833
 7782W        W25986   3.287   0.941  12.405 -0.1901 -0.1004  0.1060
 7783W        W25987  16.613   2.216  15.112  0.0534 -0.1497 -0.0801
 7784W        W25988  18.472   7.322   2.605 -0.1191 -0.3285 -0.2458
 7785W        W25989  15.606   6.031  11.485 -0.1049 -0.0823  0.5659
 7786W        W25990   3.268   8.423  15.206 -0.0174 -0.2214  0.2980
 7787W        W25991   3.369  10.471  15.432  0.0665  0.1661  0.0264
 7788W        W25992  15.129  12.995  13.263 -0.1348 -0.4419  0.0917
 7789W        W25993  10.320  12.806   3.002 -0.0331 -0.0346  0.4871
 7790W        W25994   8.118   4.676   0.122  0.0824 -0.4894 -0.0072
 7791W        W25995  14.853  10.754   3.918  0.0675 -0.1885 -0.1846
 7792W        W25996   2.226   0.133   3.942 -0.0377 -0.0376 -0.1943
 7793W        W25997  16.719   4.162  12.028  0.0374  0.2929  0.0329
 7794W        W25998   8.977  15.225   3.246 -0.1273  0.1330  0.1121
 7795W        W25999  11.432   6.427   2.970 -0.2875 -0.0909  0.0215
 7796W        W26000   3.758   0.303  13.148 -0.0469 -0.0879  0.1552
 7797W        W26001   6.252  13.414   2.225  0.1355  0.0591 -0.2719
 7798W        W26002   8.860  13.138   2.973 -0.2500  0.1454  0.2062
 7799W        W26003   5.569  17.539  15.155  0.0821 -0.0412 -0.0672
 7800W        W26004  18.543   7.824  15.053 -0.0908  0.1200  0.2081
 7801W        W26005  14.886   5.458  11.959  0.0097 -0.3517 -0.3699
 7802W        W26006   2.128   3.657   0.170  0.0515 -0.1035 -0.2319
 7803W        W26007   6.796   1.070   1.047  0.0445  0.0798 -0.0460
 7804W        W26008  11.820  15.941   5.793  0.1205  0.1898  0.2003
 7805W        W26009   0.329   1.193  15.097  0.3739 -0.1961  0.1614
 7806W        W26010  11.646   1.017   3.159  0.1697 -0.2143 -0.0097
 7807W        W26011   9.859   4.379  14.334  0.3881 -0.4378 -0.1943
 7808W        W26012   2.030  17.922   1.628  0.1052 -0.1070  0.0896
 7809W        W26013   2.818  10.057   3.658 -0.0926 -0.2074 -0.4103
 7810W        W26014   3.296   1.218  14.599 -0.3807 -0.2209 -0.0388
 7811W        W26015   4.677  11.908  14.061 -0.0264  0.2574  0.1209
 7812W        W26016   9.741  16.082   4.675 -0.0282  0.3117 -0.1049
 7813W        W26017   1.420   8.085  15.227  0.0109 -0.2576  0.0326
 7814W        W26018   2.046   1.851   1.931 -0.1806  0.2344  0.1842
 7815W        W26019  11.623  18.348   1.567  0.1816 -0.0536 -0.2142
 7816W        W26020  17.754  16.052   0.816  0.1258  0.1756  0.0677
 7817W        W26021  10.357   5.112   2.047 -0.3391 -0.5168  0.0559
 7818W        W26022  15.079  16.264  15.026  0.1089 -0.1170  0.0952
 7819W        W26023   7.961  14.882   0.188 -0.2167  0.3212 -0.0748
 7820W        W26024  18.557  11.796   3.653 -0.1954 -0.0434  0.1092
 7821W        W26025   8.142   3.378  14.076 -0.2039 -0.2011  0.0126
 7822W        W26026   0.267  12.613   5.535  0.1581 -0.0613 -0.0274
 7823W        W26027  12.911  18.470   1.882  0.0163 -0.2224  0.1830
 7824W        W26028  17.746  12.454   1.793  0.0910 -0.0121 -0.2195
 7825W        W26029   5.268  16.371  12.049 -0.0362  0.0742 -0.1562
 7826W        W26030  13.799   3.703  15.126 -0.0185  0.1498  0.1440
 7827W        W26031   0.827  17.717  15.348  0.1523 -0.1366 -0.2316
 7828W        W26032   0.051  10.465  14.998 -0.2433  0.1764  0.0716
 7829W        W26033   5.740  18.239  14.808 -0.0519  0.4296  0.2713
 7830W        W26034  15.434   2.171   3.840 -0.1751  0.0217 -0.1320
 7831W        W26035   2.750  14.553   1.674  0.0254  0.0283  0.2247
 7832W        W26036   9.517  10.818  13.065 -0.2723  0.0591 -0.0540
 7833W        W26037   9.005  17.180  12.742 -0.0310 -0.1298 -0.0664
 7834W        W26038   8.516   4.795   3.070  0.0043  0.1049 -0.0775
 7835W        W26039   8.789  18.538   3.577  0.3091  0.0969  0.0306
 7836W        W26040   2.445   4.125  12.379  0.0509  0.0581  0.0409
 7837W        W26041  16.760  18.575  13.172  0.0866 -0.1207  0.2511
 7838W        W26042  13.171  18.150  15.435 -0.1977  0.0307 -0.0021
 7839W        W26043  12.798  13.332  14.329  0.0963  0.0918  0.1623
 7840W        W26044   4.044  16.095  14.389  0.1512 -0.0733  0.3317
 7841W        W26045   4.745  17.965   5.379  0.0793 -0.0799  0.0035
 7842W        W26046  13.661  18.169  15.337 -0.1537 -0.2177  0.2642
 7843W        W26047   7.372  16.213   4.803 -0.0884 -0.2051  0.1014
 7844W        W26048   5.443  14.592  11.180  0.1473  0.0390 -0.1815
 7845W        W26049  14.268   3.602  12.882 -0.1074  0.0476 -0.1975
 7846W        W26050  17.162   8.753  13.825 -0.2044 -0.1127 -0.0283
 7847W        W26051   3.836  15.015   3.742  0.0483 -0.0349  0.0654
 7848W        W26052  13.547   6.370   2.308  0.1302  0.1822  0.0809
 7849W        W26053  14.582   6.135  12.575 -0.1509 -0.1890  0.3426
 7850W        W26054   2.457  11.476   2.852  0.2098  0.0716 -0.3284
 7851W        W26055   5.844   6.626   1.831 -0.0235  0.2018  0.0038
 7852W        W26056  18.198   6.168   2.379  0.0192  0.3198 -0.1130
 7853W        W26057   4.313  17.039  12.848  0.1048 -0.0412 -0.1841
 7854W        W26058   3.441   6.972   2.139 -0.2091 -0.0319  0.4127
 7855W        W26059  11.420   3.861  11.335 -0.3006  0.4821  0.0715
 7856W        W26060   8.780  10.018   2.225 -0.1358 -0.2107  0.0211
 7857W        W26061  13.504  14.177  14.180 -0.1529 -0.1304  0.0156
 7858W        W26062   3.893  17.838  12.470  0.3309 -0.2793  0.0192
 7859W        W26063   0.646   8.834   2.767 -0.1474  0.1823  0.1440
 7860W        W26064  15.589  17.769   0.366  0.0009 -0.3394  0.1329
 7861W        W26065   4.131   7.224  10.826 -0.3117  0.0709  0.2393
 7862W        W26066   9.315   7.289  13.932  0.1426 -0.2539 -0.0314
 7863W        W26067   2.442   4.516  11.289  0.3607 -0.2239  0.0595
 7864W        W26068  10.786  14.444   2.685  0.2556  0.0815 -0.3629
 7865W        W26069   7.507  11.443  10.764 -0.2794 -0.1182  0.0909
 7866W        W26070   3.180   9.072   1.213  0.3620 -0.1725  0.1625
 7867W        W26071   1.997   1.765  11.526  0.0430  0.0741  0.0751
 7868W        W26072  16.145   1.780  11.900 -0.3352 -0.0195 -0.0994
 7869W        W26073   3.289   5.527  13.744  0.0233 -0.1816  0.0575
 7870W        W26074  14.767   2.920  11.332  0.0580 -0.3165  0.0990
 7871W        W26075  18.193  10.973   2.098  0.1150 -0.0466  0.0460
 7872W        W26076   6.756  15.993  11.668  0.2543 -0.4089  0.1464
 7873W        W26077  11.808   1.279  14.896  0.3293 -0.0128  0.0582
 7874W        W26078  13.202   2.554  11.481 -0.1298  0.1960 -0.1311
 7875W        W26079  10.243  14.395  13.853 -0.0750 -0.0004  0.3536
 7876W        W26080   3.754  18.156   3.299  0.2250  0.2404  0.0492
 7877W        W26081   2.639   7.565  12.209 -0.1815 -0.2044  0.1978
 7878W        W26082  13.870   2.670  13.243  0.0947  0.3467  0.1481
 7879W        W26083  17.964   3.130   0.097 -0.1836 -0.0378 -0.2081
 7880W        W26084   6.029  14.468  14.273 -0.2148 -0.0004 -0.0469
 7881W        W26085   9.132   7.516  11.096 -0.0727  0.0635  0.0991
 7882W        W26086   6.530   5.990  13.742  0.0855  0.0236  0.1765
 7883W        W26087   2.735  14.929  11.360 -0.0367  0.0072 -0.2837
 7884W        W26088   2.847   9.324  13.747 -0.0031 -0.1068  0.1389
 7885W        W26089  16.007   5.470   1.578 -0.1437 -0.0082  0.0760
 7886W        W26090  14.441  14.002  10.772 -0.2794 -0.0143  0.2480
 7887W        W26091  14.979   9.094  11.367 -0.2026 -0.0233  0.0048
 7888W        W26092   7.110   0.642   4.022  0.0121  0.1617  0.0882
 7889W        W26093  12.410  15.897   0.386  0.0957 -0.2152 -0.1557
 7890W        W26094   2.860   2.079  14.352 -0.1230  0.0521  0.2242
 7891W        W26095  18.103  14.473  13.572  0.1728 -0.1514  0.0512
 7892W        W26096   9.227  11.320  13.784  0.0218 -0.2282 -0.1224
 7893W        W26097  15.425  18.603  13.068 -0.0590  0.3405 -0.2392
 7894W        W26098   0.649  15.712   3.129 -0.0005  0.0208 -0.0024
 7895W        W26099   9.797  15.033   4.517  0.1119  0.0457  0.1229
 7896W        W26100   9.941  10.933   3.835  0.1318  0.0142 -0.0770
 7897W        W26101   1.919  16.849   2.654 -0.0682 -0.1416  0.2683
 7898W        W26102  18.074   4.313  12.728 -0.2414 -0.0489  0.1167
 7899W        W26103   2.560   9.977  12.652 -0.0615 -0.3087  0.3013
 7900W        W26104  16.233  12.566  11.536  0.1764  0.0494 -0.0104
 7901W        W26105  16.756  11.199   2.208 -0.0485  0.0568  0.1399
 7902W        W26106  11.287   4.301   1.150 -0.0421 -0.1660 -0.0652
 7903W        W26107  13.031   1.523  13.622  0.2890  0.0408  0.0984
 7904W        W26108   6.602  12.885   0.734 -0.2188 -0.1045 -0.5708
 7905W        W26109   3.093  10.019  13.147 -0.1435  0.1693  0.0198
 7906W        W26110   4.228  14.144   1.828 -0.2034  0.1439  0.1022
 7907W        W26111   5.843  14.175   3.748  0.3554 -0.0679  0.1178
 7908W        W26112  13.678  14.918  15.360 -0.2263  0.2038 -0.3439
 7909W        W26113   6.565   9.178  10.779 -0.0702  0.1714  0.0498
 7910W        W26114   9.000   9.407   3.140  0.0328 -0.0566 -0.0524
 7911W        W26115  10.496  10.031   0.944 -0.0083  0.0899  0.0379
 7912W        W26116  12.996   3.181  12.232  0.1671  0.1561  0.0270
 7913W        W26117   1.002  12.428   1.678  0.1100  0.1844  0.1093
 7914W        W26118  17.923   3.784   1.558  0.4599 -0.2211 -0.1595
 7915W        W26119   6.119   1.457   4.416  0.1513  0.0597  0.4030
 7916W        W26120   8.390  15.999   3.949 -0.1451 -0.1178  0.0828
 7917W        W26121   5.306   8.226  13.536 -0.0707  0.0608  0.2263
 7918W        W26122   4.077  13.923  13.691 -0.0413 -0.2741  0.0303
 7919W        W26123   2.640  15.301  13.489 -0.0429 -0.0613 -0.2631
 7920W        W26124  12.592  16.090   5.325  0.1264  0.2494  0.0075
 7921W        W26125   2.959   6.128  12.072  0.4024  0.0962 -0.0928
 7922W        W26126  13.989  14.778   4.332 -0.0282  0.0300  0.2058
 7923W        W26127   9.365  12.826  10.814 -0.2137 -0.0552  0.1546
 7924W        W26128  11.128   1.286  13.016 -0.0723 -0.1713  0.0098
 7925W        W26129  18.050  10.503  14.220 -0.0694  0.0481 -0.0588
 7926W        W26130   4.301   1.058   4.887  0.1928 -0.3194 -0.0247
 7927W        W26131   4.329   0.988  12.048  0.3103 -0.0221  0.0927
 7928W        W26132  15.213   2.186  11.516  0.0514  0.4009 -0.0278
 7929W        W26133  15.838   0.725   3.581 -0.1084  0.1077 -0.0758
 7930W        W26134  13.212   7.363   4.234  0.1812  0.2392  0.0575
 7931W        W26135   0.624   7.577   4.199 -0.2354 -0.1592 -0.0464
 7932W        W26136  17.024   9.693  13.999  0.0247 -0.0542 -0.2076
 7933W        W26137  16.960   9.784   1.534 -0.0202 -0.0568  0.1733
 7934W        W26138  12.128  13.262  11.603  0.1988  0.1231 -0.1000
 7935W        W26139   2.835  14.404  13.115 -0.1268 -0.2303 -0.3766
 7936W        W26140  16.213  15.816  11.687  0.2104  0.4455  0.0568
 7937W        W26141  18.512  13.275   4.659 -0.0988 -0.0300  0.0044
 7938W        W26142   3.053   5.961  11.478 -0.0937 -0.0316 -0.2700
 7939W        W26143  10.700  13.980  15.162 -0.0709 -0.2796 -0.2757
 7940W        W26144   6.242   2.785  12.535  0.1293  0.1789  0.3214
 7941W        W26145   0.622   4.635  14.166 -0.3396 -0.0892  0.4200
 7942W        W26146   3.610   0.058   4.274 -0.1805  0.1088  0.0287
 7943W        W26147   5.311   6.151  12.737 -0.2387  0.0602 -0.1422
 7944W        W26148  18.605  11.497  12.672  0.0416 -0.1909 -0.1583
 7945W        W26149  15.339  15.121  12.157 -0.2534  0.0003 -0.0583
 7946W        W26150  18.242   5.652   4.332 -0.2546 -0.2398 -0.0591
 7947W        W26151   0.020  15.139  15.125  0.3398  0.2195  0.0318
 7948W        W26152   5.946   6.907  12.275  0.1262  0.3011 -0.2253
 7949W        W26153   2.963  16.849   4.744 -0.2047  0.4088 -0.0447
 7950W        W26154   5.567   1.661  15.331  0.0749 -0.1192  0.2952
 7951W        W26155   0.284   8.329  14.411 -0.1162  0.1316 -0.2327
 7952W        W26156   0.188   9.643   0.345  0.0710 -0.1221  0.2798
 7953W        W26157   9.852   7.746  15.114 -0.3646 -0.3062  0.0318
 7954W        W26158   8.711  10.918  15.160  0.0239  0.1903 -0.3102
 7955W        W26159   8.725  16.755  12.998  0.2458 -0.0841 -0.0348
 7956W        W26160  16.414  17.600  14.659  0.0546 -0.2719  0.2898
 7957W        W26161  10.478   3.366  15.146 -0.0515  0.1401  0.2026
 7958W        W26162   3.135  10.773  15.079  0.2694 -0.1196 -0.2029
 7959W        W26163  13.444  11.354  13.198 -0.2102  0.0785  0.3923
 7960W        W26164   4.473   7.668   3.626  0.1321  0.0101  0.4185
 7961W        W26165   4.596  13.102  15.183  0.0456  0.2394  0.1242
 7962W        W26166   3.395   8.990   2.314  0.1381  0.0859 -0.5418
 7963W        W26167   5.189  10.147  11.041  0.1831 -0.1357  0.0570
 7964W        W26168   7.655  16.586   5.120  0.1856 -0.0545  0.0044
 7965W        W26169   4.335  11.733  12.160 -0.2090 -0.0586  0.1174
 7966W        W26170   1.178   5.352   3.429 -0.2304  0.0746  0.0993
 7967W        W26171   5.713   4.895   5.244  0.0808  0.1493 -0.0389
 7968W        W26172   7.552   5.074   3.658  0.3031  0.0066 -0.0671
 7969W        W26173   1.804   2.413  14.895 -0.4763  0.1550 -0.0670
 7970W        W26174   2.855   4.307   0.318  0.0720  0.0976  0.3618
 7971W        W26175   8.463   5.741   1.756  0.2278  0.2768 -0.0166
 7972W        W26176  12.549  14.232   2.705  0.0749 -0.3104  0.2099
 7973W        W26177  11.992   6.516  12.542 -0.0502  0.2771  0.0415
 7974W        W26178   1.469   0.517   4.955  0.3438  0.1044  0.1791
 7975W        W26179   2.714  15.897  12.143 -0.1610  0.0712  0.0631
 7976W        W26180   6.365   8.776   0.025  0.0334 -0.3124  0.2907
 7977W        W26181   1.210   9.274  13.829  0.3139 -0.0185 -0.0127
 7978W        W26182  14.219   8.250  14.179 -0.1802 -0.1617 -0.0112
 7979W        W26183   1.603   6.220  14.176 -0.1791  0.2772 -0.1870
 7980W        W26184   0.907  11.517  14.305  0.3392 -0.1333  0.1737
 7981W        W26185  10.821  14.473   1.561 -0.0168 -0.1190 -0.1301
 7982W        W26186   3.476   0.491   0.235 -0.2347 -0.1344 -0.0638
 7983W        W26187   8.486  15.656  15.413 -0.1493 -0.3742  0.1595
 7984W        W26188  12.474  11.292  14.087 -0.2297  0.0728  0.1894
 7985W        W26189   3.501  16.040  11.314 -0.2583 -0.2208 -0.0440
 7986W        W26190   0.993   4.175  15.334 -0.0501  0.2095  0.0347
 7987W        W26191  15.352   7.576   4.365 -0.1447 -0.0485 -0.1414
 7988W        W26192   8.093  12.156   4.007  0.1411 -0.2870 -0.2613
 7989W        W26193   0.798  15.395   2.141  0.2398 -0.0017 -0.1218
 7990W        W26194  17.218   7.056  11.725 -0.0030 -0.0850  0.1418
 7991W        W26195  11.243  14.756   1.784 -0.2827  0.0182  0.1259
 7992W        W26196  15.419  16.566  14.752  0.1789  0.0425  0.1684
 7993W        W26197   7.145   6.225  12.421  0.0464  0.2743 -0.2331
 7994W        W26198   8.256   1.371  13.285  0.0326  0.0875  0.1129
 7995W        W26199   9.209   3.330  11.122  0.1344 -0.3011  0.1754
 7996W        W26200   0.886   9.955   3.503 -0.0787 -0.0718  0.1754
 7997W        W26201  10.344   8.622  12.988  0.0289 -0.0863 -0.1481
 7998W        W26202   2.271  12.165   1.009 -0.1121 -0.3701 -0.0469
 7999W        W26203  10.282  17.134   3.689  0.1106  0.0881  0.0145
 8000W        W26204  13.213  14.600   0.009 -0.1919 -0.2167  0.1015
 8001W        W26205   0.730  15.018   0.424  0.0219  0.1273  0.3478
 8002W        W26206  17.464   0.849  13.429  0.2803 -0.1296  0.2089
 8003W        W26207   2.363   2.936   2.161 -0.0314 -0.1856  0.0487
 8004W        W26208  16.034   2.142   2.535  0.0505  0.0154  0.0005
 8005W        W26209  11.196  18.044  11.462  0.2674 -0.3948 -0.1368
 8006W        W26210   2.484  15.381   0.120  0.0507 -0.1479 -0.0537
 8007W        W26211  15.896   2.668   1.175 -0.5754  0.0247  0.1370
 8008W        W26212   9.143  13.204  13.696  0.1316 -0.0395  0.2382
 8009W        W26213  17.898   1.597   0.697  0.0777 -0.1822 -0.1049
 8010W        W26214   6.637  18.468  14.721 -0.0250 -0.2490 -0.1026
 8011W        W26215  13.597   8.493  11.185 -0.0975  0.1019  0.2625
 8012W        W26216   4.717  13.565  15.419 -0.0527 -0.2928  0.0585
 8013W        W26217   4.656   7.805  14.709 -0.2225  0.0111  0.2852
 8014W        W26218   9.085   5.268   2.582  0.3704 -0.2295 -0.3355
 8015W        W26219  11.159   7.058  13.008  0.2262  0.0147  0.3411
 8016W        W26220  10.627  17.647   1.836  0.2032 -0.0358 -0.2036
 8017W        W26221   9.495  18.072  11.094  0.1250 -0.0606  0.0334
 8018W        W26222   9.369   5.166  10.483 -0.0581 -0.0420 -0.0964
 8019W        W26223   4.758   9.822   4.650  0.0578  0.0612 -0.2172
 8020W        W26224   6.488   8.987   3.796 -0.4759  0.0285  0.0980
 8021W        W26225  12.064  12.081   1.614 -0.1747 -0.0764 -0.2772
 8022W        W26226   1.372  10.516   1.122 -0.0143 -0.0035 -0.1334
 8023W        W26227   9.687   8.136   0.043  0.0880 -0.1711  0.1003
 8024W        W26228   8.596  15.733   0.930  0.0235 -0.1248  0.0198
 8025W        W26229   4.796   7.227   3.778  0.0924  0.1848  0.0093
 8026W        W26230  12.592   1.576   0.802 -0.0112  0.2077  0.1213
 8027W        W26231  15.710  16.522   3.428  0.2168  0.0571  0.1692
 8028W        W26232  14.136  12.104   0.192 -0.1067  0.1208 -0.0444
 8029W        W26233  16.514  13.690  14.382  0.0257  0.1711  0.2544
 8030W        W26234   1.203   2.689   1.216  0.1802 -0.1292 -0.3372
 8031W        W26235  11.116  15.103   3.116  0.0419  0.3793  0.4819
 8032W        W26236   2.225  13.095  11.443 -0.0825 -0.1173  0.0238
 8033W        W26237   4.197   4.869  12.924  0.0813 -0.0067  0.2402
 8034W        W26238   4.144   9.085   1.136 -0.1752  0.0210 -0.2804
 8035W        W26239  10.772  11.057  11.793 -0.3476 -0.0586 -0.0382
 8036W        W26240   1.138  16.252  10.053  0.0246 -0.0306 -0.4067
 8037W        W26241  17.804   2.822   1.494 -0.2483 -0.3266  0.1509
 8038W        W26242  14.499   2.059   5.085  0.0368  0.2682 -0.1021
 8039W        W26243  14.171   4.603   0.117  0.5712 -0.0408 -0.1738
 8040W        W26244   3.848  13.587  12.142  0.0938 -0.0891  0.2350
 8041W        W26245  14.805  13.467   2.910  0.2147 -0.1718  0.0271
 8042W        W26246  12.899   0.466   2.841 -0.0664  0.2500 -0.0093
 8043W        W26247   3.730  15.020  11.634 -0.2362 -0.0606  0.1111
 8044W        W26248   1.812  11.829   1.012  0.0874 -0.0506  0.2035
 8045W        W26249  12.708  13.927  12.563  0.0591  0.1204 -0.1318
 8046W        W26250   9.781   4.885  14.381 -0.0722 -0.1420 -0.2686
 8047W        W26251   5.054   3.078   3.268  0.0201  0.2750  0.0212
 8048W        W26252  15.797   9.571  15.179  0.1758  0.1838  0.2718
 8049W        W26253  17.752  14.123   2.826  0.0803  0.0433 -0.0424
 8050W        W26254   1.946   8.930  15.276  0.2040 -0.1693  0.2000
 8051W        W26255  10.460  16.697  12.926 -0.0892  0.2283  0.0936
 8052W        W26256  12.271   0.823  13.755  0.0200 -0.1653 -0.3023
 8053W        W26257   8.404  11.048   3.199  0.1769 -0.1228 -0.0490
 8054W        W26258   1.619  11.087   4.205  0.3105  0.0556  0.0210
 8055W        W26259   7.484   5.160  11.635 -0.1378 -0.0447  0.1967
 8056W        W26260   5.136   2.938   2.267  0.0827  0.1063  0.3853
 8057W        W26261  10.632  16.638   2.021  0.0592 -0.2788 -0.0742
 8058W        W26262  10.364   1.167  13.384 -0.2905 -0.2642  0.0457
 8059W        W26263   7.521   7.381  14.520 -0.0061 -0.1353 -0.0340
 8060W        W26264   6.566   6.660   3.582  0.1359 -0.0981  0.0831
 8061W        W26265   6.139   0.773   3.756  0.0598 -0.1188  0.2497
 8062W        W26266   1.601  15.368  12.529  0.0481  0.3199  0.0934
 8063W        W26267  13.750   3.687   3.134  0.0955 -0.2897 -0.0461
 8064W        W26268  10.718   4.412  12.586 -0.0328 -0.1626 -0.1046
 8065W        W26269  12.484  16.496   4.178 -0.2260 -0.0382 -0.0484
 8066W        W26270  14.317   1.147   3.116 -0.2266 -0.4436 -0.4614
 8067W        W26271   1.774   0.089   4.129 -0.1905 -0.1416  0.1630
 8068W        W26272   7.287  11.341  13.671  0.0130 -0.0870 -0.1559
 8069W        W26273   7.469  17.767   4.354  0.0451 -0.1920 -0.1243
 8070W        W26274  11.296   4.943  12.251 -0.0661  0.0735 -0.0612
 8071W        W26275  11.247   9.588   4.007 -0.0466  0.0106  0.1873
 8072W        W26276   9.746  16.891  14.242 -0.1808  0.0384 -0.0303
 8073W        W26277  18.176  18.151  14.412 -0.1809  0.0623  0.1598
 8074W        W26278  17.987   9.150  10.466 -0.1592 -0.3005 -0.0091
 8075W        W26279  16.300   4.021  13.385 -0.1247 -0.4576  0.0538
 8076W        W26280   3.721  11.013   2.368 -0.0467  0.1789  0.0631
 8077W        W26281  10.549   6.514  11.912  0.0252 -0.0016 -0.4318
 8078W        W26282  10.363   7.306   0.760 -0.0437 -0.2014 -0.0548
 8079W        W26283   7.400   8.135   0.148 -0.0059  0.1590 -0.2169
 8080W        W26284   1.699  16.807   3.672  0.0863  0.0704 -0.0682
 8081W        W26285   9.513   3.273  15.432 -0.2860 -0.0704 -0.1626
 8082W        W26286   5.736  18.006   2.023 -0.1715  0.0991  0.1896
 8083W        W26287   1.711   9.009  10.938 -0.0169 -0.0410  0.0577
 8084W        W26288  10.944  10.518  11.725  0.0534  0.0995  0.0249
 8085W        W26289  10.702   6.197  11.523 -0.1953  0.2229 -0.0046
 8086W        W26290  17.368  12.705  12.383 -0.2637 -0.1123  0.2103
 8087W        W26291  17.624  10.966   2.025 -0.2347 -0.0227  0.0966
 8088W        W26292   8.012   5.857   2.031 -0.2427 -0.0298  0.1347
 8089W        W26293  17.661  11.704  14.124  0.2371  0.1223  0.1819
 8090W        W26294   3.868   6.624   2.005 -0.3435  0.1946  0.2397
 8091W        W26295   1.601   0.533   1.503 -0.2702 -0.2377 -0.1703
 8092W        W26296  13.255  10.300   2.631 -0.0708 -0.1115 -0.3597
 8093W        W26297   7.383   7.347  12.428 -0.2028  0.3030 -0.2113
 8094W        W26298  15.372   3.930  11.346 -0.2155 -0.1918 -0.1118
 8095W        W26299   7.925   0.930   3.555 -0.0215 -0.1117  0.0945
 8096W        W26300   5.130   3.872  15.210 -0.1713 -0.0986 -0.2527
 8097W        W26301  17.397  14.374  11.800  0.1934 -0.1059  0.1417
 8098W        W26302  13.635   3.972   0.526 -0.2715 -0.0110  0.0295
 8099W        W26303   9.042  14.292  11.407  0.0293 -0.0556  0.4031
 8100W        W26304  14.935  14.199   0.735 -0.3372  0.0812  0.3275
 8101W        W26305   8.330   6.284   0.864  0.2497  0.4433  0.2967
 8102W        W26306  13.239  12.425   0.511 -0.0718  0.0866 -0.1752
 8103W        W26307  18.146   4.375   0.795 -0.2666 -0.2341 -0.0389
 8104W        W26308  18.096   8.176   3.042  0.1293 -0.1963  0.0565
 8105W        W26309  14.930   8.797  12.998  0.0213 -0.2632 -0.1308
 8106W        W26310  11.069  17.909   1.980 -0.1057  0.3753 -0.0541
 8107W        W26311   8.672   3.461  12.395  0.1747  0.1918  0.0960
 8108W        W26312   9.884  16.059  12.481 -0.2524 -0.0879  0.1453
 8109W        W26313  17.328  15.068  14.642 -0.3791  0.0757  0.0015
 8110W        W26314  16.864  12.731  13.799  0.0301  0.0813 -0.0235
 8111W        W26315   5.572   4.097   0.764  0.0288  0.2313  0.1401
 8112W        W26316   1.336  11.450  14.652 -0.2471 -0.0930  0.0351
 8113W        W26317   8.812  17.280   1.575  0.1990  0.1204 -0.0489
 8114W        W26318  14.572   5.288  12.489  0.4570  0.0918 -0.0108
 8115W        W26319   1.765   1.440   0.963 -0.0020 -0.1465 -0.1931
 8116W        W26320  13.771  16.430   4.603 -0.0315 -0.2191 -0.1854
 8117W        W26321  16.965  11.079  13.830  0.4522 -0.0762  0.1623
 8118W        W26322  16.746   5.587  15.114  0.2481  0.2432  0.2668
 8119W        W26323  15.747   3.385  12.456 -0.2371  0.0751 -0.0874
 8120W        W26324   8.551  10.808   0.265 -0.1584  0.2878  0.1764
 8121W        W26325  15.499  13.405   0.822 -0.1247 -0.1239  0.0498
 8122W        W26326  16.556  12.276   4.364 -0.0441  0.2364  0.2258
 8123W        W26327   0.204  10.166  12.782 -0.1630 -0.3359  0.1665
 8124W        W26328   2.114   3.237  15.282 -0.2137 -0.2598  0.0916
 8125W        W26329  11.131  11.284   3.954  0.0844 -0.1156 -0.1585
 8126W        W26330  18.365   4.232  14.688  0.1623  0.0440 -0.3339
 8127W        W26331  11.753  16.105  11.573  0.2728 -0.0542 -0.2143
 8128W        W26332   5.791   5.164  12.547 -0.0726 -0.3302 -0.3182
 8129W        W26333   3.158   2.171  15.167 -0.1908 -0.4634  0.1483
 8130W        W26334  11.002   9.510   2.289 -0.2148  0.3875 -0.1754
 8131W        W26335   9.936   1.713  13.784  0.0992 -0.0760 -0.1972
 8132W        W26336   4.218  12.800   0.969 -0.0722  0.0390  0.1756
 8133W        W26337  12.323   7.735  12.079  0.1914 -0.1573  0.1078
 8134W        W26338  18.561   4.660  14.735 -0.0620 -0.1150  0.0295
 8135W        W26339  14.350  10.098   3.992 -0.2395 -0.1799  0.0352
 8136W        W26340   5.595  11.744  12.641 -0.0480  0.3258 -0.2519
 8137W        W26341   0.596  14.368   4.663 -0.1420 -0.0725  0.0639
 8138W        W26342  11.138  12.877  11.754 -0.0344  0.2650 -0.1725
 8139W        W26343   1.380  14.047   3.871  0.0507  0.0470  0.0533
 8140W        W26344  14.846   5.372   2.160  0.1094  0.0857  0.2389
 8141W        W26345  13.879  16.208  10.405  0.0700 -0.0668  0.1452
 8142W        W26346  13.106   6.735  14.975 -0.0795 -0.0008 -0.1303
 8143W        W26347  16.072   9.469   0.751 -0.1649 -0.0231  0.1032
 8144W        W26348   3.646   9.491  13.878  0.1013  0.1449 -0.1701
 8145W        W26349   1.656  14.442   3.883 -0.0824 -0.2213  0.1838
 8146W        W26350   3.207  15.844   0.269  0.1480  0.3828  0.0255
 8147W        W26351   9.948  11.531  15.162  0.0504 -0.2374 -0.4755
 8148W        W26352  12.792  17.878  13.382  0.1041  0.1544 -0.2179
 8149W        W26353   3.399   3.443  11.804 -0.0996  0.2231 -0.0839
 8150W        W26354   8.151   7.416   4.571  0.1589  0.4915  0.2922
 8151W        W26355   1.183   0.239   5.316 -0.0179  0.0741 -0.1291
 8152W        W26356   1.625  10.672  11.708 -0.0357 -0.0163  0.1738
 8153W        W26357   4.087  14.510  11.413  0.1930 -0.1019  0.0523
 8154W        W26358   5.189   2.814   1.534 -0.2948  0.0313 -0.1442
 8155W        W26359  16.888   4.088  14.621 -0.3224 -0.0736 -0.0701
 8156W        W26360  14.191  17.101  13.988 -0.2752 -0.1867 -0.0223
 8157W        W26361   2.963   4.493  15.284  0.0777  0.1481 -0.0263
 8158W        W26362   2.954   2.071   4.525 -0.2894  0.0615 -0.0222
 8159W        W26363  14.121   2.146  13.147  0.1444 -0.3711  0.2590
 8160W        W26364   2.933   5.512  14.179 -0.1071 -0.0016  0.0483
 8161W        W26365   0.814   5.750   2.458 -0.1282  0.0957  0.0262
 8162W        W26366  14.379   3.134  12.841  0.1098  0.0823 -0.0174
 8163W        W26367   0.560  16.439  11.683  0.0478 -0.3224  0.0961
 8164W        W26368   7.612  13.504   3.411 -0.0470  0.2252  0.0525
 8165W        W26369  16.195   3.883   0.807  0.4759  0.0053  0.0559
 8166W        W26370  16.500   6.184  12.683  0.4019 -0.1260  0.1428
 8167W        W26371   4.616   6.415   2.247  0.2720  0.2702  0.1693
 8168W        W26372  11.089   0.231   1.573 -0.0025  0.1643  0.0876
 8169W        W26373  17.792  15.127  13.127  0.1358 -0.2506  0.0865
 8170W        W26374  17.002  14.495  14.845  0.0682  0.2436 -0.3682
 8171W        W26375   9.377   1.629   4.576  0.0909  0.3059  0.0741
 8172W        W26376  16.648   7.873   2.427  0.4106 -0.2642  0.1189
 8173W        W26377   9.111  16.686   3.727 -0.0741 -0.1977 -0.0728
 8174W        W26378  12.486   3.725   1.723  0.1377  0.2105 -0.1718
 8175W        W26379  17.789   2.443  11.330  0.0209  0.1755 -0.0520
 8176W        W26380   0.409  13.823  11.768 -0.1650 -0.0922 -0.0748
 8177W        W26381   8.747   7.443   3.171 -0.2702 -0.2068  0.1829
 8178W        W26382   7.796   8.335  12.546 -0.0302 -0.2214  0.1786
 8179W        W26383  13.536   1.848   0.466  0.3595 -0.2622  0.2567
 8180W        W26384  13.702   6.779   4.516  0.1898  0.0116 -0.0767
 8181W        W26385  15.013   2.818  14.240 -0.4444  0.3090 -0.1586
 8182W        W26386   6.526  12.914   2.328 -0.0730 -0.2118 -0.0407
 8183W        W26387   8.447   8.949  14.976 -0.2220  0.0613 -0.0064
 8184W        W26388  11.778   8.901   1.896  0.0648  0.2268 -0.0022
 8185W        W26389  17.450  17.847   1.646 -0.2462  0.0001 -0.2034
 8186W        W26390   1.591   7.693   2.609 -0.1388 -0.0665 -0.1443
 8187W        W26391   0.070  13.642   4.296  0.1412  0.1289  0.4130
 8188W        W26392   9.780   4.954  13.588 -0.1013  0.0502 -0.0348
 8189W        W26393  11.142   7.867  12.845  0.1662 -0.1526  0.2464
 8190W        W26394  12.688  14.623   2.352 -0.2193 -0.0603  0.1683
 8191W        W26395  11.939  13.626  10.781  0.0592  0.2767  0.1271
 8192W        W26396   3.472   9.183   2.909  0.0409 -0.0233  0.0106
 8193W        W26397   5.640   9.224  12.390  0.0580 -0.1968 -0.0270
 8194W        W26398  12.489  11.495  11.537  0.0780 -0.0962  0.3126
 8195W        W26399   2.760   5.007   0.754  0.0782  0.0814  0.0763
 8196W        W26400   6.573  11.561   1.142  0.0580  0.0877  0.1174
 8197W        W26401   0.334   8.214  11.553  0.2041  0.0953  0.0058
 8198W        W26402  10.430   1.228  11.627 -0.1299  0.1287 -0.1717
 8199W        W26403  10.525  16.801  11.875 -0.0681 -0.0307 -0.1962
 8200W        W26404  11.164   0.784  14.474 -0.2952  0.0415  0.1928
 8201W        W26405  12.864   3.236   0.837 -0.0733  0.2989 -0.2491
 8202W        W26406   5.398   3.384  14.584 -0.2075  0.0254  0.5908
 8203W        W26407   5.295   3.877   4.584  0.0743  0.2281  0.1046
 8204W        W26408  12.088   1.181  12.847 -0.0124 -0.0785 -0.2868
 8205W        W26409   6.407   5.538   2.840 -0.0395 -0.1832  0.1611
 8206W        W26410  17.312  11.001  14.477 -0.2242  0.0844  0.1586
 8207W        W26411  10.234  16.580  13.754  0.0301  0.0232 -0.5652
 8208W        W26412   8.572   0.599  12.181  0.0645 -0.0790  0.0950
 8209W        W26413   3.871   4.357  15.252  0.1818  0.0049  0.0500
 8210W        W26414   7.589   9.158  15.395 -0.0261 -0.1588 -0.0984
 8211W        W26415  12.442  11.965   4.709  0.0464 -0.0094  0.1502
 8212W        W26416   5.501   5.269   3.575 -0.1956 -0.0326  0.0675
 8213W        W26417  18.151  11.615  14.284  0.3250  0.0488 -0.3151
 8214W        W26418   5.255  10.563   0.507  0.0363 -0.1472 -0.0182
 8215W        W26419   8.986  13.017   0.549  0.1810  0.3522 -0.1936
 8216W        W26420  10.603  16.849  15.435 -0.1459 -0.1158 -0.0360
 8217W        W26421  14.498  12.810  13.944  0.3494  0.3806  0.4343
 8218W        W26422   5.245  12.922   5.444 -0.3629 -0.1415 -0.2057
 8219W        W26423   3.484  17.162   0.902  0.0285  0.3030 -0.0846
 8220W        W26424  10.318  17.069  12.635 -0.0686  0.2111 -0.2139
 8221W        W26425  10.679   2.431   5.317 -0.1519  0.1560 -0.0710
 8222W        W26426   9.257   6.362  11.922 -0.1217 -0.2029  0.0158
 8223W        W26427  16.270  16.860  12.329  0.5076  0.0501 -0.0961
 8224W        W26428  15.398   8.894  13.247 -0.1435 -0.2211  0.0110
 8225W        W26429   7.684  13.654  10.487 -0.1105  0.0996 -0.2321
 8226W        W26430   4.620  13.904  12.134 -0.1529 -0.1837 -0.3567
 8227W        W26431  13.037  13.969  14.220  0.0920 -0.2034 -0.1667
 8228W        W26432  11.181   7.461   1.343  0.1843 -0.1032 -0.1889
 8229W        W26433  15.339   0.087   4.306  0.0263  0.1301  0.1004
 8230W        W26434  15.748  13.466   3.052 -0.0601  0.1729  0.0260
 8231W        W26435  17.748   4.580   0.007  0.1258 -0.0967 -0.3939
 8232W        W26436   2.812   6.465   1.349 -0.2360 -0.2382 -0.0527
 8233W        W26437  16.095  16.874   4.193 -0.1291  0.0892 -0.1032
 8234W        W26438   4.504  10.632   1.349 -0.2343 -0.0247 -0.0893
 8235W        W26439  13.753   3.115   0.340  0.0315  0.1071  0.0943
 8236W        W26440  10.229  13.587  10.097  0.1464  0.2919 -0.1494
 8237W        W26441   6.066   9.278  12.167  0.0167  0.2383  0.1493
 8238W        W26442  17.155  14.124  11.350  0.1865 -0.0217  0.0729
 8239W        W26443  11.626   7.755  11.080  0.2253 -0.0416 -0.2121
 8240W        W26444   9.253   4.988  13.149 -0.2149 -0.1130 -0.0788
 8241W        W26445  17.995  13.251   4.765  0.2314 -0.0070 -0.0732
 8242W        W26446  10.365  17.612  14.650 -0.1429 -0.0426  0.2196
 8243W        W26447   7.159   6.676   1.434 -0.2412 -0.0967 -0.1459
 8244W        W26448   1.667  18.029  11.212 -0.4638  0.1942 -0.1053
 8245W        W26449   3.583   1.040   2.367  0.3027  0.0905  0.0269
 8246W        W26450  11.681  12.144   0.982 -0.0518  0.2802  0.3102
 8247W        W26451   6.654   1.625  12.766 -0.0300  0.0986  0.1365
 8248W        W26452   8.567   1.140  11.597 -0.0824  0.2348 -0.2912
 8249W        W26453  15.651  15.287  13.494  0.0575 -0.0859 -0.1627
 8250W        W26454   0.552   6.199   3.935 -0.6517 -0.3454  0.1642
 8251W        W26455  11.137  11.731  15.152 -0.0966 -0.0848  0.0713
 8252W        W26456   5.915   2.879  13.200  0.2545 -0.0656 -0.1302
 8253W        W26457  17.275   5.855  13.841 -0.1852  0.3963 -0.0370
 8254W        W26458  13.387  12.516   1.035  0.0600  0.0921  0.0085
 8255W        W26459   8.117  13.422   5.292 -0.0555 -0.5142 -0.1342
 8256W        W26460   1.554  11.331  13.095  0.1246  0.2069  0.0244
 8257W        W26461   3.632   9.261   3.402 -0.0790 -0.0876  0.0796
 8258W        W26462   6.229  15.949  14.062  0.3080  0.1808 -0.0326
 8259W        W26463  13.712   2.806   4.688 -0.2492 -0.1209 -0.2511
 8260W        W26464   4.721   9.827   1.298 -0.2694 -0.0788 -0.0680
 8261W        W26465  17.937  16.798  10.820  0.2354 -0.0052 -0.1226
 8262W        W26466  11.480   7.974   2.879  0.0288 -0.0014  0.0467
 8263W        W26467   6.977   9.594   1.864  0.2324  0.1951  0.1653
 8264W        W26468   2.469  14.701  13.348  0.1183  0.0074  0.0559
 8265W        W26469   3.547   9.868   1.810  0.1890 -0.1223 -0.1101
 8266W        W26470   8.828   7.431   1.201  0.0489 -0.1395  0.1659
 8267W        W26471  18.455   8.148   0.066  0.2331 -0.0963 -0.0103
 8268W        W26472  11.254   6.908   1.894  0.1053 -0.1246 -0.1440
 8269W        W26473   7.613   2.707   3.757  0.1993 -0.1649  0.0120
 8270W        W26474  12.400  14.814   4.467 -0.3264  0.0872 -0.1823
 8271W        W26475  17.570  18.353   2.466 -0.1323  0.0574  0.1737
 8272W        W26476   6.344  18.519  12.215 -0.1140  0.4147 -0.2480
 8273W        W26477  17.940   0.328   0.861  0.0335 -0.1662 -0.0990
 8274W        W26478   1.717  12.558   2.957 -0.2357 -0.2381  0.1342
 8275W        W26479  10.709  13.565  13.994 -0.2200  0.3814  0.2574
 8276W        W26480   2.117   2.874  12.103 -0.1663  0.1713 -0.0432
 8277W        W26481  10.275  13.809  11.451  0.0560  0.0663  0.0435
 8278W        W26482  13.545   1.766   5.007 -0.0239 -0.0120 -0.4414
 8279W        W26483   8.604   1.770   0.834 -0.3076 -0.1907 -0.3727
 8280W        W26484   0.311   3.585  13.329 -0.1433  0.1764 -0.2021
 8281W        W26485  17.682   7.691   4.813 -0.0264 -0.1754  0.1615
 8282W        W26486   2.426   1.334   5.350  0.0934 -0.1732  0.1540
 8283W        W26487   2.893  13.400  14.917  0.1890 -0.3488 -0.0137
 8284W        W26488   2.507  11.962   1.934  0.0251 -0.2040 -0.0090
 8285W        W26489  17.234   4.146  12.683  0.0970 -0.1515  0.1474
 8286W        W26490   7.091  11.185  14.679  0.0534  0.2720 -0.2982
 8287W        W26491   2.092  17.993  15.074  0.1724 -0.0123 -0.2014
 8288W        W26492   1.086  17.124  11.256 -0.0883 -0.1505  0.0251
 8289W        W26493   2.677  18.563   1.831 -0.0232  0.0511  0.2834
 8290W        W26494  12.170   4.084  10.830  0.0732 -0.0393  0.3440
 8291W        W26495  12.220  17.689  12.488  0.0042 -0.1507 -0.1706
 8292W        W26496   1.653  16.531  15.322 -0.1122  0.0564 -0.1608
 8293W        W26497  13.866   2.277  13.600  0.2418  0.0873  0.0806
 8294W        W26498   3.882  15.248   1.396 -0.1016 -0.0870 -0.1965
 8295W        W26499  11.577  17.585   1.444  0.2422 -0.0383  0.0867
 8296W        W26500   3.512  11.389   3.393 -0.0410  0.0856 -0.2594
 8297W        W26501   2.447   9.355  11.277  0.2661  0.1388  0.1215
 8298W        W26502   6.471   7.751   3.126 -0.1294 -0.1150  0.3004
 8299W        W26503   5.802   4.416  14.524  0.4874  0.1597  0.0138
 8300W        W26504   4.544  15.727   2.554  0.3476 -0.1339  0.1928
 8301W        W26505   9.988   8.061   4.211  0.0356 -0.0323 -0.0424
 8302W        W26506   3.522   8.148   5.389 -0.1160 -0.1248 -0.1471
 8303W        W26507   5.573  10.944   1.345  0.1749  0.1121 -0.2831
 8304W        W26508   6.671   1.285   9.864 -0.1040 -0.2036 -0.0834
 8305W        W26509  17.328  18.606  14.538  0.0705 -0.1372 -0.1560
 8306W        W26510   8.355   1.698   3.948 -0.2502  0.0161  0.2792
 8307W        W26511  13.147   0.464  10.424  0.0395 -0.5218  0.3227
 8308W        W26512   1.284   3.832  11.592  0.1791 -0.2743 -0.0204
 8309W        W26513  15.845   3.674   0.063  0.0666 -0.1584  0.2189
 8310W        W26514   9.602   8.080  14.743  0.0947 -0.1896  0.1258
 8311W        W26515  17.919  16.389   3.386 -0.2192 -0.1918 -0.0793
 8312W        W26516  17.665  18.051  11.412 -0.0131 -0.2600 -0.1548
 8313W        W26517  14.574   7.831   3.177  0.1572 -0.0427 -0.0706
 8314W        W26518  17.419  11.143  13.923  0.0267  0.1523 -0.4192
 8315W        W26519  16.921   5.003   2.334 -0.1483 -0.2968 -0.0620
 8316W        W26520   3.754   8.220  13.682  0.2914 -0.2329 -0.3652
 8317W        W26521   9.180   4.541  14.980 -0.0472 -0.0943  0.1395
 8318W        W26522   8.819   4.797   2.709 -0.1476 -0.0061 -0.2384
 8319W        W26523  11.640  12.172   3.558  0.2581  0.2081  0.2049
 8320W        W26524  13.926   4.024   0.909 -0.0873  0.0798  0.0270
 8321W        W26525   2.522  11.047   2.137  0.4877  0.0697 -0.5554
 8322W        W26526   5.957   6.777   4.192 -0.0025 -0.0499  0.1103
 8323W        W26527   7.552   2.716  14.439 -0.1435 -0.0581 -0.3088
 8324W        W26528  13.430   8.236  13.550  0.0944  0.0730  0.2296
 8325W        W26529   9.973  17.517  14.386 -0.0947 -0.0163 -0.0651
 8326W        W26530   1.064   7.371   3.355  0.1882  0.0687 -0.3662
 8327W        W26531   6.381   6.563  14.847  0.2498 -0.2212  0.2636
 8328W        W26532  15.504  10.296  13.506  0.2205  0.0049 -0.2649
 8329W        W26533   1.087   3.395   4.370 -0.1012 -0.0455  0.0169
 8330W        W26534   6.891  13.165   2.978 -0.3439  0.2814  0.1674
 8331W        W26535  12.905  17.335  11.052  0.2624 -0.4728 -0.2704
 8332W        W26536   6.195   3.495  12.759 -0.0019  0.2744 -0.2586
 8333W        W26537   2.096  15.493  12.344  0.0840  0.1252 -0.1542
 8334W        W26538   4.314  17.890   2.316  0.0711  0.4246  0.1400
 8335W        W26539   4.937   0.279  12.554  0.3475 -0.0761  0.0373
 8336W        W26540  18.578   8.761   2.034 -0.1951  0.2168 -0.1787
 8337W        W26541  12.511  14.647  12.957  0.2286 -0.2168  0.0922
 8338W        W26542   6.602  10.534   1.045 -0.2850  0.3077 -0.1614
 8339W        W26543  15.307  16.920   0.308  0.0063  0.0290  0.0319
 8340W        W26544   5.232   1.545  10.327  0.0419  0.0404 -0.1246
 8341W        W26545   6.876   9.832   4.492  0.0990  0.0145  0.1117
 8342W        W26546   7.869   8.779  12.847  0.2890 -0.1382 -0.0026
 8343W        W26547  10.684   2.847   0.505 -0.0719  0.0237  0.2127
 8344W        W26548   2.699   1.409  13.640  0.0822  0.1101  0.1743
 8345W        W26549   7.025  12.922  12.057  0.1137  0.0042  0.2337
 8346W        W26550  14.680   0.418  11.747  0.1190  0.0756  0.3017
 8347W        W26551   3.200  14.576   1.077  0.0359 -0.0346  0.1400
 8348W        W26552   7.945  17.037  15.133 -0.1201 -0.1259  0.0479
 8349W        W26553   5.000   2.755  14.073 -0.0254 -0.0721 -0.2803
 8350W        W26554   2.288  18.167   3.252 -0.0260  0.1642  0.1852
 8351W        W26555   8.802  13.362   1.361  0.2517  0.0183 -0.1509
 8352W        W26556   1.865  12.423  14.008  0.0671 -0.0077 -0.2215
 8353W        W26557  10.740  10.785  13.603  0.1058  0.0341 -0.0320
 8354W        W26558   3.200   9.528   4.977 -0.0628  0.2076 -0.4560
 8355W        W26559  17.880   7.256  15.036 -0.1158  0.1672 -0.0855
 8356W        W26560  17.501   4.898  13.270  0.2040  0.0563 -0.0612
 8357W        W26561  16.772   2.222   3.837 -0.2912  0.1872 -0.0228
 8358W        W26562   8.042   6.612   2.894 -0.0313  0.1066 -0.2741
 8359W        W26563   5.358  11.180  13.364 -0.0366  0.2630 -0.3110
 8360W        W26564  16.086  12.186  10.254  0.2781 -0.1270 -0.0417
 8361W        W26565   9.551  17.372   0.444 -0.2050  0.3718 -0.0631
 8362W        W26566   7.335   1.229   1.802 -0.1681 -0.1174  0.2498
 8363W        W26567   0.604   6.647  11.943 -0.2184  0.0611 -0.0628
 8364W        W26568  14.357  12.607   4.210  0.2238  0.2538 -0.0413
 8365W        W26569  18.348   9.067  14.567  0.1326  0.2068 -0.0545
 8366W        W26570   0.404  15.757   2.204  0.0751 -0.2264  0.1775
 8367W        W26571  13.740   1.272  14.227 -0.0512  0.0263  0.1263
 8368W        W26572  13.347   0.291   3.110 -0.0928 -0.2574  0.1792
 8369W        W26573  11.097  10.156  14.594  0.0915  0.3423  0.1327
 8370W        W26574   1.114   0.067  10.962 -0.1252  0.0748 -0.2112
 8371W        W26575  13.191  17.245   2.343  0.1049 -0.1549  0.0283
 8372W        W26576   5.939   0.941   1.768  0.1302 -0.0358 -0.4289
 8373W        W26577   3.447  18.485   3.744  0.0079 -0.0305  0.0472
 8374W        W26578  12.335  17.540  14.998  0.1987  0.2078  0.0590
 8375W        W26579   5.318   8.350  12.149  0.3604 -0.0780 -0.2054
 8376W        W26580   5.025  12.788   1.568 -0.0244  0.1701  0.2955
 8377W        W26581   0.275   0.090   0.851 -0.3052  0.0682  0.1354
 8378W        W26582  14.445  15.183   2.422  0.2590  0.3668 -0.1766
 8379W        W26583   7.499   4.577   2.309 -0.1188  0.5444 -0.0625
 8380W        W26584   8.623   2.827  12.678 -0.2045  0.0922 -0.2159
 8381W        W26585  12.868   4.493   0.752  0.1601  0.1461  0.1354
 8382W        W26586   4.595  11.143  11.957 -0.0984 -0.2110  0.1551
 8383W        W26587  16.361  11.470  13.597  0.0035  0.2555 -0.1081
 8384W        W26588   2.520  13.427   5.511  0.0030 -0.2339 -0.2052
 8385W        W26589  14.870   9.760  13.140 -0.1076  0.1117  0.0441
 8386W        W26590  16.798  12.849   0.395 -0.1972 -0.0286  0.1563
 8387W        W26591  12.426  14.611  14.782 -0.0034  0.0027  0.0836
 8388W        W26592  16.583   1.976   2.926 -0.0227 -0.1056 -0.2240
 8389W        W26593   5.422   3.492  12.733 -0.0866  0.0269  0.2823
 8390W        W26594  11.264   2.952  13.944  0.1613 -0.2975  0.0810
 8391W        W26595   6.241   9.066   4.256  0.2041 -0.0445  0.0626
 8392W        W26596  12.560  17.956   4.132 -0.0138  0.2693 -0.0347
 8393W        W26597  13.960  18.202   2.616 -0.4416 -0.2073 -0.0504
 8394W        W26598   7.603  10.341  13.395  0.0575 -0.1250  0.2028
 8395W        W26599   0.880   0.767  13.831  0.1989 -0.0454  0.3203
 8396W        W26600  12.927  17.599   1.982  0.2018  0.0925  0.0422
 8397W        W26601   5.303   6.868   2.754  0.1801 -0.0688 -0.3320
 8398W        W26602   0.451   5.078  10.363 -0.3952  0.0921  0.0174
 8399W        W26603   4.909  11.687  13.651 -0.0937  0.0554 -0.2307
 8400W        W26604  11.492  11.320   2.980 -0.1432  0.0858 -0.1808
 8401W        W26605  13.577  11.920  11.020 -0.0908 -0.0358  0.3379
 8402W        W26606  10.935  18.246  10.833  0.0596  0.0444 -0.0820
 8403W        W26607  10.962  11.728   0.686 -0.1623  0.1753  0.3701
 8404W        W26608  11.705  17.433   2.092 -0.0927 -0.0652 -0.0021
 8405W        W26609   9.767  12.830   2.545 -0.3244 -0.0156  0.3041
 8406W        W26610  10.738   5.987  13.893 -0.1952  0.2028  0.0628
 8407W        W26611  13.079   8.630  11.203 -0.1497 -0.0399 -0.0361
 8408W        W26612   2.920  16.074  11.298  0.0428  0.0368 -0.3928
 8409W        W26613   0.106   8.647   3.689 -0.1974 -0.1628  0.0714
 8410W        W26614   0.903  13.863   3.859 -0.2201 -0.1236 -0.1390
 8411W        W26615  17.694  17.344   4.842 -0.0225  0.1965  0.1014
 8412W        W26616   4.639  13.989   1.673 -0.1664  0.0302  0.2156
 8413W        W26617  13.271  12.913  15.204  0.0093  0.1893  0.0177
 8414W        W26618   8.607   4.238  14.019 -0.1496  0.0356  0.0437
 8415W        W26619  15.770  16.491   2.906 -0.2247  0.3831  0.0829
 8416W        W26620  17.195  13.187   2.709 -0.2547 -0.2052  0.3521
 8417W        W26621   3.153  14.141  13.403  0.0810  0.0039 -0.2280
 8418W        W26622  15.016  12.749  10.691 -0.0714  0.0661  0.0623
 8419W        W26623  14.190  12.265   3.095  0.1101 -0.0781 -0.1891
 8420W        W26624  17.810   7.944  11.569  0.0333 -0.3940 -0.2161
 8421W        W26625   6.535  14.368  14.390 -0.1757  0.0957 -0.1992
 8422W        W26626  10.305   4.068   3.863 -0.0818  0.3363  0.2442
 8423W        W26627   5.944  12.129  12.238  0.1269 -0.0949 -0.0881
 8424W        W26628   1.917   3.575  12.462 -0.1784  0.0582  0.0069
 8425W        W26629  11.382   5.327  13.728 -0.1619 -0.0777 -0.0930
 8426W        W26630   5.395   9.597   2.492 -0.2682  0.0756  0.0365
 8427W        W26631  12.647  10.776  15.198 -0.3863  0.3076  0.0753
 8428W        W26632   3.592   8.661   5.268 -0.0047 -0.2947  0.1268
 8429W        W26633  11.993  14.895  13.580  0.0413 -0.0595 -0.2448
 8430W        W26634  14.875  12.269  13.666  0.6885  0.0633  0.0776
 8431W        W26635  12.897   2.616  15.076  0.1878 -0.3794  0.1008
 8432W        W26636  15.170   3.478  12.580 -0.0251  0.3417  0.2378
 8433W        W26637   8.355   7.413   3.517 -0.1159 -0.0237 -0.1943
 8434W        W26638  15.126   7.121  11.290 -0.4139 -0.0557  0.1807
 8435W        W26639   6.705  10.440  13.739  0.2224  0.0043  0.0273
 8436W        W26640  10.141  12.028   2.576 -0.1470 -0.0595  0.0748
 8437W        W26641  10.416   6.854   2.039  0.1415 -0.0307 -0.0384
 8438W        W26642   0.540   6.084  11.258 -0.1395  0.0087  0.0894
 8439W        W26643   6.338  17.303  14.253 -0.0524 -0.0670  0.0600
 8440W        W26644  10.678   4.828   0.710 -0.0351  0.0072  0.0038
 8441W        W26645   5.098   7.873  14.424 -0.0330  0.1382  0.2513
 8442W        W26646   5.327  13.269  11.464  0.1601  0.3501 -0.0927
 8443W        W26647  12.701  16.514   2.302  0.0913 -0.0001  0.0521
 8444W        W26648   0.154   3.019   2.565 -0.1559 -0.0410  0.0988
 8445W        W26649   4.915  11.393  13.272 -0.2453  0.0964  0.2022
 8446W        W26650  10.302   4.594   2.589 -0.1309  0.2523  0.0431
 8447W        W26651   4.211  16.099  12.115  0.0570 -0.5384  0.1484
 8448W        W26652  15.035   5.821  14.115 -0.1471 -0.0520  0.0603
 8449W        W26653   1.139  15.158   2.536  0.0041 -0.3272 -0.0483
 8450W        W26654   9.336   2.338  12.066  0.2900  0.1869  0.0105
 8451W        W26655   4.932   2.773  11.987  0.0174 -0.0956 -0.2386
 8452W        W26656   4.668   9.482  14.835 -0.2173  0.2187  0.1630
 8453W        W26657  14.385  12.165   5.428 -0.2736  0.0240  0.0602
 8454W        W26658  14.883   4.649  13.715  0.2148 -0.0130  0.3349
 8455W        W26659   5.312   8.393   2.279 -0.0376  0.0370  0.3507
 8456W        W26660  18.200   6.437   9.765  0.1277  0.2081 -0.4538
 8457W        W26661  16.754  10.175  13.057  0.1034  0.1791  0.1830
 8458W        W26662  11.279  18.399  13.000 -0.1181  0.2415 -0.0191
 8459W        W26663   2.287   0.077   2.127 -0.0442  0.5812 -0.1437
 8460W        W26664   4.672   0.169   0.722 -0.1093 -0.1674  0.1321
 8461W        W26665   4.820   0.018  14.443 -0.0953  0.1106 -0.2577
 8462W        W26666  14.196  17.479  14.806  0.2338 -0.1470  0.3180
 8463W        W26667  12.767  13.932   3.053  0.4024  0.1181  0.0141
 8464W        W26668   8.576  17.482   3.423  0.0624 -0.0929  0.0171
 8465W        W26669  17.289  10.746  13.062 -0.0895  0.3052 -0.3347
 8466W        W26670  16.559  10.573   0.860 -0.1146  0.1619  0.3272
 8467W        W26671  11.805  17.901  13.628  0.0544 -0.0492 -0.1774
 8468W        W26672  15.540   4.742   0.665 -0.2031 -0.0094  0.2107
 8469W        W26673  17.600  12.502  12.796 -0.1726  0.2836 -0.0129
 8470W        W26674   5.884   0.652   4.538 -0.5517 -0.0084 -0.1576
 8471W        W26675  15.229   1.339   3.483  0.0208  0.1082 -0.0237
 8472W        W26676   8.651   5.670   3.979  0.3942 -0.1574  0.0303
 8473W        W26677  17.637  11.618   5.923  0.2418  0.1669 -0.2598
 8474W        W26678  14.480  12.526   0.000 -0.0229 -0.2033 -0.2521
 8475W        W26679   1.461   9.647   1.118  0.3014  0.0015  0.0964
 8476W        W26680  13.171   5.178  12.090 -0.1210  0.0894  0.0456
 8477W        W26681  16.660  13.629  12.023 -0.2372  0.1136  0.0748
 8478W        W26682  17.315  14.166   1.657 -0.1765  0.0167  0.1113
 8479W        W26683  17.174   5.332   5.126 -0.3617  0.0223 -0.0238
 8480W        W26684   3.235   2.536   1.685  0.1800  0.0395  0.0581
 8481W        W26685  12.412   9.259  13.108 -0.2674  0.0989  0.0611
 8482W        W26686   0.472   7.302   1.874  0.0019  0.1444  0.1654
 8483W        W26687  10.608  11.428  13.882  0.0939  0.0941 -0.2553
 8484W        W26688  13.898   1.835   1.277  0.3304 -0.1947  0.0356
 8485W        W26689   2.255  14.798   3.484  0.1289  0.1285 -0.4071
 8486W        W26690   7.526  12.924   1.790 -0.2182 -0.1948 -0.1343
 8487W        W26691   4.056  17.317   0.981  0.2302  0.0566  0.0819
 8488W        W26692   9.431   7.208   2.967 -0.1793 -0.1509 -0.1946
 8489W        W26693   1.439  11.668  12.311  0.3173 -0.4347 -0.0917
 8490W        W26694   1.564  13.696   5.161 -0.1109  0.2660 -0.2210
 8491W        W26695   2.352   3.240   0.331 -0.2451 -0.1582 -0.0357
 8492W        W26696   0.541  17.243  13.216  0.0691  0.3096 -0.0957
 8493W        W26697   7.760   4.397   4.234  0.2666 -0.0576  0.0720
 8494W        W26698  14.952   1.634   1.059  0.0299  0.1464 -0.0166
 8495W        W26699  13.998   0.925  12.209  0.1579 -0.0590 -0.0947
 8496W        W26700   7.721   2.817  13.452  0.2539  0.1606 -0.2058
 8497W        W26701   4.340   7.772  12.453  0.2243 -0.0976  0.0494
 8498W        W26702   3.626   7.288   3.784 -0.0355  0.0188 -0.0916
 8499W        W26703  15.188  10.549   0.710  0.1207  0.1622 -0.0292
 8500W        W26704   1.285  11.090  13.458 -0.0683 -0.0360  0.3233
 8501W        W26705  10.432  15.558  13.087  0.1555 -0.0208  0.0394
 8502W        W26706   7.327   9.910   1.605  0.1781  0.0015 -0.2205
 8503W        W26707   3.793   1.608  14.618 -0.3041  0.3727  0.2974
 8504W        W26708   7.528   8.688   0.142  0.0587  0.0880 -0.3848
 8505W        W26709  11.970   0.932  11.184  0.1866  0.0803  0.0536
 8506W        W26710   6.791  17.503  11.857 -0.0959  0.2807 -0.2930
 8507W        W26711  14.544   1.564   3.308  0.0180  0.0001  0.3140
 8508W        W26712  16.892  17.164   3.920  0.0632  0.0755  0.1059
 8509W        W26713   8.758   6.033  13.837  0.0114  0.0725 -0.1118
 8510W        W26714  16.348   9.886  13.980 -0.0916 -0.0430 -0.0412
 8511W        W26715  15.301   1.985   3.013  0.0651  0.1137  0.1231
 8512W        W26716   5.793   9.160   3.802 -0.0022  0.1935  0.2798
 8513W        W26717  13.517  10.296   4.389  0.1052  0.1333 -0.1344
 8514W        W26718   5.047   3.037  14.575 -0.1019  0.2099  0.0923
 8515W        W26719   3.812   4.283  13.852 -0.1867 -0.2648  0.0393
 8516W        W26720  15.036   6.276   4.669  0.2046  0.0102  0.1032
 8517W        W26721  15.447   0.127   0.358  0.0540 -0.0078 -0.1320
 8518W        W26722  10.598   0.082  12.214 -0.0866 -0.2202 -0.2270
 8519W        W26723   7.198  18.122   4.506  0.1103 -0.3080 -0.0925
 8520W        W26724   0.934   3.828   2.193 -0.0197  0.0325  0.1656
 8521W        W26725   1.330   8.345  14.829 -0.1626 -0.1712 -0.2028
 8522W        W26726  17.746  17.323  12.831  0.0964  0.1074 -0.2177
 8523W        W26727  17.276   4.792   2.042 -0.2186  0.0473 -0.2775
 8524W        W26728   2.667  16.616  15.211  0.1761  0.3237  0.3411
 8525W        W26729   8.490   9.474   2.983 -0.0072  0.0453  0.0189
 8526W        W26730   7.872  10.695   3.994  0.1505  0.0918  0.1960
 8527W        W26731   4.282  15.072  13.613 -0.1326  0.3164 -0.1108
 8528W        W26732  11.316  13.527   4.147  0.3887  0.0062  0.0916
 8529W        W26733   7.242   7.466  13.456  0.2634 -0.1538 -0.2191
 8530W        W26734  13.509  11.696  12.756  0.0131  0.3489 -0.0823
 8531W        W26735   2.723   6.955   5.206  0.0398 -0.0729 -0.1518
 8532W        W26736  16.552  14.118  11.937 -0.3029  0.0287 -0.1594
 8533W        W26737   4.056  14.192  14.473 -0.0876 -0.1012  0.0867
 8534W        W26738   7.225   5.970  11.866 -0.4627  0.0556  0.1584
 8535W        W26739  12.277  11.689  13.698 -0.1216  0.2255 -0.0362
 8536W        W26740  11.798  11.602  14.704 -0.1409 -0.0475  0.0565
 8537W        W26741  11.487  13.061  14.042  0.2663 -0.1331  0.0541
 8538W        W26742  11.991  17.521  12.094 -0.0832  0.3470  0.0140
 8539W        W26743   0.134  10.707  11.653  0.2335 -0.1018 -0.1754
 8540W        W26744   0.392   7.181   0.136 -0.0830 -0.0711 -0.1488
 8541W        W26745  15.068  17.535  13.369  0.0687 -0.1501  0.0091
 8542W        W26746   5.985   2.826  14.704  0.2369  0.2574  0.1134
 8543W        W26747   7.698  14.684  11.750 -0.2879  0.2281  0.1793
 8544W        W26748   5.104   7.133  15.085 -0.0057  0.1597  0.0691
 8545W        W26749   5.583   0.487  13.212 -0.1733  0.0677 -0.5394
 8546W        W26750   4.027   3.014   0.853 -0.2681  0.1024 -0.2488
 8547W        W26751  15.057   8.321   1.199  0.2731 -0.0088 -0.2221
 8548W        W26752   6.029  11.166  11.864 -0.2157  0.1298 -0.2260
 8549W        W26753   9.943   0.501   4.691 -0.0565  0.1655  0.2481
 8550W        W26754   2.311   6.819  14.585 -0.2487  0.0947 -0.0086
 8551W        W26755  14.434  13.102   3.204 -0.0562  0.4736  0.2067
 8552W        W26756  13.422   3.668   4.580  0.1434 -0.0508 -0.1271
 8553W        W26757   1.063  13.962  12.504  0.0764 -0.0441  0.2726
 8554W        W26758   4.373  12.572  13.427  0.2079  0.5478  0.1609
 8555W        W26759   2.940   5.621   0.684 -0.0994 -0.4404 -0.2191
 8556W        W26760   6.111   4.520  12.986 -0.1562 -0.0250  0.0652
 8557W        W26761  12.033   8.990  14.972 -0.1092 -0.2730 -0.1281
 8558W        W26762  15.684   1.433  13.665 -0.1653 -0.1627  0.0239
 8559W        W26763  15.670   1.272  15.015  0.1324  0.1406  0.0067
 8560W        W26764   8.262   6.992   1.774  0.1045  0.1317  0.1176
 8561W        W26765  15.145  12.638  10.199  0.0432 -0.1054 -0.0972
 8562W        W26766  11.579   9.021  13.836  0.0562  0.0738  0.2903
 8563W        W26767  18.169  15.046  12.680 -0.1801  0.0633  0.0611
 8564W        W26768  12.539   1.732   4.438 -0.0427 -0.0797 -0.1031
 8565W        W26769   4.493  10.658  14.168  0.0662 -0.1132  0.0932
 8566W        W26770   1.092  13.614  12.941 -0.1391  0.0455  0.4260
 8567W        W26771   2.650   3.254  15.375 -0.0314  0.1626  0.2358
 8568W        W26772  13.973   9.769   3.831  0.4001 -0.0673  0.2108
 8569W        W26773  18.357  17.377  11.566  0.1086 -0.0254 -0.1333
 8570W        W26774   8.623   4.321  11.668  0.0343 -0.0900 -0.0057
 8571W        W26775  17.859   0.179  10.887  0.3058  0.2723  0.1618
 8572W        W26776   5.991   5.638  15.312  0.3707 -0.0354 -0.1755
 8573W        W26777   1.090   1.949  11.983 -0.2572 -0.1449  0.4500
 8574W        W26778  18.200   6.685   0.556 -0.4011  0.0807 -0.0604
 8575W        W26779   2.508  18.578   0.168  0.0986  0.1787 -0.2047
 8576W        W26780  10.278  18.153  12.298 -0.3428  0.0590  0.0768
 8577W        W26781   6.500   2.933   4.473  0.0514 -0.2852  0.0904
 8578W        W26782   4.884  14.175  11.273 -0.0427  0.1124  0.0725
 8579W        W26783   7.774   7.245   0.296 -0.1584  0.0448  0.3910
 8580W        W26784   4.050  11.451  13.962 -0.1420 -0.2811  0.0750
 8581W        W26785  12.535   2.652  12.626 -0.1945 -0.0784  0.0893
 8582W        W26786   3.287   1.384   4.075  0.0929 -0.0712  0.3737
 8583W        W26787   7.353  11.985   0.787 -0.0175 -0.2532  0.0919
 8584W        W26788  16.819  10.741  13.263  0.0233 -0.0061  0.0459
 8585W        W26789   2.300  11.041   4.578 -0.1881  0.0246  0.1352
 8586W        W26790  13.106   0.663  13.140 -0.1894  0.1350 -0.1873
 8587W        W26791  11.042   5.902  15.245 -0.1368 -0.1875 -0.1709
 8588W        W26792   2.553   0.375  14.466 -0.2840 -0.0239  0.1327
 8589W        W26793   3.431   0.839   4.788  0.1234  0.0953  0.0266
 8590W        W26794  17.329   7.967  11.385  0.1566 -0.1641 -0.1396
 8591W        W26795   0.796   8.513  14.472  0.2121 -0.1409  0.1929
 8592W        W26796   0.246   8.407  13.495 -0.0846  0.0966 -0.0801
 8593W        W26797   6.088  16.896   4.240 -0.0430  0.1732 -0.3639
 8594W        W26798   0.119  16.730   3.124  0.3289 -0.1371  0.3392
 8595W        W26799   5.824   1.180  15.139 -0.3764 -0.0456  0.1336
 8596W        W26800   7.175  11.112   3.218 -0.2123 -0.0451 -0.2766
 8597W        W26801  13.212  15.976  11.152  0.0966 -0.0521 -0.1757
 8598W        W26802   5.789   1.101  12.351  0.0840  0.2833 -0.0311
 8599W        W26803   5.696  11.765   2.097  0.1525  0.0096  0.1101
 8600W        W26804   9.319  12.489  11.306  0.0568  0.1007  0.0244
 8601W        W26805  10.960  12.063  11.700 -0.2835 -0.1769  0.2060
 8602W        W26806   7.193  13.392   3.807  0.0998  0.1815  0.0669
 8603W        W26807   5.831  17.039   1.093  0.0163 -0.2459 -0.3135
 8604W        W26808   7.335  16.964  11.681 -0.0473  0.0476  0.0445
 8605W        W26809  16.506   2.424   2.526  0.2858 -0.1162 -0.1917
 8606W        W26810  11.218   6.446  15.161 -0.1017  0.0008  0.2788
 8607W        W26811   4.918  13.531  11.909  0.1538  0.1075 -0.2356
 8608W        W26812   5.063  16.282  12.503 -0.3466 -0.0864 -0.0924
 8609W        W26813   4.699   2.040  14.716 -0.0013  0.2785  0.2361
 8610W        W26814  17.202  15.189   1.027  0.2605 -0.3232 -0.0139
 8611W        W26815   5.332   3.427  15.203 -0.2825  0.3109 -0.0315
 8612W        W26816   0.937  15.847   2.278  0.1202  0.1408  0.0073
 8613W        W26817  14.388  12.113   4.036  0.4988 -0.3130 -0.3746
 8614W        W26818  16.071  18.142  11.766  0.0345 -0.2930 -0.0821
 8615W        W26819  12.286   5.468   0.871 -0.0988 -0.1064 -0.3166
 8616W        W26820   9.002  11.204  15.448  0.1828  0.3808  0.1020
 8617W        W26821   7.565  10.772  12.121 -0.0398 -0.1835  0.0426
 8618W        W26822  12.907   0.556   2.358  0.0013 -0.1342 -0.0149
 8619W        W26823  18.247   4.164  13.570  0.3801 -0.1130 -0.0288
 8620W        W26824  12.324   5.085  11.443 -0.0262 -0.0245 -0.0878
 8621W        W26825   0.092   2.759  14.426 -0.2869  0.0656  0.0758
 8622W        W26826   0.186  13.449   0.499 -0.1110  0.1347  0.1413
 8623W        W26827   4.693   7.091  11.945  0.3969 -0.0994 -0.4592
 8624W        W26828  15.356  10.583  14.984  0.0870  0.2308 -0.3991
 8625W        W26829  13.014   0.075  11.951  0.3272  0.0426 -0.2817
 8626W        W26830  14.045  14.767   1.336 -0.3743  0.2557 -0.1366
 8627W        W26831  10.703   0.562   0.494 -0.0385 -0.3060  0.0990
 8628W        W26832  17.926  16.697  14.630 -0.0666 -0.0365  0.1396
 8629W        W26833  14.137   6.123  12.260 -0.0899 -0.1441 -0.0817
 8630W        W26834  13.742   5.276  13.187  0.1408  0.2351 -0.1619
 8631W        W26835   3.852  10.803  12.817 -0.3439 -0.2476 -0.2995
 8632W        W26836   1.893  14.087   2.893 -0.0230  0.0182 -0.0711
 8633W        W26837  11.913   1.845   5.200 -0.0795  0.1034  0.0515
 8634W        W26838  17.561   3.071   1.953  0.0048 -0.2760  0.0720
 8635W        W26839  12.434   2.717  14.344 -0.2177  0.1926  0.0781
 8636W        W26840  13.045  11.171   1.552 -0.1474 -0.0883  0.2501
 8637W        W26841   8.306   2.602  13.623  0.0681  0.1299 -0.1164
 8638W        W26842   6.093  10.382  12.850  0.2612 -0.1508 -0.0327
 8639W        W26843  10.761   7.889   4.803 -0.0499  0.0021  0.0208
 8640W        W26844  13.657   0.628  11.886  0.1420 -0.0770  0.1154
 8641W        W26845   5.165  12.715   2.992 -0.2243  0.1329 -0.1248
 8642W        W26846   6.966   0.958  13.618 -0.1438  0.2646  0.1435
 8643W        W26847  17.433   2.867   3.843  0.0218 -0.1819 -0.0952
 8644W        W26848   0.887   6.253   2.587  0.1594 -0.0117  0.2344
 8645W        W26849   6.449   5.246   1.387  0.0383  0.0489 -0.0656
 8646W        W26850   7.172   4.447   3.439 -0.3971  0.0562  0.0497
 8647W        W26851   0.697   4.765   2.041 -0.0669  0.2779 -0.1467
 8648W        W26852  10.140   6.754  11.991 -0.0110 -0.3638  0.2340
 8649W        W26853  12.357   4.910  12.994  0.0067 -0.1924  0.1978
 8650W        W26854  10.511  10.523  15.056  0.3137  0.2792 -0.0632
 8651W        W26855  14.704   6.799   3.351 -0.1078 -0.2810  0.2719
 8652W        W26856   3.447   3.662  10.874  0.1832  0.3491 -0.1885
 8653W        W26857   7.895   5.587   1.438  0.0431  0.2137  0.2093
 8654W        W26858  11.454   7.966   3.520 -0.0537  0.3304  0.0078
 8655W        W26859  10.194  11.374  10.989  0.1080  0.1610  0.1383
 8656W        W26860  13.267  17.845  12.401  0.1731 -0.2617  0.2493
 8657W        W26861   9.721  12.528  13.621  0.0201  0.1353  0.4964
 8658W        W26862  15.618  14.120   1.447  0.0718  0.1228 -0.0447
 8659W        W26863   8.231   9.268   1.262 -0.2395  0.2412  0.0302
 8660W        W26864   5.211   0.052   3.448  0.0212  0.0249 -0.3085
 8661W        W26865  11.996   4.854   1.317  0.2013  0.0151 -0.0565
 8662W        W26866   2.704  13.054  13.580 -0.2994  0.0704 -0.0559
 8663W        W26867   1.937   0.734   4.638 -0.1000 -0.0557  0.0995
 8664W        W26868   4.825  17.412   2.908  0.1700 -0.0623  0.1277
 8665W        W26869   9.193  10.101  13.208  0.1551  0.1814  0.0823
 8666W        W26870   7.075   8.508   2.576  0.0886  0.4656 -0.1911
 8667W        W26871  14.444   8.720   1.119 -0.2198 -0.3419 -0.2474
 8668W        W26872  12.441   5.710  12.491  0.0562  0.2199 -0.2058
 8669W        W26873   4.993   6.713  10.851 -0.0504 -0.1923 -0.1368
 8670W        W26874   2.713  10.969   3.687  0.0385 -0.2041  0.0984
 8671W        W26875   1.122   8.146   0.206 -0.0241 -0.0520  0.1731
 8672W        W26876  13.425   4.039  12.734  0.0549  0.1771 -0.1195
 8673W        W26877  12.881  10.427  12.999  0.1539  0.3481 -0.1704
 8674W        W26878  14.254  18.365   3.280 -0.3202  0.1689  0.1759
 8675W        W26879   4.160   0.563   4.889  0.2630  0.2024 -0.0508
 8676W        W26880  16.573  10.576   1.442  0.2839 -0.0867 -0.2846
 8677W        W26881   5.817   0.582  12.658  0.4225 -0.1227 -0.0991
 8678W        W26882   6.396   3.606   3.896  0.0333  0.4452  0.2835
 8679W        W26883   9.588   4.925  11.821 -0.2823 -0.2574 -0.0364
 8680W        W26884   2.887   6.668  14.935  0.2179  0.2164 -0.2342
 8681W        W26885   3.887   9.575   2.951  0.1622  0.1848  0.1339
 8682W        W26886  10.088   4.573   4.078  0.1587  0.2957 -0.1210
 8683W        W26887   0.878   9.316  13.441  0.3394  0.4909  0.0380
 8684W        W26888  17.297  12.114  12.646 -0.3053  0.3867  0.1661
 8685W        W26889  10.819   8.236  15.265  0.2057  0.0253 -0.1897
 8686W        W26890  11.893  11.482   0.183  0.1986  0.0501  0.1698
 8687W        W26891   8.199   6.758   0.799 -0.3777 -0.0932 -0.1819
 8688W        W26892   7.466   2.137   3.096  0.0881  0.3000  0.2476
 8689W        W26893   3.910   8.852   3.508 -0.4579 -0.2076 -0.1721
 8690W        W26894  14.005   7.067   5.787  0.2569 -0.1330  0.1404
 8691W        W26895   0.675   4.175   1.824 -0.4587 -0.2360  0.0750
 8692W        W26896  13.289   7.644   2.182 -0.1924 -0.0450 -0.0269
 8693W        W26897  12.973  14.313  11.789 -0.1312 -0.0014  0.0281
 8694W        W26898  15.634   6.796  14.629  0.1983  0.1882 -0.0932
 8695W        W26899  12.711   8.475   0.069  0.0517 -0.2627  0.0066
 8696W        W26900   2.568   0.060  11.397 -0.0868  0.0528  0.1558
 8697W        W26901  17.484   5.174   3.074 -0.2364  0.2285 -0.2658
 8698W        W26902  13.347   2.822   0.285  0.0531  0.2818  0.3736
 8699W        W26903   6.488   4.730  14.565  0.0623 -0.0816 -0.1961
 8700W        W26904   2.172  10.640  15.269  0.0879  0.2919  0.2427
 8701W        W26905   4.499   9.374  15.274 -0.1809  0.1348 -0.3089
 8702W        W26906  18.283   4.829   0.883 -0.0502  0.0260  0.0541
 8703W        W26907  10.886   0.232   2.426 -0.0890  0.0654 -0.0872
 8704W        W26908   9.945   1.553  11.494 -0.0638 -0.1677 -0.0071
 8705W        W26909  10.416   4.006  13.957  0.2421  0.1674  0.1193
 8706W        W26910   7.920  17.911   0.982 -0.0203  0.0020 -0.0488
 8707W        W26911   9.731  15.539   4.498 -0.0933 -0.0402 -0.1009
 8708W        W26912   9.397  17.758   0.164 -0.1282  0.0834  0.0261
 8709W        W26913   8.777   7.174   3.834  0.0566 -0.0218  0.2497
 8710W        W26914   2.788  14.899   3.842 -0.2493  0.1307  0.0235
 8711W        W26915   9.579   4.916   1.626  0.0770  0.2539  0.0503
 8712W        W26916  15.638  11.287   0.240  0.0041 -0.2566  0.4422
 8713W        W26917  17.251   4.874  14.786 -0.0450 -0.0248  0.2612
 8714W        W26918   2.538  18.170  13.456 -0.0360 -0.0360 -0.0310
 8715W        W26919   4.547   3.383  12.427 -0.3658 -0.0699 -0.2356
 8716W        W26920   9.606  16.095  13.950 -0.1855 -0.0614 -0.0659
 8717W        W26921  15.615  11.219   2.647  0.2096  0.1278 -0.1341
 8718W        W26922   2.440   5.705  10.855  0.0209  0.1223 -0.1110
 8719W        W26923  17.575   8.009   3.913 -0.1002 -0.0248  0.2426
 8720W        W26924  10.659  10.252  10.958  0.3256 -0.0733 -0.1636
 8721W        W26925   2.171   5.346  12.389  0.0555 -0.0459  0.1682
 8722W        W26926  17.786   4.006   1.067  0.0632  0.1268 -0.1791
 8723W        W26927   4.972   9.457  10.795  0.3170 -0.1132 -0.1074
 8724W        W26928  12.022  16.302   1.972  0.2148  0.0859 -0.1036
 8725W        W26929   2.459  13.904  12.963 -0.1335 -0.1828  0.1271
 8726W        W26930  11.268   6.484  12.363 -0.0858 -0.1931  0.3252
 8727W        W26931  17.402   9.397  12.691 -0.0726 -0.1430  0.2752
 8728W        W26932   7.367   4.912   0.754  0.0371 -0.2263  0.1377
 8729W        W26933  10.183  17.866   1.784 -0.0059 -0.0015  0.3375
 8730W        W26934  16.746  18.446   1.033 -0.3780  0.1094 -0.2209
 8731W        W26935  15.619   4.852   1.120 -0.0561  0.0378  0.0926
 8732W        W26936  17.656  14.210   4.390 -0.0496 -0.1705 -0.1972
 8733W        W26937  16.185  12.857   0.116 -0.0673 -0.0830 -0.0113
 8734W        W26938  12.257   5.455   2.406 -0.2475 -0.0541 -0.1284
 8735W        W26939   7.610   0.520   3.707 -0.0238  0.0795  0.1622
 8736W        W26940   7.457   9.148  12.853  0.0779  0.0611 -0.1753
 8737W        W26941   9.334  18.554   0.212  0.0310 -0.0217  0.0535
 8738W        W26942   6.653  10.314  12.883  0.3507 -0.1817  0.0874
 8739W        W26943  18.362  16.811  12.345  0.1227  0.1241  0.1136
 8740W        W26944   5.665  11.685  14.635  0.0350 -0.2059 -0.1081
 8741W        W26945  11.548   6.757  13.918  0.2239  0.0387  0.4692
 8742W        W26946   6.993  18.388   4.060  0.1004 -0.3293 -0.0139
 8743W        W26947  18.477  15.911  11.439 -0.1688  0.2878 -0.2045
 8744W        W26948   8.258   2.212   3.756 -0.0935 -0.0149  0.2346
 8745W        W26949   6.415  12.096  13.074 -0.1484 -0.1574 -0.0413
 8746W        W26950   2.326  16.825   5.406 -0.1432  0.0516  0.2389
 8747W        W26951  15.995  13.464   3.585 -0.0399  0.3090  0.0584
 8748W        W26952  18.128  11.823   4.212  0.2194  0.0956 -0.0431
 8749W        W26953  12.883  13.406  13.433  0.0952  0.1376  0.0921
 8750W        W26954   7.621  14.907  14.977  0.1563 -0.3119  0.0159
 8751W        W26955   7.184  12.677   0.690  0.2172  0.1158  0.1332
 8752W        W26956  17.910  16.517  15.340 -0.1672  0.4017 -0.1928
 8753W        W26957   6.792   3.318   4.252 -0.0302 -0.0410 -0.0917
 8754W        W26958   4.142  12.947  10.096  0.0828  0.0740  0.0654
 8755W        W26959  17.284  11.857   4.379  0.1210  0.0134 -0.1699
 8756W        W26960  14.626  12.927   1.417 -0.1359 -0.0448  0.4574
 8757W        W26961   2.779  14.331   5.079 -0.0988  0.1125  0.3281
 8758W        W26962  13.108   2.587  13.918 -0.1153 -0.0019 -0.0484
 8759W        W26963  12.259  11.859  11.035  0.0180 -0.0565  0.2082
 8760W        W26964  15.532   2.686   4.535 -0.1940 -0.1288  0.1880
 8761W        W26965   7.779   4.034   2.991 -0.0167  0.0513 -0.0595
 8762W        W26966   9.692   3.600   3.320  0.2830  0.1539  0.2125
 8763W        W26967  12.061   3.325  11.564  0.1559  0.1876 -0.0589
 8764W        W26968  12.468   8.479  12.101  0.1985 -0.2338 -0.0087
 8765W        W26969   6.284  11.109  14.293 -0.0186  0.0332  0.2387
 8766W        W26970   3.103  12.627  13.642 -0.2598 -0.0094  0.0585
 8767W        W26971   4.372   4.174   1.200  0.1300 -0.1225 -0.1466
 8768W        W26972   9.390  16.792  11.941 -0.0881 -0.0454  0.3358
 8769W        W26973   7.661  15.510  12.364  0.0627 -0.4634 -0.2688
 8770W        W26974  17.207   5.728  11.288  0.1370  0.2933 -0.3608
 8771W        W26975  18.170   8.562  13.795  0.2515 -0.0010 -0.0168
 8772W        W26976  12.400   7.233  12.141 -0.0877 -0.1301  0.0791
 8773W        W26977  17.937  12.364   0.989 -0.5295 -0.1450 -0.0945
 8774W        W26978   3.900  14.495   1.751  0.1274 -0.0104  0.1576
 8775W        W26979  10.078   4.730   3.552 -0.1941 -0.2328  0.0018
 8776W        W26980  15.098   4.633   1.071 -0.2235  0.0124 -0.1530
 8777W        W26981  17.168   3.679  14.790  0.1409  0.0028  0.1581
 8778W        W26982  15.451  16.937   2.932 -0.4577  0.0858  0.1645
 8779W        W26983   2.330  14.853   0.823  0.0796 -0.1628 -0.2052
 8780W        W26984   4.061   3.020  11.647  0.0529  0.1089  0.0568
 8781W        W26985   7.975   1.829  11.225  0.0770 -0.0526  0.0265
 8782W        W26986  16.973   8.895  12.047  0.0980 -0.1269  0.4546
 8783W        W26987   2.883   5.697  10.485  0.3519 -0.0272 -0.0219
 8784W        W26988  17.665   6.131   1.179 -0.1925 -0.1279  0.1060
 8785W        W26989   9.264   7.596   4.253 -0.0645 -0.0523 -0.2819
 8786W        W26990  17.698  10.231  13.761  0.2097  0.0283 -0.1268
 8787W        W26991   2.200  18.459   5.075 -0.3924 -0.0849  0.0465
 8788W        W26992  12.177   7.688  13.055  0.0710  0.0416 -0.0511
 8789W        W26993   8.434  10.474   5.598  0.0490 -0.1479 -0.2366
 8790W        W26994  17.896   4.635  10.729 -0.1045 -0.2460  0.1983
 8791W        W26995  14.809  12.109  13.152  0.0644  0.0438  0.0797
 8792W        W26996  11.061   3.680   1.631 -0.3965 -0.1313 -0.1854
 8793W        W26997  16.322   9.405   2.891 -0.2158  0.0275 -0.0276
 8794W        W26998  13.429  14.573  15.034  0.2398  0.0814  0.0521
 8795W        W26999   6.264   4.881   1.677 -0.0700 -0.1212  0.3475
 8796W        W27000  17.651   6.261  14.176 -0.1496  0.0721 -0.1749
 8797W        W27001  14.450  10.107  13.067 -0.0762 -0.2030 -0.1064
 8798W        W27002  13.737  15.361  11.769  0.0629 -0.0946 -0.2534
 8799W        W27003  10.510  15.768   2.201 -0.0305  0.0684 -0.0279
 8800W        W27004   4.211   1.794  14.657  0.0499 -0.0428 -0.0193
 8801W        W27005   9.029  18.091   1.028  0.1243 -0.0935 -0.0967
 8802W        W27006  15.883  11.710   4.814  0.0358  0.0061  0.4377
 8803W        W27007   5.422  14.462   3.516  0.0042  0.2001  0.0781
 8804W        W27008  15.498   6.321  11.989 -0.0659  0.1988  0.0116
 8805W        W27009   3.237  11.075   0.599 -0.1428 -0.0960 -0.1620
 8806W        W27010   4.273  11.882  15.162  0.1578  0.3057 -0.1206
 8807W        W27011   4.556  11.249  11.412 -0.0151 -0.1113  0.2348
 8808W        W27012  13.248   7.652  15.265  0.3544  0.4422 -0.0992
 8809W        W27013  12.091   7.851   1.443 -0.0765  0.1925  0.0950
 8810W        W27014  13.108  17.142   2.862 -0.2142 -0.1897 -0.1555
 8811W        W27015   5.035   2.316   4.660 -0.1127 -0.1086  0.1550
 8812W        W27016   6.338   1.482   0.377  0.0420 -0.0641  0.0741
 8813W        W27017   5.001   7.144   0.417  0.3044  0.4210 -0.1438
 8814W        W27018  12.839   3.756  13.653 -0.0002 -0.0738 -0.1577
 8815W        W27019   6.513  10.029   2.990 -0.0378 -0.0046 -0.1199
 8816W        W27020   3.001   7.494   3.590  0.0204 -0.0477  0.0361
 8817W        W27021   1.821  10.799   2.983 -0.1322  0.2241  0.1269
 8818W        W27022   1.506   9.109   3.035  0.2243  0.0992  0.0744
 8819W        W27023   9.530  12.168   2.716 -0.1250  0.0031 -0.3202
 8820W        W27024  17.954  12.098   3.344 -0.3057 -0.0103 -0.1750
 8821W        W27025  10.288   2.551   2.245 -0.0757  0.2952  0.3843
 8822W        W27026   5.188   7.559  14.802  0.3796 -0.4406  0.2938
 8823W        W27027   9.063  12.677   3.391  0.2565 -0.1930  0.0160
 8824W        W27028  16.338   5.135  13.196  0.1961 -0.1064 -0.2247
 8825W        W27029  10.544  12.598  12.448  0.0760  0.0502  0.0995
 8826W        W27030  13.060   1.296  13.148  0.4640  0.3555  0.0934
 8827W        W27031   2.968  18.444   3.366  0.2003 -0.3249  0.1402
 8828W        W27032   2.376  10.871   1.669  0.0579  0.1362  0.0471
 8829W        W27033   4.870   5.153   1.538  0.0835 -0.2434 -0.1206
 8830W        W27034  13.653  15.855   4.588 -0.0440  0.0387  0.3013
 8831W        W27035  16.921   7.540  11.675  0.1103 -0.1622 -0.2976
 8832W        W27036  16.678   6.550  14.240  0.0064 -0.1696 -0.1192
 8833W        W27037   3.457   9.422   2.033  0.2215 -0.0775 -0.3339
 8834W        W27038  14.115  15.146  15.317 -0.1144  0.2383 -0.3773
 8835W        W27039  11.288  10.161  10.685 -0.0619  0.1079 -0.0855
 8836W        W27040  14.530   5.057   0.012  0.2802  0.0309 -0.2045
 8837W        W27041  16.272   7.317  10.780  0.0777 -0.1111  0.1748
 8838W        W27042  14.209   7.987   4.063 -0.0389  0.0530  0.2086
 8839W        W27043   8.647  16.255  14.724 -0.2531  0.0405 -0.0775
 8840W        W27044  12.513   8.978   0.492 -0.2165 -0.2304  0.1166
 8841W        W27045   6.561   0.348  15.323  0.0170 -0.2795 -0.0384
 8842W        W27046   9.360   9.457   4.923 -0.0444  0.3699  0.1161
 8843W        W27047   8.081  15.105  15.191  0.0398 -0.2635 -0.0723
 8844W        W27048  16.443   2.181   1.582  0.1309 -0.0536  0.0988
 8845W        W27049   6.832   7.383   1.782 -0.0149 -0.1217  0.2635
 8846W        W27050  10.765   9.295  12.428 -0.0289  0.0541 -0.0587
 8847W        W27051  12.488   9.729  15.270  0.0703  0.2160  0.2182
 8848W        W27052  14.093   5.051  11.463 -0.1403 -0.2708  0.0963
 8849W        W27053  17.825   0.678   3.119 -0.1070  0.0843 -0.0225
 8850W        W27054   7.976   8.293   3.534  0.1249  0.0687  0.0153
 8851W        W27055   8.223  18.000  14.900  0.0173 -0.0142 -0.1771
 8852W        W27056   9.432  11.732   1.366 -0.0371 -0.0704 -0.1789
 8853W        W27057  15.426  15.736  13.565  0.0325  0.0904  0.0332
 8854W        W27058  12.140  14.886  13.072  0.0838  0.1597 -0.1551
 8855W        W27059  15.487   6.602  12.433 -0.0514  0.2287 -0.0648
 8856W        W27060   3.332  17.302   0.415  0.0681  0.3146  0.1209
 8857W        W27061   2.702   7.517   0.138 -0.0506 -0.3420  0.3089
 8858W        W27062  10.629   6.652  10.735 -0.2216 -0.1309 -0.1924
 8859W        W27063  17.901   8.786  15.346 -0.1833 -0.3132  0.2076
 8860W        W27064  11.361   5.032  11.741  0.2828 -0.0051  0.2895
 8861W        W27065  13.921   6.827   3.952  0.1195  0.3310  0.0445
 8862W        W27066  12.279  17.713   4.474 -0.2979  0.2004 -0.1673
 8863W        W27067  12.426   5.894   1.211  0.2713 -0.3819  0.0596
 8864W        W27068   3.638   0.380   3.911 -0.1564  0.0142  0.0866
 8865W        W27069  13.812  11.723   3.502 -0.0633  0.0347  0.0860
 8866W        W27070   8.945   8.991  15.205 -0.1901 -0.2455  0.1778
 8867W        W27071  14.113   9.005  13.269 -0.2431 -0.1223 -0.1420
 8868W        W27072   4.998  16.633  15.434 -0.1462 -0.0752  0.0865
 8869W        W27073  10.448  13.140  12.550  0.2133 -0.2533 -0.0842
 8870W        W27074  16.499  13.772  10.983  0.0983  0.1830 -0.2937
 8871W        W27075  16.191   2.535  10.733  0.1468 -0.2699  0.0084
 8872W        W27076  10.400   1.152   1.278  0.1241 -0.2763  0.0417
 8873W        W27077   4.297   2.593  11.792 -0.3446  0.1520 -0.0999
 8874W        W27078   8.635   4.056   4.626 -0.3900  0.1977 -0.1308
 8875W        W27079   8.276   3.693   3.730 -0.0132 -0.1782  0.0333
 8876W        W27080   6.715  18.585   0.141  0.1983  0.3785  0.0182
 8877W        W27081   5.339  16.307   4.839 -0.2656 -0.1638  0.1920
 8878W        W27082   4.488  15.684  12.927 -0.3920 -0.2855 -0.2024
 8879W        W27083   6.942  12.731   3.281  0.1295  0.2554 -0.1951
 8880W        W27084   3.059  15.821   3.759 -0.0699 -0.0288  0.0760
 8881W        W27085  11.715   6.950   2.509 -0.3886  0.0187  0.0664
 8882W        W27086   1.250   1.904  13.239 -0.1601  0.0338  0.2510
 8883W        W27087   5.798   5.525  11.714  0.0445  0.1867  0.0776
 8884W        W27088  13.353  11.304   4.252 -0.0372  0.0137  0.1267
 8885W        W27089   8.855  10.300   3.040 -0.0390  0.2738 -0.1518
 8886W        W27090   4.580   9.444  13.349  0.3428 -0.1346  0.2847
 8887W        W27091  10.284   3.696   2.518 -0.1961 -0.1920 -0.1693
 8888W        W27092   1.665   9.505  10.774 -0.0183 -0.1017 -0.0631
 8889W        W27093   3.050  11.169   1.639 -0.1301 -0.1399  0.1119
 8890W        W27094   5.819  16.622  13.232  0.2813  0.0472  0.1878
 8891W        W27095   2.077  18.094  12.755 -0.2584  0.0889  0.2918
 8892W        W27096   6.868  11.874   2.109  0.1097 -0.0710 -0.0027
 8893W        W27097  14.851  14.366   3.569 -0.0286  0.0555 -0.2867
 8894W        W27098  16.572   3.666  12.047 -0.0214 -0.3366 -0.1305
 8895W        W27099  10.117  11.139   1.136 -0.1792 -0.0222  0.0041
 8896W        W27100  13.612  11.781  13.552  0.1232  0.0458  0.0476
 8897W        W27101   5.228  10.226  14.430  0.0904 -0.2979  0.0895
 8898W        W27102  12.024  10.867   3.592 -0.1134  0.0114 -0.0437
 8899W        W27103  12.871   0.776  11.274  0.0567 -0.0869 -0.2255
 8900W        W27104   2.364  10.274   4.073  0.4694 -0.0316 -0.1097
 8901W        W27105  14.686  13.282  11.348  0.0787  0.1309  0.3976
 8902W        W27106   2.808  15.240  14.552  0.0322  0.1855 -0.2633
 8903W        W27107  12.466   2.584   5.432 -0.0100 -0.1780  0.1167
 8904W        W27108  13.296  11.835   4.170  0.0496  0.1513 -0.1227
 8905W        W27109  16.652   0.739  12.424  0.1169 -0.0554  0.0373
 8906W        W27110  12.242   5.517  10.783 -0.0037  0.1324 -0.0798
 8907W        W27111   9.495  18.220  11.610 -0.0557 -0.0591  0.1604
 8908W        W27112  11.107   2.979   2.357  0.0948  0.0696  0.2029
 8909W        W27113   9.829   8.645   1.307  0.2365 -0.2541  0.0222
 8910W        W27114  12.326  15.725  12.268  0.1192 -0.1387 -0.0310
 8911W        W27115   3.587  18.198  13.653 -0.1276 -0.1354  0.1061
 8912W        W27116  16.706  17.595  14.095  0.0478  0.1265 -0.3315
 8913W        W27117  15.755   4.952   0.224 -0.0389 -0.0011 -0.1917
 8914W        W27118   5.237  11.114  13.877 -0.3829 -0.0765  0.2855
 8915W        W27119   0.612   9.042  10.695 -0.3739 -0.0226 -0.0037
 8916W        W27120  16.800  17.314  13.059  0.0214 -0.0699  0.1378
 8917W        W27121   5.442  10.514  12.231 -0.3152  0.0535  0.1952
 8918W        W27122   6.525   5.564  12.196 -0.4258  0.2184 -0.1617
 8919W        W27123   6.275  17.197   0.898 -0.1408 -0.1392 -0.1762
 8920W        W27124   5.288   8.068   0.923 -0.0402  0.0133  0.0188
 8921W        W27125  12.733   3.487   4.171 -0.0593  0.2294  0.1819
 8922W        W27126   8.590  17.303  12.067 -0.1649  0.2446  0.1491
 8923W        W27127  16.153   3.281   0.071  0.0340  0.1716  0.1028
 8924W        W27128  18.125   5.306   2.159 -0.2092  0.0509 -0.0718
 8925W        W27129   6.127   8.826  10.701  0.1908 -0.2290 -0.2011
 8926W        W27130   6.734   3.240  15.026  0.0745  0.3379  0.2827
 8927W        W27131  11.697   4.465  13.807 -0.1463  0.1485  0.0354
 8928W        W27132   6.816   2.626   2.723 -0.0616 -0.0833  0.0215
 8929W        W27133  17.011  11.729   3.456 -0.3877 -0.1850  0.1848
 8930W        W27134  15.716   6.927  13.223 -0.1012  0.2927 -0.0931
 8931W        W27135   8.597   2.174  13.602 -0.0643 -0.1542  0.2062
 8932W        W27136  12.079  11.133   1.997  0.1753 -0.0988  0.4844
 8933W        W27137   6.571   3.752  11.523 -0.2547 -0.1045 -0.0660
 8934W        W27138  11.712   5.841   3.738  0.3254 -0.1863 -0.2077
 8935W        W27139  12.794   9.800   3.406 -0.1725  0.0873  0.3664
 8936W        W27140   6.086   2.721  11.486  0.1326  0.0114  0.1300
 8937W        W27141   5.710  17.741  14.741  0.0288 -0.1159 -0.1814
 8938W        W27142  13.083   9.825  14.759  0.0660 -0.0885 -0.1613
 8939W        W27143   5.275  13.607   1.117  0.1428 -0.1807  0.1722
 8940W        W27144   6.151   5.529  12.619  0.1076 -0.1868 -0.0413
 8941W        W27145  16.931   5.534   0.158 -0.1048  0.0786 -0.2103
 8942W        W27146   3.805   4.869  10.324  0.1392 -0.0356 -0.2212
 8943W        W27147   4.085   9.065   9.648  0.1332  0.3871 -0.3264
 8944W        W27148   8.243   4.602   3.470 -0.3342 -0.1677 -0.0874
 8945W        W27149  15.774   6.449  12.834 -0.1669  0.1115 -0.3963
 8946W        W27150   7.105   9.739  13.062 -0.2480 -0.3476 -0.1479
 8947W        W27151  17.419   8.777  11.845  0.1059  0.4050  0.1696
 8948W        W27152  14.390  14.083   1.525 -0.2159 -0.3785  0.0732
 8949W        W27153   6.261   5.854  14.152  0.1666 -0.1751  0.1559
 8950W        W27154   1.958  18.441  14.760  0.0453  0.0337  0.0243
 8951W        W27155  12.442   0.871   1.562 -0.0649  0.0313 -0.3208
 8952W        W27156   0.708   9.686  14.612  0.2126  0.1801 -0.0974
 8953W        W27157   5.494   5.746  15.273  0.0344  0.0741 -0.2639
 8954W        W27158  15.687  14.858  11.906  0.2494 -0.1252 -0.2550
 8955W        W27159   6.990   2.336   0.762  0.0927 -0.0191 -0.0461
 8956W        W27160   4.801   1.668  13.723  0.1737  0.1839 -0.0163
 8957W        W27161   8.237   9.233  11.370 -0.0676  0.0034 -0.2563
 8958W        W27162  10.461  15.936  12.568  0.4339 -0.0654 -0.0543
 8959W        W27163  16.437   5.661  10.581  0.0954 -0.1162 -0.1203
 8960W        W27164   1.758  17.375   0.057 -0.0924  0.0072 -0.2179
 8961W        W27165  18.469   6.284  11.878  0.0771  0.1145 -0.1242
 8962W        W27166  14.258  13.516   9.730  0.0192 -0.0181  0.1262
 8963W        W27167   9.042  16.384  11.112  0.1107  0.1615  0.0759
 8964W        W27168  15.409   0.674  11.972 -0.1864  0.4131 -0.4971
 8965W        W27169   6.504  13.662   4.301 -0.1850  0.0908 -0.1183
 8966W        W27170  15.052  13.096  14.633 -0.0768  0.2573  0.0103
 8967W        W27171   6.987  16.985   1.886  0.1558  0.0517 -0.1454
 8968W        W27172   9.230   5.704   3.963 -0.2878  0.0256  0.2869
 8969W        W27173   7.520   1.469  12.950 -0.1744  0.1162 -0.1687
 8970W        W27174  12.601  16.858   1.532 -0.0219 -0.0663  0.1027
 8971W        W27175   1.968  12.011  11.592 -0.1691  0.2110  0.0138
 8972W        W27176  13.142  17.441  13.152  0.0088 -0.0883  0.1289
 8973W        W27177  17.657  15.312   4.519  0.0533 -0.1402 -0.1442
 8974W        W27178   4.072  11.029  15.450  0.1644 -0.1318 -0.1926
 8975W        W27179  14.759  18.563   3.920  0.1323 -0.3090  0.0568
 8976W        W27180   2.573   6.913  15.321  0.1408  0.0117 -0.0483
 8977W        W27181  16.422  14.937   2.187  0.1313  0.1636  0.1162
 8978W        W27182   3.268  12.858  12.914  0.1832 -0.1148  0.1461
 8979W        W27183   4.017  13.687   0.426 -0.3889  0.1765  0.3173
 8980W        W27184   4.526   4.216  11.009  0.0631  0.3113  0.0202
 8981W        W27185  10.880   2.899  11.836 -0.0103  0.1743 -0.2342
 8982W        W27186   4.756   3.543  11.695 -0.2072  0.1549 -0.0052
 8983W        W27187   2.355   2.611  14.839 -0.4869  0.0242 -0.3256
 8984W        W27188   5.399   1.429   3.014  0.2736 -0.1262 -0.1409
 8985W        W27189  14.093  17.946  13.438 -0.0437 -0.2689  0.2125
 8986W        W27190   0.283   0.782   2.122 -0.0045 -0.1488  0.3398
 8987W        W27191   7.015   1.510   4.235  0.2010  0.0998 -0.2599
 8988W        W27192  11.285   8.709   1.233 -0.2873  0.0641 -0.2399
 8989W        W27193   1.842   4.732   4.167  0.2766  0.4089 -0.1606
 8990W        W27194  10.480   2.479  14.139 -0.0771 -0.1518  0.3611
 8991W        W27195   4.720   0.904  13.797 -0.1778 -0.0463  0.2742
 8992W        W27196   0.165   1.206   1.643  0.1310 -0.3399 -0.0722
 8993W        W27197  14.531  11.911  13.679 -0.1552  0.0654 -0.2357
 8994W        W27198   3.803   9.311  12.973 -0.2760  0.1169 -0.2532
 8995W        W27199  15.018   9.921   2.457 -0.5790 -0.1405 -0.1544
 8996W        W27200   9.388   6.628   2.724  0.1729  0.0307 -0.1549
 8997W        W27201   8.276   9.533   1.981  0.1311  0.0367  0.0353
 8998W        W27202   2.954  10.941  11.883 -0.3345 -0.2830 -0.2558
 8999W        W27203  11.464  11.805  11.647 -0.2715  0.1010 -0.0812
 9000W        W27204   9.537   0.836   1.722 -0.1606  0.1296 -0.3291
 9001W        W27205  11.505  11.211  13.666 -0.0980 -0.1264 -0.1040
 9002W        W27206   9.053   1.224   1.023 -0.0025 -0.2087 -0.1201
 9003W        W27207   6.465  18.191   1.232  0.2577 -0.1107 -0.1799
 9004W        W27208  15.821  17.451  12.758 -0.1794 -0.2135  0.2452
 9005W        W27209  14.113   1.811  15.020 -0.1524 -0.4275  0.2743
 9006W        W27210   6.116  18.022   0.929  0.0252  0.2393 -0.2656
 9007W        W27211   5.010   9.536   1.605  0.2498  0.1236 -0.1050
 9008W        W27212   9.890  16.131  11.585 -0.0097  0.1596 -0.1175
 9009W        W27213  10.031   6.142   0.772  0.2638 -0.2034  0.1146
 9010W        W27214  16.653  16.238   3.687  0.2650  0.0122 -0.1845
 9011W        W27215   7.921   3.558   2.721 -0.0421  0.2984 -0.2103
 9012W        W27216  13.161  15.063  14.232  0.0618  0.1617 -0.0364
 9013W        W27217   3.845   4.524  10.692  0.1923  0.1144  0.0627
 9014W        W27218   3.196   3.199   2.809  0.1366  0.0205  0.1322
 9015W        W27219  14.097  12.733   2.362  0.2220  0.1816  0.0292
 9016W        W27220   1.358  15.071  12.186  0.1616  0.0546 -0.1072
 9017W        W27221  12.944  10.689   0.551 -0.1849  0.2839 -0.1450
 9018W        W27222  11.843   0.282   0.252 -0.1246 -0.0472 -0.0400
 9019W        W27223   0.748   8.636   4.587 -0.0378 -0.0842 -0.0929
 9020W        W27224   6.797   1.587   3.715  0.0274  0.1038  0.1719
 9021W        W27225  14.527  17.995   1.070 -0.0874 -0.2234 -0.1831
 9022W        W27226   4.818  18.195  13.192 -0.0494 -0.0085 -0.0845
 9023W        W27227   8.166   0.898  14.762 -0.0103 -0.1511  0.0671
 9024W        W27228  17.843  11.402   5.444  0.0518 -0.2808  0.2206
 9025W        W27229   4.169   1.981   4.071  0.0033  0.2729  0.1498
 9026W        W27230  17.143   2.688   3.218  0.0765  0.0622 -0.3542
 9027W        W27231  15.563   9.571  14.345 -0.2875  0.2288 -0.0899
 9028W        W27232   4.500  13.396  12.166 -0.0667 -0.0011 -0.1518
 9029W        W27233   9.146  10.596  14.527 -0.2421 -0.0177 -0.0473
 9030W        W27234  13.716  16.053  14.213 -0.1101  0.0269 -0.3406
 9031W        W27235   0.961   5.856   4.071 -0.3210  0.1221 -0.2997
 9032W        W27236  17.441   0.882   2.345 -0.2221  0.2749  0.0488
 9033W        W27237  16.503   1.467  13.467  0.2241 -0.0727  0.0836
 9034W        W27238   0.391   2.222  12.149 -0.2247 -0.1136 -0.1285
 9035W        W27239   6.049   7.800   0.899  0.3309 -0.0111 -0.0082
 9036W        W27240   3.924   5.219   2.470  0.4093  0.0759 -0.2760
 9037W        W27241   4.671   0.271  11.311  0.0816  0.0831 -0.3827
 9038W        W27242   8.307  13.192   2.525 -0.0123  0.1264 -0.0170
 9039W        W27243   0.379   6.778   4.155 -0.0379  0.2320  0.0287
 9040W        W27244  13.231  15.674  11.936 -0.2286  0.0881  0.1471
 9041W        W27245  18.350  16.357  12.058 -0.2426  0.2047 -0.3097
 9042W        W27246  18.384   7.687  12.207 -0.0461 -0.2724  0.0657
 9043W        W27247  17.521   7.993   1.771  0.0907 -0.2084 -0.4469
 9044W        W27248   1.270   5.038  13.782 -0.0956 -0.1948 -0.1872
 9045W        W27249  11.150   9.823  10.263  0.0112 -0.1720  0.3945
 9046W        W27250   3.608   4.901  13.279 -0.1505  0.1789 -0.1463
 9047W        W27251  12.025   1.961   2.445 -0.0151  0.0712 -0.0378
 9048W        W27252  18.114   9.000   0.293 -0.2872  0.3255 -0.2453
 9049W        W27253   9.211   1.376   3.896 -0.0819  0.1742 -0.0311
 9050W        W27254  13.914   0.105   0.653 -0.1660  0.1214  0.0708
 9051W        W27255  10.434   4.605   1.561 -0.1078 -0.2616 -0.0213
 9052W        W27256  10.732   8.420   1.264  0.0460  0.0024 -0.1398
 9053W        W27257   8.837  11.815   3.371  0.0569 -0.1319  0.6009
 9054W        W27258   1.619   3.925  12.913 -0.0004  0.1730 -0.0181
 9055W        W27259   9.266   9.773   1.722  0.3887 -0.0371 -0.3420
 9056W        W27260   3.686  14.332   0.148 -0.4867  0.1354 -0.4171
 9057W        W27261  13.892   6.380   2.773  0.0511 -0.1145 -0.1252
 9058W        W27262  11.591  13.869   2.562 -0.1082  0.0558 -0.0889
 9059W        W27263   4.192  10.054   2.108  0.0284 -0.3725 -0.1659
 9060W        W27264  14.408   4.135  10.554 -0.0142 -0.0978  0.1467
 9061W        W27265   9.455   0.819  12.669 -0.1257 -0.1584 -0.0415
 9062W        W27266   5.388  17.681   2.241  0.2462 -0.1953  0.0585
 9063W        W27267  15.062  10.086   0.028 -0.0609 -0.0330 -0.0216
 9064W        W27268  14.736  12.077   0.879 -0.0637 -0.2514 -0.2866
 9065W        W27269  11.109   5.306  13.014  0.3526  0.2170 -0.1687
 9066W        W27270  18.162  14.138  11.591 -0.0613  0.2504 -0.1599
 9067W        W27271  13.326   9.236   2.665  0.1744  0.0664 -0.0314
 9068W        W27272  11.902   7.365   3.862 -0.0834 -0.1952  0.1394
 9069W        W27273  17.431  13.826   3.541  0.2390  0.0155  0.1290
 9070W        W27274   1.087   9.539  15.403  0.0928  0.3465 -0.1361
 9071W        W27275  11.362  12.599   3.741  0.0489 -0.1965 -0.0717
 9072W        W27276   8.857   8.921   3.895  0.6041 -0.2457 -0.4189
 9073W        W27277   6.417   2.774  13.305 -0.0818 -0.0657 -0.2073
 9074W        W27278   4.389  17.143  15.344  0.2095  0.0129 -0.1016
 9075W        W27279  12.945  12.759   0.804  0.4779 -0.3029  0.5182
 9076W        W27280  11.707  17.589   2.722 -0.1919 -0.1415 -0.1724
 9077W        W27281  17.508   1.328   1.039 -0.1825 -0.0766  0.1647
 9078W        W27282   6.393   5.371  13.080  0.0176  0.0558  0.2930
 9079W        W27283  12.609  10.659   2.328  0.0578 -0.1057  0.1978
 9080W        W27284   3.624   0.473   3.345 -0.3173  0.1722 -0.1720
 9081W        W27285   1.706  12.419   4.333  0.4326  0.2634 -0.0369
 9082W        W27286  11.918   6.340   2.678  0.0372  0.1283 -0.0527
 9083W        W27287  11.450   9.207  12.051 -0.1624 -0.2531  0.2271
 9084W        W27288  13.694  17.473  11.781  0.2271 -0.0869 -0.2311
 9085W        W27289   2.366   0.428   2.994 -0.1445  0.3146  0.1463
 9086W        W27290  18.244  17.483   3.121 -0.2989  0.0003  0.2196
 9087W        W27291   6.265   5.990  12.338 -0.1062 -0.0308  0.1118
 9088W        W27292   3.802  17.361   4.599 -0.0687  0.3242  0.3665
 9089W        W27293  13.737  16.986   4.298  0.3201 -0.0743  0.1461
 9090W        W27294   4.732  14.896   2.443  0.1600  0.2096  0.3558
 9091W        W27295  17.844  10.346  11.648  0.0707 -0.0219  0.1196
 9092W        W27296   9.270  17.352   2.784  0.0429 -0.2966 -0.0809
 9093W        W27297   7.566  13.979   0.437  0.2628  0.0228 -0.1822
 9094W        W27298   6.074   4.443  12.014 -0.0538 -0.2719  0.0215
 9095W        W27299  12.619   9.926   4.487 -0.1142 -0.0333 -0.0959
 9096W        W27300  14.929   3.460   2.923  0.1342  0.0170  0.1530
 9097W        W27301   8.652  16.513  10.733  0.1354  0.0566  0.1595
 9098W        W27302   0.637   5.708  14.865 -0.2504 -0.2549  0.1367
 9099W        W27303  14.845   0.335   1.806 -0.0134  0.0106  0.1789
 9100W        W27304  13.532   6.566  12.504 -0.0980  0.0837 -0.2298
 9101W        W27305  13.880  15.786   0.769  0.0067 -0.1604 -0.0276
 9102W        W27306  15.137   5.621   1.153  0.0389  0.0077  0.1355
 9103W        W27307   9.589  15.632   1.354  0.2293  0.2033  0.2507
 9104W        W27308  16.243   5.086   1.824  0.0615 -0.1287 -0.0254
 9105W        W27309  12.875  17.201   3.934 -0.0986  0.0285  0.1569
 9106W        W27310  15.506  17.782  13.467 -0.2736 -0.2630  0.0329
 9107W        W27311  10.597   6.292  12.469 -0.1492 -0.0631  0.0025
 9108W        W27312   0.781   4.726   3.777  0.0485  0.1613 -0.1401
 9109W        W27313  16.218  10.251   0.736 -0.2724 -0.1222 -0.0325
 9110W        W27314   5.433   6.995   0.252  0.3040  0.1400  0.1068
 9111W        W27315   1.676  16.577   0.787 -0.0546  0.2543 -0.1251
 9112W        W27316  13.637  14.962   3.063 -0.1783  0.2609  0.0556
 9113W        W27317   2.149   1.321   2.757 -0.4030  0.4672 -0.0583
 9114W        W27318  13.483   8.164   1.223  0.0102 -0.1626 -0.1608
 9115W        W27319   5.212   0.558   2.624  0.1156 -0.0061  0.1989
 9116W        W27320  14.577  12.866  11.166  0.2059 -0.1313 -0.0689
 9117W        W27321   1.565  10.670   1.994 -0.3040 -0.0647 -0.0218
 9118W        W27322  16.816   0.166   2.991 -0.2037  0.3063 -0.1416
 9119W        W27323  16.649  14.460   4.705  0.0714 -0.0912 -0.2626
 9120W        W27324  10.741   0.222  12.767 -0.3710  0.0948 -0.1635
 9121W        W27325  14.663   4.454  12.697 -0.1719 -0.0002  0.1320
 9122W        W27326   9.618   9.839   2.902 -0.0539  0.0792  0.2296
 9123W        W27327   6.331   3.156   4.035  0.0840  0.1741  0.0845
 9124W        W27328  14.859   8.342   0.287 -0.2298 -0.0049  0.4055
 9125W        W27329  16.810  15.362   0.751 -0.1728 -0.0255  0.2333
 9126W        W27330   4.802  15.564  15.310 -0.3513  0.1306 -0.1823
 9127W        W27331   8.766   1.787  11.455  0.2958  0.1413  0.0053
 9128W        W27332   1.193  16.120   1.412  0.2930 -0.1250 -0.0301
 9129W        W27333  10.754  15.271  13.382  0.1263 -0.1596 -0.0414
 9130W        W27334  13.703  12.192   1.309 -0.1160  0.0065 -0.1578
 9131W        W27335   9.769   2.994   1.964  0.0863 -0.3514 -0.3024
 9132W        W27336   8.172   0.831   0.185 -0.1983  0.1346  0.1510
 9133W        W27337   3.711   1.737  11.618  0.1983  0.4368  0.0063
 9134W        W27338  14.747  15.437   2.172 -0.3624 -0.1567  0.2065
 9135W        W27339   3.962   7.791  15.433  0.0848  0.1041 -0.0690
 9136W        W27340  10.241  11.305   5.070  0.2673  0.0882 -0.0601
 9137W        W27341   0.362   7.994   2.929 -0.0580 -0.3113 -0.0828
 9138W        W27342  16.637  11.926  13.340 -0.0040  0.0293 -0.3765
 9139W        W27343  11.012  17.678   1.531  0.0415  0.0633 -0.0896
 9140W        W27344  12.783   9.025   0.889  0.1910  0.0547 -0.0385
 9141W        W27345  15.370   1.145   2.941 -0.1893  0.0404 -0.0718
 9142W        W27346  11.723   7.368   0.654 -0.2681  0.0583 -0.2579
 9143W        W27347   1.384  14.450   0.284  0.1804  0.0579  0.1614
 9144W        W27348  11.122   3.331   1.327 -0.1280 -0.0840 -0.5709
 9145W        W27349  12.655  15.140  11.424  0.1960 -0.0863  0.0463
 9146W        W27350  16.613   7.467   1.680  0.3791 -0.0647  0.2143
 9147W        W27351   0.741   7.915  12.862 -0.1384  0.1188  0.1582
 9148W        W27352  11.948  10.284  13.594 -0.0421 -0.2785 -0.1561
 9149W        W27353   1.049   7.847  14.849 -0.0482  0.0495 -0.1244
 9150W        W27354   8.579   8.458  14.202  0.1415  0.2926 -0.1174
 9151W        W27355  10.358   6.308  12.968  0.1508 -0.0839  0.1475
 9152W        W27356   5.635  18.592   3.126 -0.1236 -0.1886  0.0814
 9153W        W27357   2.816  13.502   2.877  0.0644 -0.1826 -0.1283
 9154W        W27358   1.994  10.315   1.974  0.1859 -0.0435 -0.0025
 9155W        W27359  17.733   0.805  15.342  0.1758 -0.0219 -0.0758
 9156W        W27360   0.178  14.442  14.241  0.0769 -0.2328 -0.1190
 9157W        W27361  12.277   1.494  15.023 -0.1155 -0.1903  0.1156
 9158W        W27362   6.985  10.367  12.286  0.1712  0.0357 -0.1739
 9159W        W27363  14.946   0.578  12.362  0.1284 -0.2715  0.2179
 9160W        W27364  11.167  13.843  15.141 -0.1447  0.0555 -0.0879
 9161W        W27365   5.446   6.111   3.642 -0.1251  0.0738  0.2557
 9162W        W27366  10.438  13.645  13.320  0.2703 -0.0333  0.2611
 9163W        W27367  18.165   0.292  11.630  0.3572  0.1809  0.3987
 9164W        W27368  13.038  12.848  14.219  0.0640 -0.0706 -0.2419
 9165W        W27369   9.024   5.958  12.116  0.6252 -0.0386 -0.0299
 9166W        W27370   7.706   3.475  13.347  0.1788  0.1125  0.1191
 9167W        W27371   2.689   1.037   9.721  0.0568 -0.2859  0.0634
 9168W        W27372  10.383  14.981  15.161  0.1056  0.2181  0.1967
 9169W        W27373  13.995   3.674   4.234  0.0556  0.2005  0.0679
 9170W        W27374  13.311   2.639   2.206 -0.0792 -0.0402 -0.1788
 9171W        W27375   1.120   4.348   2.925 -0.1356  0.0868 -0.1247
 9172W        W27376  18.562  13.360   3.155 -0.3857 -0.1134 -0.0628
 9173W        W27377  17.660   7.479   4.044 -0.2398  0.2076  0.4323
 9174W        W27378   6.004   5.456   3.109 -0.0799  0.3713  0.0031
 9175W        W27379   3.309  10.627   2.199 -0.1438 -0.1120 -0.1219
 9176W        W27380  18.330  11.030   4.843  0.0668 -0.4351 -0.0960
 9177W        W27381  12.462  11.055  11.754 -0.0874 -0.1934  0.1812
 9178W        W27382  10.789   4.350  11.260 -0.2870 -0.0018 -0.1669
 9179W        W27383  12.344   3.183   1.110  0.1241  0.2925  0.3286
 9180W        W27384   2.865   8.118  15.168  0.1192  0.1562  0.0423
 9181W        W27385   9.060   4.559   1.908 -0.0523  0.2958 -0.1090
 9182W        W27386   0.079  12.965   0.933  0.3588  0.0979 -0.0864
 9183W        W27387  16.241  11.821   0.894  0.1333 -0.1552  0.1032
 9184W        W27388   1.729   7.066   5.078 -0.0306  0.1280  0.1636
 9185W        W27389   1.228  15.492  11.953 -0.1339 -0.1008  0.1430
 9186W        W27390  12.062  15.860   3.422 -0.1057 -0.3148  0.3100
 9187W        W27391   2.994   8.434  14.792  0.0724  0.0735 -0.1410
 9188W        W27392   2.563   3.059   3.660 -0.2715 -0.0344 -0.3787
 9189W        W27393  11.685  14.958   0.598  0.0707 -0.1038  0.2027
 9190W        W27394   4.204  17.039  11.777 -0.0574 -0.4619 -0.3544
 9191W        W27395  12.336   9.181  11.533 -0.2471  0.0358  0.1366
 9192W        W27396  16.244   4.806  12.855  0.0246  0.1866  0.2106
 9193W        W27397   4.064  11.317  12.138  0.2658  0.2213 -0.2057
 9194W        W27398   5.085  16.754  12.760  0.0620 -0.0480 -0.1583
 9195W        W27399  16.817  18.166  12.549  0.1845  0.0306 -0.1820
 9196W        W27400   0.283   3.638  10.864  0.0921 -0.0792  0.4237
 9197W        W27401   2.210   3.643   0.632  0.0400 -0.1646 -0.1131
 9198W        W27402   3.203   0.436   1.119  0.0880 -0.1161  0.1435
 9199W        W27403   2.807   0.749   2.839 -0.1724 -0.2274 -0.3832
 9200W        W27404  14.453   0.232   4.368  0.0759 -0.0522  0.2517
 9201W        W27405  15.942   4.678   3.835 -0.0315 -0.1113 -0.1857
 9202W        W27406  12.510  17.497  12.099 -0.2415  0.1337  0.2831
 9203W        W27407   4.085  16.018  12.600 -0.0370 -0.1106  0.0444
 9204W        W27408  15.903  15.671   2.347 -0.0765 -0.2123  0.1207
 9205W        W27409  14.466  16.397  12.271 -0.1579  0.2585 -0.2643
 9206W        W27410  13.306   0.097   2.061 -0.0685  0.1996  0.1688
 9207W        W27411   6.954   1.011   0.578  0.0120 -0.0458 -0.0644
 9208W        W27412  17.383   3.719  13.638 -0.1277  0.4693  0.1168
 9209W        W27413   9.510  12.381  11.742 -0.0160 -0.0258 -0.4006
 9210W        W27414   0.408   1.604   0.392  0.1349 -0.0811  0.0924
 9211W        W27415   8.001  15.029   2.714 -0.3291  0.3213 -0.1194
 9212W        W27416  13.945  17.894   3.774  0.2239  0.0474  0.0317
 9213W        W27417  14.685  13.772   0.503 -0.3579 -0.0400 -0.0773
 9214W        W27418   9.122  13.545   4.252  0.0875  0.0360  0.1190
 9215W        W27419  15.222  10.976   2.408  0.1213 -0.0127 -0.0325
 9216W        W27420   8.364   5.786   0.187  0.0656 -0.2752 -0.0660
 9217W        W27421   6.015  15.266   1.792 -0.0040 -0.2071  0.0869
 9218W        W27422   8.208  13.306  13.898  0.1363 -0.2875 -0.0043
 9219W        W27423  18.566   8.125   5.321  0.0347 -0.1361 -0.2873
 9220W        W27424  18.521   4.925   0.109  0.2953 -0.0530 -0.1809
 9221W        W27425  15.648  17.327   1.718 -0.2007  0.1732 -0.0685
 9222W        W27426   7.754  18.017  12.589  0.0216 -0.1241  0.0380
 9223W        W27427  13.476   0.475  13.434 -0.0810  0.0547 -0.1348
 9224W        W27428  13.495   2.618   1.103 -0.0542 -0.2561 -0.1019
 9225W        W27429  17.348  10.514   1.929 -0.0359  0.0152  0.1777
 9226W        W27430  11.233  10.854  14.010 -0.3050 -0.0058  0.1562
 9227W        W27431  18.310  13.299   3.581 -0.0571  0.0080  0.1607
 9228W        W27432  10.697   5.066  14.126 -0.0343  0.2411 -0.1074
 9229W        W27433   7.373   2.984  12.809  0.0407 -0.1848  0.0205
 9230W        W27434   9.709  17.438  15.396 -0.2869 -0.0261  0.0154
 9231W        W27435   7.657  15.168  12.677  0.0352  0.1727 -0.3672
 9232W        W27436   9.016   4.945  13.924  0.0752 -0.1021  0.0335
 9233W        W27437   2.010  12.792  14.635 -0.0170 -0.0595 -0.1235
 9234W        W27438  14.063  11.187   0.194  0.2153 -0.2274  0.3185
 9235W        W27439   0.979  10.544  15.438  0.0204 -0.1631 -0.0416
 9236W        W27440  17.442  11.000   1.069 -0.2274 -0.2441 -0.0402
 9237W        W27441   4.266  11.900  14.321  0.1974 -0.0541  0.0602
 9238W        W27442   1.259  17.099  13.600 -0.0987  0.0826  0.3562
 9239W        W27443   1.902   1.661   1.392 -0.1081 -0.0799  0.2234
 9240W        W27444  13.070   2.827  12.645 -0.1167 -0.2679  0.3978
 9241W        W27445   8.975  13.266   9.936  0.0055 -0.1054  0.1899
 9242W        W27446   9.495  11.004   2.809  0.0500  0.2033  0.0888
 9243W        W27447   5.027  15.575   3.493 -0.0594 -0.3757 -0.2640
 9244W        W27448   8.569   6.560   4.735  0.0059 -0.1342 -0.1582
 9245W        W27449  14.948  12.004   4.207  0.4467 -0.0475 -0.1231
 9246W        W27450  12.635  18.395  11.018 -0.0201 -0.1346 -0.2625
 9247W        W27451   5.353  10.406   1.611  0.2299 -0.3163 -0.0545
 9248W        W27452   7.914  15.785   3.148  0.0192  0.0580  0.2251
 9249W        W27453  14.223  13.450   2.924 -0.1533  0.2865  0.1367
 9250W        W27454   6.133   2.748   0.678  0.1099  0.0206 -0.1855
 9251W        W27455   3.048  13.148   3.678  0.4562 -0.0449 -0.1039
 9252W        W27456   2.653   4.363  14.728 -0.0758  0.0975 -0.1681
 9253W        W27457   5.890  13.712   2.390 -0.1028  0.1143  0.0161
 9254W        W27458  18.545   7.379  12.584 -0.2928  0.1598 -0.2284
 9255W        W27459  17.004   7.947  12.605  0.0917 -0.2190  0.0672
 9256W        W27460  18.465   4.705  12.865 -0.1776 -0.0833 -0.2065
 9257W        W27461   2.447   7.937   4.163  0.0867  0.3957 -0.0211
 9258W        W27462   8.575   0.567  13.036 -0.0391  0.1883 -0.2652
 9259W        W27463  10.182   1.764   2.512  0.0712  0.1611  0.0512
 9260W        W27464   0.137  17.426  14.079  0.1998 -0.2239  0.1791
 9261W        W27465  15.856   1.400   1.655  0.2494  0.2153  0.1227
 9262W        W27466   6.925  10.878  15.031 -0.0066  0.2236 -0.2662
 9263W        W27467  13.476  13.690  11.553  0.3086 -0.0243 -0.2191
 9264W        W27468   3.307  11.683  11.970 -0.0702  0.2728  0.1698
 9265W        W27469   0.481   1.644   1.610  0.3234 -0.1649  0.2681
 9266W        W27470   6.037   8.579   4.027  0.0053  0.1123  0.0856
 9267W        W27471  17.873  14.420  12.547  0.0303  0.1572  0.0806
 9268W        W27472  14.988   6.196   1.505 -0.2420  0.3427  0.0327
 9269W        W27473  14.121  11.358   1.126 -0.0614 -0.0164 -0.0331
 9270W        W27474   5.928   1.661  14.914  0.0769 -0.0516  0.0509
 9271W        W27475   0.527   2.125  13.160 -0.0693  0.2153 -0.2717
 9272W        W27476  13.026   0.197  12.530 -0.0637 -0.0247  0.1533
 9273W        W27477  18.462   7.668   4.565 -0.0097  0.2471  0.0008
 9274W        W27478  12.026  11.650   1.943 -0.0686  0.1695  0.0640
 9275W        W27479   3.332  13.853   1.536 -0.3072  0.1813  0.0931
 9276W        W27480  14.969   2.639   0.245  0.1243  0.3446  0.1865
 9277W        W27481  17.285  11.575  13.724 -0.1263 -0.1907  0.1622
 9278W        W27482   2.954   2.803  10.752 -0.2965 -0.1633  0.1761
 9279W        W27483  13.713  15.960  13.380  0.3692 -0.0685 -0.1431
 9280W        W27484  13.985   1.191  13.134 -0.0330  0.1802 -0.0680
 9281W        W27485   5.011  16.861  14.958  0.1218  0.0774  0.2105
 9282W        W27486  18.126  14.485  14.123  0.0396  0.2740  0.1038
 9283W        W27487   1.862   0.695  14.807 -0.0547 -0.1211  0.0009
 9284W        W27488  14.273   5.233  12.948 -0.0627  0.0606 -0.0200
 9285W        W27489  16.302  11.935  13.775  0.2699 -0.2696  0.0364
 9286W        W27490   5.710  15.766  14.350 -0.0186 -0.4460 -0.0411
 9287W        W27491   6.518   4.510  15.306  0.1681  0.1120 -0.0255
 9288W        W27492  18.318  17.831   2.692 -0.0487 -0.1732  0.1909
 9289W        W27493   1.653  18.274   1.501  0.0129 -0.1571  0.1201
 9290W        W27494   6.013   8.605  10.187  0.2548  0.0715  0.0628
 9291W        W27495   5.659   0.238  14.829  0.1426 -0.2659 -0.2292
 9292W        W27496   4.531  18.604  13.905  0.1442  0.2350  0.0992
 9293W        W27497   1.434  16.261  13.622  0.2382  0.0762 -0.0380
 9294W        W27498   7.827   9.645   4.155 -0.1146  0.1516 -0.1444
 9295W        W27499  17.607   4.380   2.704  0.4480  0.0225  0.0538
 9296W        W27500  16.025  17.573  13.439  0.1408  0.3178  0.1866
 9297W        W27501   7.867   2.108  14.146  0.0541  0.2130  0.1641
 9298W        W27502  13.237   6.976  10.719  0.0822  0.0601  0.2606
 9299W        W27503  12.569  13.818   3.523 -0.0095  0.2225 -0.0891
 9300W        W27504   2.777   1.214   4.016  0.1121  0.1045  0.0848
 9301W        W27505   4.375  12.938   5.041  0.0074 -0.2282  0.2325
 9302W        W27506  12.825  16.230   4.409  0.1506 -0.3957  0.2488
 9303W        W27507   9.177  11.327   2.998  0.0422 -0.0199 -0.0541
 9304W        W27508   1.139  15.957   3.614 -0.0770 -0.1704  0.0115
 9305W        W27509   1.564  14.307   3.235 -0.0159  0.0451  0.0988
 9306W        W27510  14.749  17.614   3.774  0.2589 -0.1134 -0.2828
 9307W        W27511  12.644   4.270  10.923  0.3006 -0.1838 -0.2178
 9308W        W27512  13.116  17.565   3.473  0.1754 -0.4536 -0.2248
 9309W        W27513  12.004  17.312  15.428  0.2931 -0.1323  0.1996
 9310W        W27514   9.111   1.862  15.305 -0.0484 -0.0357  0.0111
 9311W        W27515   7.846   9.563  14.606 -0.0287  0.1208  0.0186
 9312W        W27516  12.894  12.848  11.903  0.3563 -0.2231 -0.1610
 9313W        W27517   4.324   8.146   2.930  0.1055  0.1186 -0.3448
 9314W        W27518  10.704   1.180   3.285  0.0638  0.0752  0.2114
 9315W        W27519   0.141  11.150  11.453  0.3553 -0.2039  0.1972
 9316W        W27520   5.908   9.282   1.769  0.0599 -0.1531 -0.0679
 9317W        W27521  15.250  18.237   1.446 -0.1004  0.2138  0.1542
 9318W        W27522   7.708  18.610  13.413 -0.0173  0.1794  0.3353
 9319W        W27523   9.513  13.861  11.201 -0.0650 -0.2730  0.2596
 9320W        W27524  13.326   1.107  13.980 -0.2728  0.0261  0.0410
 9321W        W27525  18.141   9.827   4.684 -0.2780  0.0211 -0.1006
 9322W        W27526  17.924   9.137   0.822 -0.0626  0.0086 -0.1846
 9323W        W27527   6.088   4.816   4.874 -0.3012  0.1642 -0.1968
 9324W        W27528  15.646   8.480   1.176  0.0226 -0.1512  0.1215
 9325W        W27529   8.326  15.075  13.185 -0.0724 -0.1089  0.2665
 9326W        W27530  17.029   3.616   0.328 -0.4225  0.1235 -0.0657
 9327W        W27531   2.111   3.847  13.202  0.0476 -0.0009 -0.1676
 9328W        W27532  17.360  16.699  13.545  0.0539  0.0316 -0.2486
 9329W        W27533   8.485  13.120   0.558 -0.0357  0.1952 -0.2566
 9330W        W27534   9.033  12.137   2.538  0.0027 -0.0224  0.0209
 9331W        W27535   1.220   4.663  15.408 -0.0229 -0.0007 -0.0747
 9332W        W27536   3.295  13.630   2.801  0.0669 -0.3586 -0.1227
 9333W        W27537  15.395  13.091   4.301 -0.4806 -0.1685  0.0017
 9334W        W27538   9.689   0.254  14.219 -0.1448  0.1546 -0.0059
 9335W        W27539   6.408  12.023  10.782 -0.0083  0.1225  0.0898
 9336W        W27540   8.723  12.373   4.264  0.0460  0.1065 -0.0859
 9337W        W27541   8.629   1.127   1.798  0.2746  0.1561 -0.0031
 9338W        W27542  12.565   4.690  11.241  0.0248  0.0915  0.0347
 9339W        W27543  15.562  11.009  10.901  0.1770  0.1805  0.0904
 9340W        W27544  15.240   6.967  13.447 -0.1889  0.2792 -0.0558
 9341W        W27545   4.763   5.130  14.992 -0.0085 -0.1473 -0.1564
 9342W        W27546   1.700  17.737   1.330 -0.0240 -0.2486  0.3292
 9343W        W27547  10.000  13.293  12.384  0.1574 -0.1853  0.0073
 9344W        W27548   2.725   3.453   1.321  0.2435 -0.2524 -0.1923
 9345W        W27549  16.735  12.868  10.370 -0.0098 -0.1394 -0.1499
 9346W        W27550  16.343   7.063   1.706  0.0869  0.0123 -0.1105
 9347W        W27551  10.457  12.078  11.600 -0.0043  0.0336  0.3691
 9348W        W27552   0.648   5.510  15.349 -0.0730  0.0320  0.0141
 9349W        W27553  15.947  17.036  11.421  0.3373  0.1215  0.0787
 9350W        W27554   6.843   7.946   2.935 -0.0926  0.1252 -0.1293
 9351W        W27555   5.694   4.308   4.081 -0.0092  0.0075  0.2356
 9352W        W27556   6.304  16.451  14.811  0.1701  0.1585  0.2918
 9353W        W27557   1.407  12.135   0.286 -0.0798  0.0475 -0.3027
 9354W        W27558  10.344  17.814  11.495 -0.0076  0.0618 -0.0822
 9355W        W27559  15.421   1.765  15.107  0.1497  0.0614  0.1186
 9356W        W27560  16.183   2.439  13.917 -0.2298 -0.2874  0.3019
 9357W        W27561  12.423   6.661   3.477  0.0305  0.0574  0.0635
 9358W        W27562  12.615   0.740  13.354 -0.0442  0.2758 -0.0850
 9359W        W27563   2.535   9.085   1.886 -0.1895 -0.1083  0.2177
 9360W        W27564  11.504   5.208  12.634 -0.0583  0.2847  0.1235
 9361W        W27565  15.879   8.029  15.387 -0.2615 -0.0200 -0.1262
 9362W        W27566  15.063   3.842  10.905 -0.2898  0.0278 -0.0906
 9363W        W27567  17.695  16.617  11.512 -0.3637  0.1213  0.2619
 9364W        W27568  18.079   7.166   4.005  0.1442  0.3209 -0.0692
 9365W        W27569   3.941  10.561  11.584  0.0745  0.0703  0.1144
 9366W        W27570  10.134  13.718  12.092  0.1372  0.0780 -0.0868
 9367W        W27571  16.636   8.725  12.446  0.0040 -0.2633  0.2649
 9368W        W27572  11.761  17.906  12.812  0.3668  0.0628  0.2205
 9369W        W27573  10.881   2.395  14.740 -0.0643  0.0726 -0.1577
 9370W        W27574  15.724   5.813  15.347  0.0660  0.3088  0.1446
 9371W        W27575  17.812   2.148   4.858 -0.1073 -0.0230 -0.1079
 9372W        W27576  14.096  11.742  12.147  0.0580  0.0333  0.0988
 9373W        W27577   5.972   2.719  15.305  0.0990  0.1082 -0.0852
 9374W        W27578   7.832   6.753  15.399 -0.1969 -0.1243  0.0254
 9375W        W27579   6.141   7.473   1.926  0.1783  0.0365 -0.0481
 9376W        W27580  17.738   3.615  14.137 -0.0315 -0.0496  0.0349
 9377W        W27581   2.629   8.076   2.757 -0.1448 -0.3170 -0.1535
 9378W        W27582   9.299  17.238   2.293 -0.0280 -0.0912  0.1085
 9379W        W27583  13.229  10.667   2.205 -0.2931 -0.1371  0.1181
 9380W        W27584  13.769   7.502   3.456  0.0849 -0.0879  0.0846
 9381W        W27585  11.655   7.515  14.941  0.0965  0.1228 -0.0614
 9382W        W27586  17.288  10.396  11.817  0.1575 -0.2881  0.3246
 9383W        W27587  16.624   3.108   0.014 -0.2675 -0.2247  0.0747
 9384W        W27588   2.608  15.921   4.202 -0.3668  0.3408  0.0836
 9385W        W27589   4.802  15.353   1.491 -0.1390  0.1657  0.0354
 9386W        W27590   6.144   3.859  12.400 -0.0388  0.2707 -0.2245
 9387W        W27591   0.095   1.057   4.020 -0.0639  0.0366 -0.0430
 9388W        W27592  15.681   2.279   1.482 -0.0371 -0.2187  0.0466
 9389W        W27593  10.503   9.150  11.360 -0.1025  0.2479 -0.0471
 9390W        W27594   3.780  16.598   4.476 -0.3654  0.1082  0.1032
 9391W        W27595  17.668   7.088   5.190  0.3085  0.0338  0.1441
 9392W        W27596   4.931   3.820   0.185  0.0937  0.0398  0.4373
 9393W        W27597  16.833   5.709   1.674 -0.4716  0.1648  0.1094
 9394W        W27598   5.805  10.278   1.404  0.2806 -0.3628 -0.2688
 9395W        W27599   0.644   9.352   4.197 -0.0064 -0.3428 -0.1293
 9396W        W27600   4.247  16.606   4.321 -0.0486 -0.1891  0.1204
 9397W        W27601  13.347   2.499  12.443  0.3117 -0.0316  0.0115
 9398W        W27602  12.580   8.601  14.571  0.5095 -0.2685  0.0438
 9399W        W27603   2.569   4.508  14.078 -0.2031  0.0257 -0.0533
 9400W        W27604   3.598   7.397   3.013  0.1256 -0.0950  0.2349
 9401W        W27605   9.348   2.693  12.380 -0.0892  0.2251  0.0505
 9402W        W27606  13.922   3.234  15.306  0.1095 -0.1513  0.2248
 9403W        W27607   8.383   5.138   0.204 -0.0514 -0.0746  0.0317
 9404W        W27608   0.661  11.105   1.038 -0.2200 -0.1574  0.2185
 9405W        W27609  13.421   0.529  15.246 -0.0822 -0.3349 -0.1030
 9406W        W27610  18.304   8.369   2.129 -0.1236 -0.2634  0.0561
 9407W        W27611   8.426  17.225   0.321 -0.2735  0.1351  0.2991
 9408W        W27612   0.847   2.661  11.664  0.0840  0.0338  0.2771
 9409W        W27613  16.062   9.363   1.321  0.3031 -0.1794  0.0203
 9410W        W27614   8.531   7.523  12.855  0.1949  0.0832 -0.0292
 9411W        W27615  11.065  10.499  14.986  0.1351 -0.1262  0.0541
 9412W        W27616   8.774   5.217   1.195 -0.3014 -0.0141  0.1635
 9413W        W27617  10.594   3.017   2.093 -0.0102  0.0375  0.0633
 9414W        W27618  16.491   6.656   2.733  0.0513  0.1497 -0.0017
 9415W        W27619   5.239  14.152   1.059  0.3329 -0.2628  0.1836
 9416W        W27620  16.269   2.639   0.738 -0.1020  0.1093  0.1532
 9417W        W27621  11.881   3.508  12.788  0.3933 -0.0041 -0.2744
 9418W        W27622  10.646   8.717  11.233 -0.1316  0.0973  0.2227
 9419W        W27623   5.552   7.650  12.723 -0.0465 -0.1309 -0.0101
 9420W        W27624  14.361  18.394   4.318 -0.1736 -0.0623 -0.0557
 9421W        W27625   1.034   0.682  15.159  0.0256 -0.1461 -0.1985
 9422W        W27626   1.924  12.101   0.485  0.0391 -0.2319  0.1594
 9423W        W27627  11.817  10.396   2.907 -0.2499 -0.1501  0.2989
 9424W        W27628   0.496  15.363  15.050 -0.2249  0.0856  0.1304
 9425W        W27629   3.384   5.937   2.578 -0.3736  0.0833 -0.0970
 9426W        W27630  16.483  10.967   1.735  0.1840  0.0937  0.0216
 9427W        W27631   4.223   4.261  14.702 -0.1079  0.1503  0.0247
 9428W        W27632  14.464   1.038   0.608  0.1664 -0.0901 -0.0168
 9429W        W27633  11.837  17.959   2.315  0.1535 -0.0935  0.0952
 9430W        W27634  10.490  17.777  11.988  0.1617  0.2542 -0.2221
 9431W        W27635  17.140   3.827   1.696  0.0089 -0.2192 -0.1867
 9432W        W27636  10.242   1.592   1.524  0.2290  0.0936  0.1987
 9433W        W27637   3.389  16.292   5.111  0.0464 -0.1671 -0.0856
 9434W        W27638  12.982  17.999  14.977  0.1597  0.1604 -0.2760
 9435W        W27639   9.437  14.975   1.628  0.3476 -0.2430  0.0388
 9436W        W27640  14.028  13.901   0.885 -0.3472  0.1670  0.2184
 9437W        W27641  17.027  17.853   1.933 -0.3599  0.1885 -0.0429
 9438W        W27642   7.753   7.209  15.238 -0.1717  0.2308 -0.1690
 9439W        W27643   1.349  17.791   3.491 -0.3701 -0.2553  0.0988
 9440W        W27644  13.668  17.141   3.668  0.0229 -0.2028 -0.0589
 9441W        W27645   7.147  18.363   0.155  0.0008  0.1366  0.1412
 9442W        W27646  10.696   6.948  13.710  0.0728  0.3355 -0.2226
 9443W        W27647   6.634  15.184  13.590 -0.1660  0.0740  0.0824
 9444W        W27648   4.341   9.629   0.390 -0.0275  0.3307  0.1116
 9445W        W27649   0.704   6.611  10.546  0.2692  0.0149 -0.1055
 9446W        W27650  16.280  15.371   2.540  0.0267 -0.0626 -0.0154
 9447W        W27651   4.061  18.128   1.451 -0.1178 -0.0474  0.0574
 9448W        W27652   1.597   2.672  10.313  0.5597 -0.0601  0.0213
 9449W        W27653   0.735  16.996   1.018  0.1376 -0.1360  0.1598
 9450W        W27654  17.243   7.422  11.333 -0.0648 -0.0141  0.0161
 9451W        W27655   3.797   8.670  14.984 -0.1077 -0.3293 -0.3491
 9452W        W27656  17.606   4.228   3.227 -0.2938  0.0453  0.3286
 9453W        W27657   8.007  10.726   3.033  0.2619 -0.0101  0.1444
 9454W        W27658  13.761   5.898  15.423 -0.0290 -0.1003 -0.1579
 9455W        W27659  15.161   2.324  14.065  0.2939 -0.1799  0.3058
 9456W        W27660   1.317  13.479   1.582  0.4243 -0.0583  0.1495
 9457W        W27661   4.630   0.801  11.185  0.3806  0.1189 -0.1538
 9458W        W27662  12.054  16.424  13.395 -0.0017 -0.0546  0.2203
 9459W        W27663  17.107  10.409   2.388 -0.2267  0.0429  0.0908
 9460W        W27664  11.019   9.453  12.883 -0.1257 -0.1136  0.0498
 9461W        W27665  18.403   3.652  14.749  0.2515 -0.0941  0.0865
 9462W        W27666   1.531   8.088   2.050  0.3176  0.0458  0.1169
 9463W        W27667  18.129  12.811   0.427  0.0079  0.1633  0.1366
 9464W        W27668  16.019   7.855  12.670  0.3125  0.1897 -0.0862
 9465W        W27669   5.426  12.241  12.710  0.2135 -0.1062 -0.1590
 9466W        W27670   8.591  13.205  14.288 -0.2380 -0.2427  0.0636
 9467W        W27671   1.912   2.236  11.705 -0.0712  0.0925  0.2334
 9468W        W27672   2.590   3.522   3.369 -0.0175 -0.3083  0.2263
 9469W        W27673  10.374  17.501   0.614  0.0775 -0.1349  0.0249
 9470W        W27674   9.794   4.360   3.601  0.1103 -0.0292 -0.0769
 9471W        W27675  12.514  16.896  13.720 -0.1248 -0.0418 -0.1116
 9472W        W27676   7.208  16.819   1.379 -0.2000  0.1295  0.0892
 9473W        W27677   5.527  13.395   2.734 -0.1341 -0.0389  0.0437
 9474W        W27678   2.515  15.559  13.926  0.4374  0.1100  0.0173
 9475W        W27679   1.109   3.565   2.690 -0.0303  0.1692  0.2010
 9476W        W27680  10.675   4.234   4.150 -0.0661 -0.3005  0.3029
 9477W        W27681  14.168   0.247   0.190 -0.0912  0.1207  0.0905
 9478W        W27682  12.147   1.476   3.437 -0.1005  0.1813  0.0582
 9479W        W27683  11.856   4.076  13.586 -0.1606  0.2517 -0.0512
 9480W        W27684   6.360  11.532   1.584 -0.1179  0.1339  0.1855
 9481W        W27685   9.441  17.422  12.637  0.0567 -0.1659  0.0472
 9482W        W27686  14.744   5.422   0.805 -0.4199  0.4616  0.2984
 9483W        W27687   6.871  15.054  14.821 -0.0740  0.0884 -0.1500
 9484W        W27688   6.570  11.896  11.358 -0.2697 -0.0029 -0.3004
 9485W        W27689  13.988   3.829  10.629  0.0146 -0.1828 -0.1437
 9486W        W27690   0.995  14.950   2.130  0.1724 -0.0220  0.1945
 9487W        W27691   1.070  10.940   0.388  0.0171 -0.0302 -0.4926
 9488W        W27692   8.410  11.259   0.017 -0.0269 -0.5053 -0.2372
 9489W        W27693   2.586  14.746  14.359 -0.2292  0.0358  0.3935
 9490W        W27694   0.589  17.985   3.909  0.2368  0.0650 -0.0139
 9491W        W27695  17.901  18.569   0.029 -0.1930  0.0190 -0.2877
 9492W        W27696   7.670   8.660   3.703 -0.2301  0.0490  0.4341
 9493W        W27697   6.652   2.361   3.122 -0.5684  0.2131 -0.1593
 9494W        W27698   6.452  15.544   0.881 -0.2623 -0.0353  0.1976
 9495W        W27699   1.283   8.370  13.545 -0.1009  0.0378 -0.0345
 9496W        W27700  15.242  11.288  12.484  0.1614 -0.2373 -0.1648
 9497W        W27701   5.696   5.770   3.346  0.1534  0.2187  0.1690
 9498W        W27702  16.513  16.702  14.897  0.5016 -0.1393 -0.2407
 9499W        W27703  10.606  13.423   5.060 -0.0041 -0.3171 -0.2568
 9500W        W27704  17.029  15.531   3.751 -0.2585 -0.2091  0.1484
 9501W        W27705  16.880   5.213  12.268  0.1050  0.2550  0.0677
 9502W        W27706   2.840  11.650  14.502 -0.1601  0.2327 -0.0029
 9503W        W27707   2.819   2.918  12.966 -0.1404 -0.1521  0.1269
 9504W        W27708   4.012   7.251  14.200  0.0580 -0.0948  0.0187
 9505W        W27709  13.242   2.665   4.386 -0.5112  0.0755  0.2643
 9506W        W27710   1.293  14.596  11.718 -0.1604  0.1409  0.2919
 9507W        W27711   2.992  18.418   5.615  0.0703 -0.1321 -0.0261
 9508W        W27712   0.050   8.874  12.254 -0.2599 -0.0579  0.1806
 9509W        W27713  17.290   0.913   1.241 -0.2545 -0.0681 -0.2148
 9510W        W27714  13.648  16.019   2.379  0.1821 -0.1441 -0.4270
 9511W        W27715  12.822   8.440  13.090 -0.0773 -0.0391 -0.0977
 9512W        W27716   3.775  13.160  14.782 -0.2716  0.1015 -0.1818
 9513W        W27717  10.507   4.535  10.858 -0.3139 -0.1762 -0.0703
 9514W        W27718   7.931   3.745   0.327 -0.2008  0.0808  0.2727
 9515W        W27719   2.729  11.802   3.731 -0.0157  0.0400 -0.0089
 9516W        W27720   5.189  17.057   4.544  0.2737  0.0042 -0.1470
 9517W        W27721  15.276  10.045   3.594  0.2269 -0.0092  0.2067
 9518W        W27722   3.236   5.478  12.753  0.0001 -0.0508 -0.1194
 9519W        W27723   9.465   0.230   4.290  0.0548  0.2007 -0.0651
 9520W        W27724  13.854   1.920   3.934 -0.2081  0.0598 -0.0628
 9521W        W27725  10.832  10.316   0.025 -0.0675  0.0338  0.2652
 9522W        W27726  10.207   5.696  14.592  0.1267 -0.0180 -0.0310
 9523W        W27727   3.868  10.591  15.410 -0.2675 -0.2284 -0.0473
 9524W        W27728  14.082  13.657   5.715  0.3049  0.2233  0.1892
 9525W        W27729   4.771   9.898  11.067 -0.0897 -0.2284 -0.0492
 9526W        W27730   3.316   2.098   0.250 -0.2110  0.0968  0.2529
 9527W        W27731  11.911   6.139   4.106 -0.0347 -0.2519  0.3421
 9528W        W27732  16.835   8.611   1.688 -0.0101  0.1811  0.0856
 9529W        W27733  16.106  10.298  12.086 -0.0267  0.0010 -0.1522
 9530W        W27734   0.638  12.617  14.658 -0.2357  0.0030 -0.2511
 9531W        W27735   3.781   0.019  14.149 -0.1284 -0.2548  0.0503
 9532W        W27736   2.029   8.819   3.795 -0.0348  0.2692  0.1673
 9533W        W27737  13.110   5.867   3.720 -0.2129 -0.0701  0.0984
 9534W        W27738   6.476  18.045   0.104 -0.0201  0.2731 -0.0422
 9535W        W27739  12.224   4.202   3.128  0.1335  0.0060 -0.0185
 9536W        W27740   2.685  16.646  13.086  0.2537 -0.1726 -0.1809
 9537W        W27741   2.357   5.891   0.860  0.2310 -0.0314  0.2224
 9538W        W27742  15.512   5.457   0.246  0.2434 -0.1202 -0.4050
 9539W        W27743   5.191   5.650   0.204  0.0116  0.1166 -0.0151
 9540W        W27744  11.025   7.360   2.731  0.2420  0.2353 -0.0736
 9541W        W27745   4.194  16.529   1.615  0.2453  0.3565 -0.1048
 9542W        W27746   0.671  12.255  13.205 -0.0275  0.3102 -0.0357
 9543W        W27747  13.255   8.222  14.700 -0.0327 -0.0843 -0.0187
 9544W        W27748   1.161   1.643   0.549 -0.1571  0.0139 -0.1694
 9545W        W27749   5.227   3.239  11.642 -0.0190  0.2970  0.2863
 9546W        W27750  14.490   4.547  13.346  0.0601 -0.2012  0.0352
 9547W        W27751   6.376   3.373   2.124  0.2852 -0.2191 -0.1360
 9548W        W27752  16.825   6.521  12.399 -0.2179  0.1139 -0.0239
 9549W        W27753  16.782  10.075   3.112  0.1238  0.1202  0.1946
 9550W        W27754   4.092  11.929   2.586  0.0649 -0.2548  0.1522
 9551W        W27755   5.491   8.761   3.685 -0.2628 -0.2535 -0.2271
 9552W        W27756   1.413   0.601  11.734  0.0318 -0.2229 -0.4871
 9553W        W27757   9.472  14.082   4.893 -0.0758  0.2713 -0.0795
 9554W        W27758   1.962   6.773   3.767  0.2705  0.2753  0.1654
 9555W        W27759  16.801  10.803  10.880 -0.3768 -0.1240 -0.0320
 9556W        W27760   6.951   8.129  14.584  0.0704 -0.1666 -0.1635
 9557W        W27761   3.505  12.712  12.341  0.2060 -0.0324  0.0329
 9558W        W27762   0.601  10.854  11.486 -0.0379  0.0559  0.2752
 9559W        W27763  11.885  13.053   0.768  0.2428  0.0173  0.2804
 9560W        W27764  12.854   2.689   3.092 -0.0163  0.3757  0.1324
 9561W        W27765   7.226  13.219  13.813 -0.0214  0.1476  0.1438
 9562W        W27766  11.604  12.589   4.202  0.0767 -0.0240  0.0869
 9563W        W27767   4.909   1.030  14.786 -0.0200 -0.0959  0.0028
 9564W        W27768   5.420   0.155  15.410 -0.0432 -0.2451  0.1209
 9565W        W27769   2.410  16.283  13.256 -0.0127  0.0264 -0.0582
 9566W        W27770   1.567  16.835  13.253  0.1188 -0.2422  0.2925
 9567W        W27771   4.376   9.495  10.777  0.3069 -0.1304 -0.0361
 9568W        W27772  14.845   1.150   3.177 -0.0383 -0.3697 -0.0047
 9569W        W27773   3.857  17.939  10.322  0.1069  0.3478  0.0991
 9570W        W27774  10.847  14.314  13.945  0.3014  0.0125  0.0112
 9571W        W27775   6.390  16.409   0.995  0.3808  0.0554 -0.2948
 9572W        W27776   5.754  10.115   5.371  0.0131  0.0119 -0.1959
 9573W        W27777  14.108  14.659  14.365  0.0556  0.1739 -0.2435
 9574W        W27778   9.592   5.070  10.023  0.0585 -0.1537  0.0684
 9575W        W27779   4.405  11.420  15.267 -0.1098 -0.1063 -0.1729
 9576W        W27780  17.895   6.393   0.136 -0.2264 -0.3160 -0.0552
 9577W        W27781   9.765   2.313   1.347 -0.1692  0.1776 -0.0082
 9578W        W27782   6.226   7.341   2.449  0.1434 -0.0237  0.2103
 9579W        W27783   8.302   9.452  14.772 -0.1205  0.0961  0.0329
 9580W        W27784   6.431   4.858  11.908  0.0452  0.2159 -0.0507
 9581W        W27785   9.637   7.030   0.275  0.1406 -0.0893 -0.1580
 9582W        W27786  16.208  13.528  14.904 -0.0983 -0.5042 -0.1123
 9583W        W27787   7.440  16.852   4.747  0.1271 -0.2257  0.1389
 9584W        W27788  16.396  10.611   0.381 -0.0999  0.2373  0.0837
 9585W        W27789  16.572   9.649   3.292  0.3239 -0.1264  0.1830
 9586W        W27790   4.614   4.533  11.430 -0.0765  0.4311  0.0854
 9587W        W27791   4.976   2.432   3.800 -0.0710 -0.0980 -0.1354
 9588W        W27792   0.264  18.486   1.868  0.0410  0.0084  0.2107
 9589W        W27793  11.195  18.580   2.807  0.0730 -0.1067  0.0351
 9590W        W27794  13.957  10.851   1.094 -0.2656 -0.2032 -0.3611
 9591W        W27795   3.857  11.119   4.540  0.1438 -0.2580  0.0798
 9592W        W27796  14.503   8.535   3.805  0.0247 -0.2501 -0.0647
 9593W        W27797  15.005  15.198  11.327 -0.1497  0.1508  0.0767
 9594W        W27798  11.359  10.711  14.668 -0.1352 -0.1170 -0.2133
 9595W        W27799   3.480   5.424   3.200  0.2033 -0.2122  0.1214
 9596W        W27800  18.146  17.272  11.984  0.4069 -0.2037  0.5987
 9597W        W27801  11.125  10.766   3.459  0.0863 -0.0137 -0.3586
 9598W        W27802   2.564  11.154  14.463 -0.4217  0.0976 -0.0124
 9599W        W27803   5.814  10.630   1.746 -0.1090 -0.0671 -0.1157
 9600W        W27804  10.422   0.994  10.925  0.0899  0.2565  0.1733
 9601W        W27805   4.886  16.330  11.527  0.1273  0.2042 -0.1208
 9602W        W27806   2.471   2.106  13.988  0.4454 -0.2009 -0.1830
 9603W        W27807  11.184  14.685  10.705 -0.2396 -0.3462 -0.0423
 9604W        W27808   7.411  11.800  11.653 -0.1877 -0.1254  0.2280
 9605W        W27809   4.429  10.776  11.534  0.0820 -0.0829  0.1865
 9606W        W27810  15.042  17.263   4.059  0.0644 -0.0964  0.0497
 9607W        W27811   1.433   6.344  13.711 -0.5077  0.0371 -0.0028
 9608W        W27812   5.628   9.369  10.886  0.2178 -0.2224 -0.1244
 9609W        W27813   7.305   0.159   3.883  0.1143  0.0185  0.0875
 9610W        W27814   1.666   9.430   3.959  0.0273 -0.1992 -0.2539
 9611W        W27815   4.770  16.429   0.352  0.3867  0.1858 -0.4013
 9612W        W27816   9.348  13.755  11.755  0.2604 -0.2797  0.2322
 9613W        W27817  14.638  15.419  13.412 -0.0480 -0.3799  0.2081
 9614W        W27818   6.197  17.951   2.208 -0.0686 -0.1586  0.0399
 9615W        W27819  15.042   5.275  14.674 -0.1171 -0.0101  0.1168
 9616W        W27820   8.020  14.030  12.609  0.1348  0.3149  0.0518
 9617W        W27821  12.353   3.894  13.588 -0.0676  0.0169  0.3755
 9618W        W27822   0.203   5.720  13.380  0.1379 -0.2019 -0.0755
 9619W        W27823  11.588  16.132   3.104  0.0978  0.0254 -0.2667
 9620W        W27824  15.953  18.575  12.974 -0.0706  0.2949 -0.1615
 9621W        W27825   1.835   9.531   4.496 -0.4199  0.1382 -0.0124
 9622W        W27826   3.550   0.534  12.312  0.4119  0.2933 -0.0534
 9623W        W27827  17.790  14.914  10.116  0.0998  0.0155  0.1602
 9624W        W27828  10.643  12.751  13.937  0.0510  0.0469  0.3788
 9625W        W27829   9.809   5.439  15.337 -0.2201  0.0080 -0.0809
 9626W        W27830   0.339   8.732   0.641 -0.1594 -0.1951  0.1659
 9627W        W27831   9.159   5.988   1.168  0.4914 -0.0155  0.0941
 9628W        W27832   7.134  15.074  13.668 -0.1594  0.0022 -0.4961
 9629W        W27833  12.689   2.514   1.572 -0.0089 -0.0728  0.3769
 9630W        W27834  17.617  18.570   1.100  0.0786  0.0726 -0.2126
 9631W        W27835  14.796   2.261  14.399  0.0369 -0.1363 -0.2526
 9632W        W27836   7.891   5.472   3.652  0.0276 -0.1378 -0.0035
 9633W        W27837  11.178  13.870   2.808  0.0828  0.1905  0.2518
 9634W        W27838   3.506  15.748  13.469  0.0777 -0.0378 -0.4829
 9635W        W27839   7.221   1.040  14.826 -0.2346 -0.1480 -0.2638
 9636W        W27840  13.307   9.146  13.602 -0.1056  0.2463 -0.3904
 9637W        W27841   8.534   2.937   3.861  0.1016  0.1787  0.2323
 9638W        W27842  10.313   2.583   0.075 -0.0287  0.1351  0.1437
 9639W        W27843  10.141   8.683   3.443  0.0321  0.2971  0.1275
 9640W        W27844  11.992   6.407   3.604 -0.0756 -0.1297 -0.2282
 9641W        W27845  11.531  11.792   0.612  0.2477  0.1128  0.1054
 9642W        W27846  10.969  15.940  10.053  0.0134  0.0812 -0.1362
 9643W        W27847  15.023   6.595  13.672 -0.0971 -0.0904  0.1403
 9644W        W27848  13.867   3.770   4.775 -0.2009  0.2164  0.3661
 9645W        W27849   3.683  14.899  13.324  0.1605  0.5557  0.0569
 9646W        W27850  17.031  17.694  12.758 -0.0269  0.2415  0.0954
 9647W        W27851  15.431  14.847   0.250  0.1323  0.0382 -0.0358
 9648W        W27852  11.364   3.050   3.473 -0.0364  0.2338  0.3345
 9649W        W27853   2.351  14.531  14.960  0.0244  0.0759  0.2135
 9650W        W27854   6.750   5.075   1.722 -0.0611 -0.1064 -0.0332
 9651W        W27855   2.013   4.358   4.574 -0.1703 -0.2571 -0.0744
 9652W        W27856  13.729  16.150  15.239 -0.2548 -0.0624 -0.0179
 9653W        W27857   9.866   9.037   4.404 -0.1100  0.1732  0.0320
 9654W        W27858   8.916  18.212   1.891 -0.1990  0.0603  0.0876
 9655W        W27859  16.826   3.808  11.586 -0.1351 -0.0635 -0.0295
 9656W        W27860   2.430   0.229   4.878 -0.2407  0.0024  0.3516
 9657W        W27861  14.658   8.803   2.358 -0.0698  0.0067 -0.0529
 9658W        W27862  10.256  18.125   2.500  0.0872 -0.2591 -0.1885
 9659W        W27863  16.980  17.917   1.369 -0.1989 -0.0522  0.0016
 9660W        W27864   9.276   7.193   1.284 -0.1648  0.2334 -0.1336
 9661W        W27865  12.677   9.673  13.783 -0.0657 -0.0227 -0.2472
 9662W        W27866   8.142   3.241  13.618 -0.1702 -0.0551 -0.0368
 9663W        W27867  14.528   7.234   2.224  0.1709 -0.1701  0.1389
 9664W        W27868   8.092  13.622   2.665  0.1283 -0.1975  0.0955
 9665W        W27869   1.279  17.516  15.240 -0.2105 -0.1828  0.1497
 9666W        W27870   8.615   8.256  10.008  0.3280 -0.0037  0.0185
 9667W        W27871  17.851   6.046  11.912  0.0721 -0.0862 -0.1300
 9668W        W27872   3.801   2.965  14.765 -0.0985  0.1509  0.0332
 9669W        W27873   5.667  12.034  13.235  0.1538 -0.1532 -0.1046
 9670W        W27874   7.677  16.433   2.423  0.1238  0.0309  0.0848
 9671W        W27875   5.912  13.058   2.943 -0.0290  0.2054 -0.2177
 9672W        W27876   8.459   1.655   4.462 -0.2544 -0.0145 -0.3115
 9673W        W27877   1.743   9.329  13.025  0.1286  0.2624  0.2119
 9674W        W27878   8.441   9.522   3.534 -0.1626  0.0854  0.1845
 9675W        W27879   0.038  17.802  15.207  0.1775 -0.0376  0.3225
 9676W        W27880  11.361   6.891  11.372 -0.4210  0.1200 -0.1324
 9677W        W27881  17.910   3.875   0.640  0.0942  0.0792  0.1354
 9678W        W27882   8.230  15.813  14.103 -0.0725  0.0524  0.0252
 9679W        W27883   1.172  10.342  13.088 -0.0308 -0.1516  0.1697
 9680W        W27884  15.528  11.596   1.669 -0.2044  0.0466 -0.1670
 9681W        W27885  10.820   0.434   1.945  0.1121 -0.3605 -0.0498
 9682W        W27886   3.101  17.800   0.306  0.0008  0.0812  0.0765
 9683W        W27887   1.795   2.030   3.932  0.0616  0.3359 -0.0713
 9684W        W27888  14.967  10.023  13.765 -0.0313 -0.1156 -0.3089
 9685W        W27889  18.048   8.026  13.005 -0.0661 -0.0845 -0.0897
 9686W        W27890  10.638   9.277  14.416 -0.1814 -0.2897 -0.0758
 9687W        W27891  13.706   6.024  11.962 -0.0201  0.1188  0.1212
 9688W        W27892   9.277  17.493   3.740 -0.0159  0.0134  0.0354
 9689W        W27893   9.138  14.318  14.888  0.1621  0.1957  0.2382
 9690W        W27894  13.030   9.465   3.098  0.3948  0.3355 -0.1025
 9691W        W27895   4.647   7.510   1.273 -0.2065 -0.0232 -0.1584
 9692W        W27896  11.998   5.356  12.589  0.4631 -0.0471  0.1196
 9693W        W27897   6.267  10.207  10.955 -0.3837  0.1150  0.2120
 9694W        W27898   7.169   7.034  14.416  0.1054  0.1715  0.1315
 9695W        W27899  13.483  10.178   1.697 -0.1567  0.0786  0.0667
 9696W        W27900  17.054   9.073  12.514  0.4313 -0.1800 -0.1821
 9697W        W27901   0.268  11.050  11.976  0.1482  0.0482  0.1801
 9698W        W27902  18.318  10.295   4.515  0.4412 -0.0147 -0.0493
 9699W        W27903  15.673   9.774   3.495  0.1835  0.2502 -0.0674
 9700W        W27904   2.491  16.677   0.270 -0.2231  0.1352 -0.0711
 9701W        W27905   6.961  13.859  14.349 -0.2544  0.1588  0.1093
 9702W        W27906   8.238   7.048  12.932  0.0072 -0.1699  0.0398
 9703W        W27907  13.350  17.029  13.357 -0.0794 -0.2531 -0.1368
 9704W        W27908  10.971  15.401   2.730 -0.1253  0.0930 -0.0397
 9705W        W27909   8.143   8.538   3.945  0.0584  0.0962 -0.0397
 9706W        W27910   8.019  10.112   4.243  0.3438 -0.0251  0.1769
 9707W        W27911   5.512   8.123  12.570  0.0497  0.0694  0.0054
 9708W        W27912   8.459  13.608   1.011 -0.5921 -0.1676  0.1173
 9709W        W27913   0.349   5.161   4.298 -0.0043  0.3143  0.1531
 9710W        W27914  12.175  16.254   5.526 -0.2093 -0.0110  0.0190
 9711W        W27915   8.644  14.581  11.483 -0.1763  0.0530  0.0430
 9712W        W27916  17.865   2.226  10.078 -0.1484  0.2098 -0.2072
 9713W        W27917   4.649   5.687  11.734  0.0183  0.1169 -0.2956
 9714W        W27918  12.397   8.688   5.535 -0.2965 -0.3214 -0.3076
 9715W        W27919   4.825   0.388  13.210  0.0052  0.1590  0.0092
 9716W        W27920   8.407   3.719  12.713  0.1864  0.0491  0.1972
 9717W        W27921   1.223   6.321   1.425  0.2019 -0.0675 -0.1355
 9718W        W27922  11.230   9.844   0.009 -0.0523  0.0530 -0.0430
 9719W        W27923   2.394   1.067  12.408 -0.1963 -0.0309  0.0882
 9720W        W27924  13.055  13.907   0.208  0.2253 -0.0059  0.3708
 9721W        W27925  15.873  12.921  13.012 -0.0378 -0.2891 -0.2775
 9722W        W27926  16.851   0.622  13.926  0.4222  0.2075 -0.1209
 9723W        W27927   2.902   9.382   1.486 -0.1150  0.2420 -0.2253
 9724W        W27928   7.556  11.967   4.208  0.2209  0.1183  0.1480
 9725W        W27929  16.828   8.455   4.861  0.1466  0.0050  0.3781
 9726W        W27930  16.588  12.430  14.693 -0.0308 -0.3002 -0.0752
 9727W        W27931   6.620   8.766   2.779 -0.0546 -0.4732  0.1149
 9728W        W27932   8.992  17.633   2.390  0.2253  0.5099  0.1971
 9729W        W27933  12.099   3.641   1.357  0.1977 -0.0974 -0.1282
 9730W        W27934   6.741   8.249  13.689 -0.7626  0.0369 -0.0608
 9731W        W27935   3.960  11.972  13.836  0.1396 -0.0935  0.4151
 9732W        W27936  13.708  17.086   1.670  0.0503  0.3971  0.0786
 9733W        W27937   0.475  15.494   4.267  0.4844 -0.1322  0.3422
 9734W        W27938  13.501   2.281  13.069  0.0678 -0.2972 -0.1184
 9735W        W27939   5.878   1.225   0.162  0.0845 -0.0853 -0.0313
 9736W        W27940  18.612  11.893  13.498  0.0091 -0.1339  0.3019
 9737W        W27941  16.187  17.434  12.369 -0.5109 -0.1549 -0.1340
 9738W        W27942   0.103   3.365  14.471  0.1372 -0.0099 -0.0210
 9739W        W27943   1.667   7.335   3.254 -0.0471  0.0908 -0.0964
 9740W        W27944  10.780  13.283  10.552  0.1329 -0.0903 -0.3175
 9741W        W27945   0.505   9.352   2.921 -0.3418 -0.1891 -0.6582
 9742W        W27946   2.769  13.434  13.108 -0.0178  0.1652  0.2115
 9743W        W27947  11.848   4.870   2.701 -0.2188 -0.2223 -0.0353
 9744W        W27948   3.347   3.792  14.584  0.0922  0.2705  0.0504
 9745W        W27949   7.458   8.466   2.138  0.0671 -0.0952 -0.1342
 9746W        W27950   9.811  12.521  10.790  0.1123  0.0222  0.1349
 9747W        W27951  13.518   0.267  14.778  0.0427  0.0046 -0.2804
 9748W        W27952  12.012  13.602  14.171 -0.1358  0.1286  0.1609
 9749W        W27953  18.294  15.715  12.684 -0.2481 -0.0406 -0.4018
 9750W        W27954   8.323  11.499   3.419 -0.0314  0.2864  0.0277
 9751W        W27955   4.292  11.668  11.341 -0.2096  0.0758  0.1345
 9752W        W27956   7.564   5.619   1.830  0.2507  0.0986 -0.1324
 9753W        W27957   2.973   4.561   0.844 -0.2653  0.0107 -0.0394
 9754W        W27958   6.649   2.042  11.283 -0.1388 -0.2099 -0.1048
 9755W        W27959  14.437   6.381  11.977  0.2194  0.0826 -0.2107
 9756W        W27960   8.187   0.181   2.992  0.0653  0.0846  0.5273
 9757W        W27961   6.303  11.849  12.436  0.2021 -0.0778 -0.0342
 9758W        W27962  16.208  18.221   4.562  0.0508 -0.0219 -0.2055
 9759W        W27963  15.619  18.015  11.690 -0.3578 -0.0645  0.0264
 9760W        W27964   7.633  13.681  11.969 -0.0871  0.1481  0.0672
 9761W        W27965  17.505   8.923  13.459  0.1179 -0.2541  0.0331
 9762W        W27966  15.097   8.166  11.460 -0.1092  0.2398 -0.0301
 9763W        W27967   4.075   5.210  13.229  0.2399 -0.0037 -0.0304
 9764W        W27968  17.545  12.285   1.343 -0.2332  0.2488  0.0779
 9765W        W27969   0.250   3.707   0.528 -0.1183 -0.0607  0.1328
 9766W        W27970  12.369   7.534   0.691 -0.0061  0.0213 -0.3244
 9767W        W27971   0.005  11.163   3.076 -0.0875 -0.1357  0.0179
 9768W        W27972  17.248  17.161  15.209 -0.0061  0.2587 -0.0452
 9769W        W27973   8.227  17.870   1.449  0.0639  0.1980  0.4573
 9770W        W27974   4.941  11.345  12.691 -0.1166  0.0681  0.0676
 9771W        W27975   9.326  14.973  13.076  0.2201 -0.0527 -0.1284
 9772W        W27976  11.300  10.576  11.062 -0.0118 -0.0772 -0.1904
 9773W        W27977  15.047  12.660  13.962 -0.2312  0.0050 -0.3315
 9774W        W27978   6.572  15.203   2.057  0.0134  0.0710  0.0745
 9775W        W27979   4.189  12.089  13.356  0.1925 -0.3328 -0.2349
 9776W        W27980  17.434   5.609   0.417 -0.0843  0.4467 -0.1895
 9777W        W27981  18.359   8.549   4.005  0.2844  0.0756 -0.0862
 9778W        W27982  17.548  15.196  14.245  0.0820  0.0508  0.1093
 9779W        W27983  12.039   2.866  13.631  0.0634 -0.1776  0.0800
 9780W        W27984   2.780   2.590   2.068  0.1833  0.0869  0.2490
 9781W        W27985  18.176   5.120  13.876  0.0574 -0.1074  0.1482
 9782W        W27986  10.176   6.185  14.822 -0.1288 -0.1041 -0.0989
 9783W        W27987  16.052  14.040   3.961 -0.1414 -0.2328 -0.0140
 9784W        W27988  14.691   2.041   0.907  0.0826  0.1420  0.1054
 9785W        W27989   3.467  18.105  12.669  0.0778  0.2094  0.3879
 9786W        W27990   8.890  15.596  11.989 -0.2313  0.0727 -0.1207
 9787W        W27991   7.589   5.341  14.075  0.0017  0.0058 -0.0729
 9788W        W27992   2.445  10.327   0.100  0.2490 -0.0495  0.0639
 9789W        W27993   5.829   1.239   3.686 -0.1511  0.3993  0.3349
 9790W        W27994  12.375   2.991  13.304  0.1334  0.0635 -0.2679
 9791W        W27995  16.683   4.050   0.059  0.2070 -0.0314  0.0278
 9792W        W27996   5.310   1.857   0.717  0.1655 -0.2825  0.4083
 9793W        W27997   0.716  13.802  11.283 -0.3567 -0.0421 -0.2138
 9794W        W27998  15.828   3.914   1.365 -0.0738 -0.2285 -0.1930
 9795W        W27999   0.634  15.898  11.729  0.1799  0.2717 -0.4128
 9796W        W28000  11.830   5.124   0.257  0.0164 -0.0180 -0.2346
 9797W        W28001   8.615  11.339  11.345  0.0531  0.1276  0.0495
 9798W        W28002  13.638   5.598   2.999  0.1777  0.3824 -0.4495
 9799W        W28003  10.943  17.034  14.289  0.0849  0.0512 -0.2478
 9800W        W28004   6.223  16.679   3.816  0.1124  0.2058  0.0112
 9801W        W28005  12.910   3.067   9.791 -0.0779 -0.2805  0.0015
 9802W        W28006   1.210  13.233   4.381  0.0914  0.2182  0.0847
 9803W        W28007  15.859   4.890  13.232 -0.0029  0.2367  0.1932
 9804W        W28008  12.100  11.278  10.812 -0.1615  0.0166  0.0243
 9805W        W28009  18.449   0.433   0.156  0.0084 -0.0834  0.0409
 9806W        W28010  13.772   8.661   4.176  0.0345  0.0435 -0.0907
 9807W        W28011  16.939   3.874   4.254 -0.0790  0.2063 -0.0366
 9808W        W28012  17.216  16.467  11.723 -0.0053 -0.2850  0.2618
 9809W        W28013   3.929  11.204   3.249 -0.0875 -0.0534  0.4743
 9810W        W28014  13.267  14.239   4.254  0.2780  0.0124  0.0086
 9811W        W28015   1.309   0.954  10.957  0.2948  0.1342  0.0293
 9812W        W28016  15.593   4.487   0.227  0.1744  0.1858 -0.0595
 9813W        W28017  15.572   1.996  12.229  0.1135 -0.2921 -0.1256
 9814W        W28018   8.606   1.681  13.457  0.3178  0.3003  0.1068
 9815W        W28019  10.047   1.435  11.969  0.1000 -0.2777 -0.3034
 9816W        W28020  12.667   2.981   1.473  0.0307 -0.2241  0.4627
 9817W        W28021   8.420   9.694   0.279 -0.2203  0.0534 -0.1418
 9818W        W28022  13.035  10.722  11.836 -0.0466  0.4922  0.1144
 9819W        W28023   7.139  10.181  13.579 -0.0729 -0.0206  0.1036
 9820W        W28024   1.422   6.414   0.898 -0.2539  0.1926 -0.1864
 9821W        W28025   2.221  12.255  13.087 -0.2332  0.1542 -0.1360
 9822W        W28026   5.738  13.705   3.694 -0.2143  0.0078  0.2810
 9823W        W28027  12.997  10.963   2.554 -0.1857  0.1611 -0.2095
 9824W        W28028  18.096   8.101   3.944  0.0288  0.1236 -0.2561
 9825W        W28029  15.697   0.508   0.298 -0.4730 -0.0050 -0.2333
 9826W        W28030  13.929   2.605  14.532 -0.2307 -0.2618 -0.1376
 9827W        W28031  15.653  14.181  13.617 -0.1286 -0.3746  0.1394
 9828W        W28032   0.249  10.705   0.226  0.0678 -0.5331 -0.0006
 9829W        W28033   5.071  18.244  14.099  0.3592 -0.0331 -0.2224
 9830W        W28034   4.071   5.938  14.847 -0.1343  0.1053 -0.0457
 9831W        W28035   1.334   2.332   0.800  0.1019  0.1682 -0.0075
 9832W        W28036  15.895   9.805  11.729  0.1155 -0.0444  0.0647
 9833W        W28037  10.772  11.406  10.923 -0.0585  0.0412 -0.3636
 9834W        W28038  16.991   5.425  14.560 -0.0082  0.1084  0.0448
 9835W        W28039   1.014  13.682   1.957  0.3412 -0.2041 -0.2676
 9836W        W28040  14.569   1.342   4.246  0.1807  0.1963  0.1602
 9837W        W28041   4.183  18.239  13.983 -0.1723 -0.2295  0.1212
 9838W        W28042   3.177   4.981  12.818  0.1066 -0.0378  0.1598
 9839W        W28043  12.695  10.490   1.015  0.1797  0.3639 -0.2364
 9840W        W28044   1.615   5.072   3.255 -0.1844 -0.2876  0.1639
 9841W        W28045  10.935   3.031   3.831 -0.0589  0.3255  0.1783
 9842W        W28046   1.030   3.210  12.335 -0.1677  0.1727 -0.3125
 9843W        W28047   0.719   0.325  13.993 -0.4092 -0.2127 -0.0766
 9844W        W28048  12.977   2.558  14.516  0.1125 -0.1619 -0.4772
 9845W        W28049  14.420   6.068   1.389  0.2345 -0.1328  0.2319
 9846W        W28050   1.859   9.496   2.318 -0.0345  0.1495 -0.2708
 9847W        W28051   0.782  14.369  12.637 -0.0182 -0.2809  0.0903
 9848W        W28052   3.705   9.137   3.870 -0.1041 -0.0145 -0.0689
 9849W        W28053   5.276   8.021  10.912  0.1223  0.4510  0.2451
 9850W        W28054   5.781  12.525   0.570  0.1040  0.1993  0.0020
 9851W        W28055   0.035   1.962   1.145 -0.0794 -0.2700  0.0761
 9852W        W28056  12.434   5.391  13.736 -0.1677 -0.0714 -0.0226
 9853W        W28057  15.740   2.182  15.275  0.0546  0.0699 -0.0369
 9854W        W28058   9.102   8.465  13.923 -0.0512 -0.1504  0.2627
 9855W        W28059   6.385   8.450  15.109 -0.1498 -0.1456 -0.0137
 9856W        W28060  11.563   3.684  15.173  0.0863 -0.2951 -0.0419
 9857W        W28061  14.223  16.243  15.053  0.2196  0.1509  0.0200
 9858W        W28062   9.380   3.470  14.645 -0.0308  0.2536  0.0480
 9859W        W28063  11.869   3.651  13.902 -0.1170  0.1948  0.3276
 9860W        W28064  17.964  16.383   2.033 -0.1869  0.0419 -0.0506
 9861W        W28065   2.607   7.405   0.918 -0.3110  0.1107 -0.0514
 9862W        W28066   8.734   4.408   1.551  0.0401  0.1780 -0.0018
 9863W        W28067  11.937  12.883  14.081 -0.3940  0.1955 -0.3265
 9864W        W28068   3.662   0.740  10.071  0.0463 -0.3146 -0.2418
 9865W        W28069  10.541   4.629   3.859 -0.3855 -0.3225  0.1888
 9866W        W28070  17.389   1.377   4.214  0.0617 -0.1582 -0.4122
 9867W        W28071   0.439  17.768  12.680 -0.1670 -0.4534  0.1289
 9868W        W28072  17.894  17.106  15.450  0.0678 -0.0560  0.0731
 9869W        W28073  16.884   2.718  12.709  0.0578  0.0035 -0.1436
 9870W        W28074   1.053   2.627   1.664 -0.0646 -0.0247 -0.1234
 9871W        W28075   5.803   8.587   2.165  0.0206  0.3219  0.1983
 9872W        W28076   7.787   2.295   3.579 -0.0085 -0.0562  0.0909
 9873W        W28077  14.952  14.849  13.486 -0.1255  0.0516 -0.2165
 9874W        W28078   6.082  12.332   3.816 -0.3120  0.2429 -0.0961
 9875W        W28079  16.437  18.192   1.996 -0.0532 -0.1949  0.1240
 9876W        W28080   1.244   5.791   0.609 -0.1067  0.1143  0.0580
 9877W        W28081   6.220   1.940   0.990  0.1327  0.3169 -0.1514
 9878W        W28082   3.984  12.358  15.083  0.2825  0.0500 -0.0278
 9879W        W28083   4.362  10.144  14.027 -0.0668 -0.2773 -0.1568
 9880W        W28084   3.749  10.519   4.463  0.0050 -0.0148  0.3954
 9881W        W28085   9.792  11.727  13.148 -0.3208  0.3051  0.1020
 9882W        W28086  10.304  18.292   2.043 -0.0990 -0.2422 -0.1293
 9883W        W28087  13.568  18.009  11.942 -0.2344 -0.1132 -0.0309
 9884W        W28088   7.430   2.326  14.159 -0.0557  0.1879  0.2266
 9885W        W28089  12.444   8.032   0.871  0.2853  0.1856 -0.1381
 9886W        W28090  18.135   9.558  14.573  0.0252  0.2396  0.4196
 9887W        W28091  10.969   9.194   1.858 -0.0928 -0.2750  0.1002
 9888W        W28092  16.965   0.946   2.113 -0.0641 -0.1418  0.0383
 9889W        W28093  11.647   4.515   3.769 -0.0518 -0.2264  0.1796
 9890W        W28094   7.089  14.434  14.291  0.2502 -0.1561 -0.0567
 9891W        W28095   3.699   8.437   9.564 -0.0399  0.1613 -0.3075
 9892W        W28096   3.670  14.716   2.205  0.3209 -0.4060 -0.0602
 9893W        W28097   2.202   9.231  11.685 -0.0068 -0.4828 -0.1753
 9894W        W28098  14.517  16.472   4.428 -0.0961 -0.3608  0.4124
 9895W        W28099   2.395   9.764   3.552 -0.0758  0.1961  0.4282
 9896W        W28100   2.505  17.252   3.418  0.0367  0.1409  0.2728
 9897W        W28101   1.291  13.041   2.573 -0.0387 -0.1729 -0.0340
 9898W        W28102   7.253  17.769  14.922 -0.2056 -0.1461 -0.1778
 9899W        W28103   2.243  11.905   3.723  0.3132  0.2302  0.2175
 9900W        W28104   5.881  10.767  15.412 -0.3861 -0.2791  0.2228
 9901W        W28105   7.740   7.024  11.119  0.2347 -0.2150  0.1193
 9902W        W28106   9.212  16.132   2.145  0.0161  0.0128 -0.1064
 9903W        W28107   7.402   0.356  14.291 -0.0155  0.0269  0.2134
 9904W        W28108   8.422   2.161  14.663  0.0041  0.3819 -0.0140
 9905W        W28109  12.665  10.982  12.986  0.0404  0.1115  0.1326
 9906W        W28110  11.791  11.028   2.678  0.1359  0.1393  0.1551
 9907W        W28111   2.968   8.138  11.394  0.0254 -0.0270  0.1326
 9908W        W28112   9.710  10.467   0.236  0.0081  0.0732 -0.2398
 9909W        W28113   3.148   8.637   0.728 -0.2057 -0.1592 -0.0852
 9910W        W28114   7.489   4.475  14.364  0.0565 -0.0626  0.1982
 9911W        W28115  16.406  11.983   4.778 -0.0565  0.2248  0.0886
 9912W        W28116   1.378  11.386  11.733  0.0314  0.1895 -0.0980
 9913W        W28117   7.870   6.519  11.424  0.0946  0.0232 -0.1636
 9914W        W28118   1.550  12.369  13.370 -0.0144 -0.0851  0.1040
 9915W        W28119   7.770  15.678   1.899 -0.3235 -0.0294  0.3065
 9916W        W28120   9.592   0.438   3.393  0.2720  0.1902 -0.3847
 9917W        W28121   0.296   5.557  14.132  0.1878 -0.1120 -0.0980
 9918W        W28122   6.898  16.149  12.481 -0.2067 -0.0270 -0.1925
 9919W        W28123   8.626   8.569   2.842 -0.0030  0.0321 -0.0902
 9920W        W28124  18.266  17.900   4.207  0.0867 -0.1123 -0.0080
 9921W        W28125   8.203  15.200   3.575  0.0054  0.0419 -0.2726
 9922W        W28126   4.021   0.031   4.520  0.0461  0.2683 -0.1484
 9923W        W28127   7.962   8.654  13.480  0.0834 -0.2047  0.2068
 9924W        W28128  17.352  11.485  11.306 -0.1330  0.0684  0.2577
 9925W        W28129   3.604   7.017  13.990 -0.2061 -0.3019  0.2074
 9926W        W28130   7.736   1.285  13.376  0.1353 -0.1754  0.0516
 9927W        W28131  17.149   4.731  13.547 -0.2176 -0.1401  0.1782
 9928W        W28132   2.700   0.881  11.624  0.0810  0.3661 -0.3375
 9929W        W28133  14.956   1.529   2.306 -0.2686  0.0156  0.2219
 9930W        W28134  17.896   3.044   2.454  0.1702 -0.0229  0.0709
 9931W        W28135  16.212   1.959  15.014  0.0947 -0.0312  0.3084
 9932W        W28136  12.731  17.936   4.681 -0.0147 -0.0828 -0.1279
 9933W        W28137   7.382   0.021   4.425  0.1529 -0.1264  0.1510
 9934W        W28138  17.763  13.278  13.893 -0.1040 -0.3541  0.0558
 9935W        W28139  15.593  16.928  11.067  0.0053 -0.0161 -0.1472
 9936W        W28140   7.172   4.720  12.590  0.2803 -0.0158 -0.0550
 9937W        W28141  11.535  16.128   1.819 -0.1004  0.1482 -0.3592
 9938W        W28142   9.528   0.414   1.361 -0.2848 -0.1575 -0.3700
 9939W        W28143   6.549   8.178   1.754  0.1176  0.5599 -0.1070
 9940W        W28144   3.395  16.722  12.454 -0.1119  0.3024 -0.0481
 9941W        W28145   5.076  16.180  14.554  0.3066  0.1030  0.2476
 9942W        W28146  15.169  17.901  14.574 -0.1686 -0.0389  0.0603
 9943W        W28147  15.075  11.078   4.728 -0.1405  0.0307  0.1036
 9944W        W28148   8.136   4.310  13.776  0.0810 -0.4310 -0.2533
 9945W        W28149  16.503   2.322   3.409  0.1406  0.0467  0.0737
 9946W        W28150   9.773  14.638   4.176 -0.3427 -0.0500  0.0937
 9947W        W28151   8.749   0.831  14.474 -0.2580  0.0276 -0.0472
 9948W        W28152  11.084  10.880  11.413  0.0862 -0.0186 -0.1362
 9949W        W28153  14.528   7.657   1.872 -0.1143 -0.3529  0.0370
 9950W        W28154  17.130   6.161  14.287 -0.2065  0.1368  0.0903
 9951W        W28155   0.943  16.239  13.588  0.2179  0.1662 -0.3045
 9952W        W28156   4.517   3.805  13.660  0.3134 -0.3477  0.0320
 9953W        W28157   3.126   1.116  15.310 -0.0406  0.0444 -0.1547
 9954W        W28158   4.677   3.866  13.020  0.1507 -0.3388  0.1337
 9955W        W28159  12.791  10.589   2.859  0.0726 -0.4815  0.1118
 9956W        W28160   2.272  12.635  12.123  0.2846 -0.4412 -0.1813
 9957W        W28161  15.831  15.499   4.682 -0.0393  0.0062 -0.2655
 9958W        W28162   1.580  16.611  10.791  0.0501 -0.1381  0.4515
 9959W        W28163   3.704  12.795   0.640  0.0946 -0.1615  0.0753
 9960W        W28164  10.317   1.284   5.286  0.2289  0.3303 -0.2234
 9961W        W28165  11.634  16.443   4.599 -0.1752 -0.0794 -0.3491
 9962W        W28166   7.396   1.843  11.496 -0.0495  0.1365  0.5170
 9963W        W28167  18.559  17.868  11.753 -0.0164  0.1460 -0.2700
 9964W        W28168  11.647   0.857  14.718 -0.1150  0.0734 -0.1592
 9965W        W28169  15.703  10.316  14.598  0.2033 -0.1313  0.2183
 9966W        W28170   3.604   8.096  11.753 -0.0004  0.0933  0.0079
 9967W        W28171   4.434   9.551   2.352 -0.0119  0.1068 -0.0977
 9968W        W28172   9.393  10.313  13.719 -0.0227 -0.0600  0.1963
 9969W        W28173  14.761   2.206   0.015 -0.0101  0.0394 -0.3050
 9970W        W28174   6.434  11.550  11.017 -0.1073 -0.1405  0.1661
 9971W        W28175   1.486   8.904  14.806  0.2341 -0.1093 -0.1161
 9972W        W28176   4.124   7.077  11.818  0.0618  0.2525 -0.1061
 9973W        W28177  12.526  12.573   3.510  0.1042  0.0772  0.1357
 9974W        W28178   0.741  17.985  12.303 -0.2046 -0.0699 -0.1682
 9975W        W28179   3.662  14.341  10.638 -0.3247 -0.2450 -0.0881
 9976W        W28180  10.526  14.489   5.495 -0.1053 -0.0648  0.1189
 9977W        W28181   0.656   8.767   4.073  0.0853 -0.1040 -0.0045
 9978W        W28182  16.077   1.229   4.840  0.0378 -0.0230 -0.1448
 9979W        W28183   0.803   3.758  13.553 -0.0095  0.2307  0.0230
 9980W        W28184   0.000   7.665   1.542 -0.0883  0.1826 -0.3120
 9981W        W28185   5.890   9.791   1.645 -0.1804 -0.1031 -0.0632
 9982W        W28186   4.788  17.857  11.260 -0.1772  0.0060  0.0462
 9983W        W28187   4.083  16.611   2.569  0.2906  0.2220 -0.2550
 9984W        W28188   9.574  17.474  12.097  0.0190 -0.0774 -0.1485
 9985W        W28189  14.853  16.351  11.404  0.4547  0.1218 -0.0545
 9986W        W28190  13.650   3.539   2.253  0.1360 -0.0424  0.2145
 9987W        W28191   4.162   8.606   2.690 -0.1671 -0.0217 -0.0756
 9988W        W28192  17.548   9.349  11.648 -0.0105  0.0913 -0.3392
 9989W        W28193   6.400   6.806   4.589  0.0685 -0.1196 -0.0609
 9990W        W28194   4.666  12.585  14.787  0.0635 -0.2027  0.0226
 9991W        W28195   9.096  13.430   3.512  0.2191  0.0983  0.0803
 9992W        W28196   1.503   3.797  11.141  0.0261 -0.1597 -0.1705
 9993W        W28197   3.307  10.579   0.468  0.1839  0.1847  0.2189
 9994W        W28198   2.469   1.242  12.873  0.2081  0.3842  0.1061
 9995W        W28199   0.226   1.728   0.790 -0.0440  0.1104  0.2726
 9996W        W28200   1.275  13.556   2.514 -0.0181 -0.0629  0.1242
 9997W        W28201   2.358   6.714  14.067 -0.1264  0.0301  0.2705
 9998W        W28202  12.073  15.249   2.828  0.1268 -0.0317 -0.4667
 9999W        W28203  10.029  14.371   0.496  0.1410 -0.0207  0.0362
10000W        W28204  10.169   8.735  13.823  0.0930  0.1731 -0.1155
10001W        W28205  14.322  15.739  13.056  0.0197  0.1931  0.2178
10002W        W28206   0.704  10.895   5.742 -0.0544  0.0571 -0.1226
10003W        W28207  18.600   9.408   4.339 -0.0215  0.0471 -0.3295
10004W        W28208  14.950   5.560  10.752 -0.4342 -0.1765 -0.0636
10005W        W28209  10.436   3.374   0.806 -0.0809  0.0498  0.0895
10006W        W28210   9.861  15.198  14.944  0.2448 -0.0041  0.3691
10007W        W28211   0.979   8.981  10.289  0.3425  0.3054  0.0298
10008W        W28212  12.635  12.229   3.146  0.1196 -0.1558  0.3808
10009W        W28213  11.046   0.826   3.265  0.2832 -0.2228 -0.0303
10010W        W28214  15.577  12.491   0.812 -0.3472 -0.1814 -0.1794
10011W        W28215  17.148   5.215   0.505  0.1793  0.0020 -0.3284
10012W        W28216   4.206   4.376  11.711 -0.0512 -0.3891  0.1138
10013W        W28217  13.991  13.777   4.667  0.1404 -0.2018  0.1673
10014W        W28218  12.508  12.241   1.373 -0.5715 -0.0166  0.0504
10015W        W28219  10.801   9.049  13.180  0.2459 -0.0562  0.2652
10016W        W28220  16.786   1.854  12.103  0.1131  0.2166 -0.0133
10017W        W28221  13.321  10.344  14.653  0.0241  0.1003  0.1214
10018W        W28222   6.923  12.295  15.432 -0.2413 -0.0980 -0.0150
10019W        W28223   2.952   6.954  11.598  0.3825 -0.1534 -0.0643
10020W        W28224   3.277  11.664   5.224  0.0973 -0.0157 -0.1769
10021W        W28225   6.482  17.760  12.882  0.1990  0.0856  0.0888
10022W        W28226  15.853  16.746   0.537 -0.0462 -0.0557 -0.1030
10023W        W28227   8.787   7.662   4.068 -0.5086 -0.1620  0.0539
10024W        W28228  13.770  17.465   1.353 -0.1147 -0.2479 -0.2591
10025W        W28229   3.586   5.479  14.128  0.1065  0.1242  0.2172
10026W        W28230  18.323   9.477   0.182 -0.1155  0.2470 -0.1212
10027W        W28231   6.696   8.168   0.031  0.2337 -0.2103 -0.0135
10028W        W28232   4.402   8.391   0.341  0.2360 -0.1997 -0.1543
10029W        W28233   7.592  16.949  12.372 -0.0516  0.1187 -0.0967
10030W        W28234   2.917   8.431   2.947  0.0466  0.0965  0.0542
10031W        W28235  10.729   0.828  11.516  0.0726 -0.0709  0.0392
10032W        W28236   3.997  15.592   2.692 -0.3558 -0.2304 -0.2088
10033W        W28237   3.327   2.387   4.058  0.4071  0.2514  0.0254
10034W        W28238   0.463  12.164  12.697  0.1582 -0.1306  0.0970
10035W        W28239  15.648  15.241  15.303 -0.0957  0.3731  0.2248
10036W        W28240  18.232  16.140   3.730 -0.1754  0.2751 -0.2383
10037W        W28241   7.969   6.964  13.432 -0.1153  0.0092  0.1565
10038W        W28242  15.607  17.347  13.605 -0.0738  0.2018 -0.2428
10039W        W28243  16.415  13.492   4.739  0.3281 -0.1188 -0.1378
10040W        W28244  10.731  12.545  11.822  0.2429 -0.0807 -0.0814
10041W        W28245   3.420  15.330   5.429 -0.0475  0.1640 -0.1682
10042W        W28246   4.783  13.656  12.628  0.0066  0.2195  0.3166
10043W        W28247   9.704   4.156   3.076 -0.0665 -0.6326 -0.0168
10044W        W28248  11.201  12.406  14.514 -0.0308  0.0019 -0.1231
10045W        W28249  18.296  10.180  12.192  0.1177 -0.3127  0.2574
10046W        W28250   8.114   8.762  11.810  0.0528 -0.1882 -0.0692
10047W        W28251  13.657  12.539  12.994 -0.0500 -0.0578 -0.2685
10048W        W28252  16.710  16.144  12.966  0.0084  0.0824  0.1755
10049W        W28253   1.122   5.521  13.561  0.1348  0.0789  0.0794
10050W        W28254  15.345  15.612   1.558  0.1996  0.0876  0.2103
10051W        W28255   2.432   7.840  15.271  0.0592  0.5367 -0.1323
10052W        W28256   4.179   5.433  14.787 -0.2075  0.0682  0.0221
10053W        W28257  11.187   4.716   0.752  0.3057 -0.0891  0.1158
10054W        W28258   5.898   5.004  10.364 -0.2772 -0.0326 -0.3343
10055W        W28259   1.477   9.826  15.248 -0.0521  0.0375  0.0138
10056W        W28260   7.151   7.960   3.835 -0.0990  0.2742 -0.0128
10057W        W28261   2.088  12.694  11.136 -0.1988  0.1085 -0.1129
10058W        W28262   3.618   0.818  13.252  0.5203  0.1643  0.0534
10059W        W28263   2.939   4.793  14.895  0.0802  0.0472  0.0292
10060W        W28264  15.333   1.167  11.879 -0.0402 -0.2153 -0.2238
10061W        W28265   0.241   2.252  14.542 -0.2337 -0.1285 -0.0756
10062W        W28266  16.052   6.012  12.737 -0.0123  0.0610  0.2273
10063W        W28267  13.333  16.948   4.004 -0.1554 -0.2284 -0.0766
10064W        W28268  10.152   2.037   4.138 -0.1113  0.3159 -0.0847
10065W        W28269   7.839  12.598  13.476 -0.2282  0.1563 -0.1162
10066W        W28270   2.447  14.119   1.777  0.2604  0.0382  0.0552
10067W        W28271   0.852  12.064   1.172  0.1077 -0.0309  0.1324
10068W        W28272  16.225   3.252  12.216  0.0672  0.0155 -0.2971
10069W        W28273   2.872   1.868  10.914  0.0418 -0.0244 -0.2430
10070W        W28274   8.323   4.555  12.550  0.0868  0.2123  0.0824
10071W        W28275   0.667  15.030   2.480  0.1078  0.0252  0.1897
10072W        W28276   2.765  14.213   5.659 -0.1508 -0.0043 -0.0378
10073W        W28277  17.388   2.235   2.312  0.1228  0.3181  0.0032
10074W        W28278   3.508  17.559  14.284  0.1486 -0.1780 -0.0687
10075W        W28279   9.056   4.852  10.982 -0.3594 -0.1271 -0.2254
10076W        W28280   4.005  16.460   3.900 -0.0275 -0.1442 -0.2787
10077W        W28281   9.697   5.465  13.730  0.0297  0.1095  0.1628
10078W        W28282  15.596   7.445  11.788  0.0377  0.0999 -0.0230
10079W        W28283   7.331   3.040   1.974  0.1718  0.0435 -0.0480
10080W        W28284  17.195  17.564   3.362 -0.0359 -0.0153 -0.3472
10081W        W28285   3.049  10.126  14.404 -0.1430  0.0642  0.0590
10082W        W28286  13.210  16.139  14.139 -0.2112 -0.3007  0.2022
10083W        W28287   4.790   7.931   2.832  0.0278  0.1030  0.2733
10084W        W28288  14.618  12.057  15.439  0.3177 -0.1212 -0.1166
10085W        W28289   1.570  13.888  14.918  0.2941  0.0488  0.2378
10086W        W28290   0.435   6.427   2.559 -0.0394 -0.3950 -0.0456
10087W        W28291   4.855  11.089  14.398  0.0617 -0.0102  0.1925
10088W        W28292   8.088   2.925   0.251  0.0205 -0.2411  0.0595
10089W        W28293   6.075  10.740   1.309 -0.1370 -0.0413 -0.1846
10090W        W28294   6.455   8.723  13.770 -0.1459 -0.2182 -0.1525
10091W        W28295   3.734  10.729   1.317 -0.3555 -0.1201 -0.0233
10092W        W28296   4.151   0.913   3.237  0.1181 -0.2302 -0.3375
10093W        W28297   1.330  17.033  15.357  0.2963 -0.1191 -0.0962
10094W        W28298   3.588  15.431   1.954  0.4994 -0.1367  0.0002
10095W        W28299  14.759   8.001   0.969 -0.1526  0.0880  0.1462
10096W        W28300   0.262  15.922  10.847 -0.0740 -0.3064  0.3384
10097W        W28301  15.316  14.769  12.588 -0.2807 -0.0861  0.1543
10098W        W28302   6.797   5.696  11.723 -0.3193  0.0514  0.0928
10099W        W28303   4.497  16.598  15.404  0.2438  0.2692 -0.0619
10100W        W28304   0.068   8.428  15.044 -0.3333 -0.0092 -0.3615
10101W        W28305   8.568  14.310   4.554 -0.2573 -0.1053 -0.2053
10102W        W28306  14.792  10.973  14.116  0.0659 -0.0909 -0.2978
10103W        W28307   3.819   7.794  14.571 -0.3110  0.1844  0.1002
10104W        W28308   9.498   6.844   3.927 -0.1046 -0.0255 -0.1699
10105W        W28309   4.773  16.923   0.307  0.3128 -0.0419 -0.1029
10106W        W28310  17.644   1.512   2.230 -0.1489  0.2654  0.3247
10107W        W28311  12.491  11.773   3.309  0.1624 -0.1410  0.2583
10108W        W28312  14.421   9.915   4.509 -0.4314  0.2515  0.1080
10109W        W28313  11.396   5.685   2.890 -0.0677  0.0643  0.1526
10110W        W28314   5.988  11.274   0.059 -0.2673 -0.1742  0.0677
10111W        W28315   8.984  13.667   4.959  0.0435  0.0962  0.3132
10112W        W28316  11.962   0.848  15.159  0.1182 -0.0755 -0.0420
10113W        W28317  12.036  16.116   4.491 -0.2184 -0.0672 -0.4658
10114W        W28318   6.452  16.258  11.317 -0.0115 -0.0440  0.1586
10115W        W28319  18.011  14.533   4.150  0.2289 -0.0532 -0.0306
10116W        W28320   1.208  16.268  14.901  0.1560 -0.0736  0.2183
10117W        W28321   9.589  13.161   4.300  0.2241 -0.5520 -0.2837
10118W        W28322   7.978   6.674   3.446  0.0640 -0.1170  0.0552
10119W        W28323  10.850   2.128  14.235 -0.3270 -0.2909  0.1250
10120W        W28324   5.068   0.209  14.882  0.1362  0.0759 -0.2479
10121W        W28325  10.367  15.611  11.160  0.1340  0.0533  0.4746
10122W        W28326   6.250   6.816   2.577 -0.5614  0.4074  0.2385
10123W        W28327  16.766  15.175  12.651 -0.2772 -0.2128  0.3315
10124W        W28328  16.743  11.890  12.507 -0.3452  0.0276  0.0327
10125W        W28329   3.582   7.822   0.301 -0.1820  0.1816  0.0116
10126W        W28330  17.922  17.550   3.955  0.0635 -0.0537 -0.0876
10127W        W28331  11.128   1.697  14.246  0.1712  0.1047  0.0146
10128W        W28332   5.603  12.100  13.758  0.3343 -0.2490 -0.1388
10129W        W28333  16.918  13.334  11.672 -0.0728 -0.0927  0.0240
10130W        W28334  14.956   1.907  14.017 -0.2919  0.1701 -0.0743
10131W        W28335  12.815  13.322   9.784  0.2164  0.0304  0.3213
10132W        W28336  17.699   9.365  13.603 -0.1791 -0.3767 -0.0326
10133W        W28337  11.454   5.884  13.858  0.2402 -0.0432  0.0899
10134W        W28338   4.152  14.090  12.143  0.2132 -0.0266 -0.1576
10135W        W28339  11.617  10.862  10.756  0.2936 -0.1156  0.2827
10136W        W28340  14.302  12.208  12.299 -0.2232 -0.0867  0.0077
10137W        W28341   1.395   0.437  11.142  0.0935 -0.1863  0.0559
10138W        W28342  16.895   1.462  10.344  0.0681 -0.1183 -0.0570
10139W        W28343  12.682  10.634   4.016 -0.3061 -0.3656  0.0382
10140W        W28344   1.736  17.328  12.438 -0.0682  0.1671  0.0589
10141W        W28345   9.594  13.639   1.930  0.2175 -0.0535 -0.1213
10142W        W28346  14.168  16.794   4.691  0.0213  0.1484  0.1764
10143W        W28347   3.374   0.395  14.066 -0.1663 -0.0061  0.2977
10144W        W28348   7.381   7.566  11.166  0.1562 -0.0218  0.2418
10145W        W28349   3.876  16.582   0.158 -0.2074 -0.0806 -0.1698
10146W        W28350  12.775  18.595   4.657  0.3799 -0.0700 -0.2932
10147W        W28351  11.994   7.379   2.201  0.2383  0.0120 -0.0045
10148W        W28352  17.670   0.753   0.944 -0.0219 -0.2104  0.1567
10149W        W28353  10.199   9.716   0.163  0.0251 -0.1061 -0.1022
10150W        W28354   0.465  16.226  13.304 -0.0269  0.2766 -0.1176
10151W        W28355   7.363  15.518   5.089 -0.0462 -0.1173 -0.0885
10152W        W28356   7.084   4.525   1.023 -0.1842  0.2535  0.1013
10153W        W28357   5.542   5.920   0.571 -0.0988 -0.0840  0.2632
10154W        W28358   4.077  14.219   0.506  0.2016  0.6341  0.0197
10155W        W28359  10.618   3.268  14.414  0.1751 -0.0062 -0.1205
10156W        W28360   6.614   4.224  14.815 -0.0207 -0.0605 -0.3102
10157W        W28361   6.095  18.576  11.757 -0.1428  0.0169 -0.1614
10158W        W28362  13.421  10.151  15.123  0.0936  0.2537  0.0263
10159W        W28363  13.529  12.620   3.172 -0.0255 -0.3767  0.1174
10160W        W28364   4.689   9.112   4.108 -0.0919  0.0381 -0.2245
10161W        W28365   7.618   8.913   1.785 -0.4650 -0.0824 -0.2064
10162W        W28366   6.716  10.599   4.007  0.0316 -0.0790  0.3477
10163W        W28367  18.381   7.628   0.546  0.1107  0.2401  0.0353
10164W        W28368  10.073   8.920   0.393  0.1394  0.0427  0.2750
10165W        W28369   1.836  12.286   2.124  0.0097  0.1722 -0.0781
10166W        W28370  14.957  15.063   2.369 -0.1191 -0.0054 -0.0498
10167W        W28371  10.025  10.624  14.792 -0.1532  0.0520 -0.0302
10168W        W28372  17.689   8.495  14.947 -0.0833  0.0405  0.1313
10169W        W28373  17.046   3.496  13.334  0.1967  0.0044 -0.1013
10170W        W28374   1.860   9.020  11.427  0.2397 -0.2066 -0.1709
10171W        W28375  16.846   5.054   0.951  0.1734  0.0898 -0.2411
10172W        W28376   9.196   7.440   1.711 -0.1243 -0.2636  0.2243
10173W        W28377  15.164   4.534  12.665 -0.1363  0.3898 -0.0944
10174W        W28378  15.733   3.485  11.328  0.2087  0.3391 -0.0459
10175W        W28379   9.160   6.174  12.796 -0.2645 -0.1130 -0.2227
10176W        W28380   1.011  13.679  13.905  0.1435  0.3024  0.1600
10177W        W28381  10.361   7.610  10.652 -0.0371  0.1021  0.1606
10178W        W28382  13.644   5.713  11.083  0.0395 -0.3086 -0.2014
10179W        W28383   1.331  13.978   4.823 -0.0193 -0.0267  0.2633
10180W        W28384   0.316   3.340   1.588  0.0206 -0.0709  0.1416
10181W        W28385   4.927   3.959  14.382 -0.1211 -0.1129 -0.0434
10182W        W28386   3.405   6.857  11.163  0.3147 -0.2454 -0.2535
10183W        W28387  15.190  10.379  14.556  0.2184 -0.0009 -0.2691
10184W        W28388  15.326  10.060  12.949 -0.0976 -0.0273 -0.1805
10185W        W28389   6.974   4.773   2.048 -0.1275 -0.2935  0.1992
10186W        W28390  14.325  13.072   3.659 -0.0083 -0.0875  0.0475
10187W        W28391   6.478  14.407  12.572  0.0256  0.1270 -0.3623
10188W        W28392   7.884  12.956   2.155 -0.2136  0.1539 -0.0143
10189W        W28393  16.532  11.774   3.651  0.0417  0.3479  0.3034
10190W        W28394   5.345  15.112   1.396  0.2597 -0.1981  0.0192
10191W        W28395  16.744  11.547   2.776  0.2642 -0.1438 -0.1032
10192W        W28396  16.552   0.153  14.111 -0.0699  0.1425  0.1585
10193W        W28397  15.518   8.012   5.762  0.2096 -0.6037 -0.1173
10194W        W28398  15.050   0.270  12.848 -0.1458  0.1113  0.1439
10195W        W28399  16.840   1.671   4.101 -0.1186 -0.1932 -0.0940
10196W        W28400   6.157   4.855   3.692 -0.0153  0.1251 -0.2798
10197W        W28401  17.260  14.677   1.617  0.0491  0.1426  0.3273
10198W        W28402  11.400  16.924   2.021  0.2281  0.0368  0.1468
10199W        W28403   7.292  11.009   2.691  0.3089 -0.0044 -0.0352
10200W        W28404   4.070   9.319   4.721 -0.1629 -0.1364 -0.2957
10201W        W28405   1.318  15.604  11.445  0.3908  0.0848  0.0493
10202W        W28406   0.727   2.240   2.960  0.0194  0.2798  0.0339
10203W        W28407  11.144  17.259  13.113 -0.0080 -0.1569  0.0171
10204W        W28408   1.380   6.140  13.014  0.0441  0.1068  0.0355
10205W        W28409   0.831  14.634   0.854 -0.0580  0.0116  0.0600
10206W        W28410   5.031   3.825   3.770  0.1018 -0.3428  0.4107
10207W        W28411  15.853  11.632   5.320 -0.1001 -0.2272 -0.1101
10208W        W28412   6.402   6.851   0.188 -0.0299  0.0115  0.1223
10209W        W28413  11.069   7.959   2.003  0.1056 -0.2312 -0.0082
10210W        W28414  13.216  17.220  11.755  0.3587 -0.0432  0.0076
10211W        W28415  17.970  13.585   0.086  0.0024  0.0409 -0.0115
10212W        W28416  12.176   3.386  13.619 -0.0961  0.1365 -0.2254
10213W        W28417  17.529   4.632  11.869  0.2682  0.1529  0.1235
10214W        W28418  18.515   0.379  12.439  0.0122 -0.0318  0.1547
10215W        W28419  14.287   0.539   1.835  0.1224 -0.0748  0.0087
10216W        W28420  12.601   2.089   3.184 -0.1315 -0.0363 -0.1107
10217W        W28421   4.000  14.089   0.965  0.1295 -0.0624 -0.4342
10218W        W28422  10.163  13.073  11.291 -0.1893  0.0062 -0.0464
10219W        W28423  18.017   1.943  13.650  0.0583  0.2307  0.0447
10220W        W28424  17.992   1.824   1.521  0.0431  0.0304 -0.0596
10221W        W28425  17.203  14.697   2.513 -0.2281  0.2086  0.1797
10222W        W28426  10.597   5.140  13.232  0.0163 -0.0584  0.2768
10223W        W28427   9.175   9.249   1.781  0.0104  0.2626  0.2172
10224W        W28428  13.612  10.713   3.356  0.0905  0.2125 -0.0738
10225W        W28429   0.621   5.052   9.825  0.0267 -0.3703  0.2899
10226W        W28430   9.841   5.211   1.967 -0.1179 -0.0415  0.1501
10227W        W28431   7.918   0.023   1.648  0.2094  0.3118  0.0868
10228W        W28432   0.456   5.226  14.970 -0.0832  0.0640  0.0436
10229W        W28433   4.346  18.133  11.457 -0.0397  0.0058  0.0737
10230W        W28434   1.501   6.601   4.415 -0.0251 -0.1374 -0.1273
10231W        W28435  15.432   3.646   3.718  0.2467 -0.0406 -0.0387
10232W        W28436  16.397   0.622  12.793  0.3602  0.1272 -0.1128
10233W        W28437  13.213  14.527   4.697  0.1662  0.1679  0.3425
10234W        W28438   5.066   6.975  11.634 -0.4434  0.0376 -0.1533
10235W        W28439   3.238   2.049  13.107  0.2003  0.2524  0.0783
10236W        W28440  11.066  12.305   3.484  0.1801 -0.0569 -0.0383
10237W        W28441  13.000   8.441  14.205  0.2827 -0.0259 -0.0715
10238W        W28442   6.029  12.002  12.817  0.1482  0.1697 -0.2247
10239W        W28443  17.666  18.281   2.981 -0.3102  0.0526  0.1159
10240W        W28444  11.821   9.412  12.403 -0.0261  0.1289 -0.0985
10241W        W28445  11.113  15.230   1.968  0.1879  0.1390  0.0700
10242W        W28446   7.554   6.546   3.121 -0.1400  0.1835  0.0316
10243W        W28447  11.137  11.643   2.322 -0.4668 -0.4828 -0.1064
10244W        W28448  15.532   0.687   2.589 -0.0800  0.0666 -0.4096
10245W        W28449  15.929  14.341   4.735  0.1650 -0.0518  0.1097
10246W        W28450   0.909   6.675  13.381 -0.0746 -0.2891 -0.1439
10247W        W28451   2.738   9.036  11.616  0.0994 -0.2695 -0.3253
10248W        W28452   7.413  10.398   1.365 -0.0996  0.1369 -0.3621
10249W        W28453  14.573  13.644   1.966  0.0416  0.2059 -0.1326
10250W        W28454  14.135  11.291   3.554 -0.2668  0.0727 -0.0664
10251W        W28455   9.879  17.243   2.788 -0.1454 -0.4110  0.2667
10252W        W28456   7.488   7.230   2.320 -0.1419 -0.3229  0.1075
10253W        W28457  11.839   1.940   3.302 -0.1661 -0.0936  0.3758
10254W        W28458  10.518   3.801   2.044  0.1989  0.4908 -0.0258
10255W        W28459  15.020   6.938   2.066 -0.0094 -0.0066 -0.5088
10256W        W28460  10.456  14.943  14.649 -0.1369 -0.0815  0.3354
10257W        W28461  16.576   3.727  14.811 -0.2172 -0.0958 -0.0013
10258W        W28462   5.666   6.422  13.542  0.2354  0.1722  0.1911
10259W        W28463  14.341   1.390  11.179  0.0168  0.2222  0.2955
10260W        W28464  18.057   2.906   1.966 -0.0678 -0.2114 -0.0773
10261W        W28465   3.688   6.186   3.619 -0.1076 -0.1546 -0.0806
10262W        W28466  15.514  10.458  10.895  0.0997 -0.1291  0.0343
10263W        W28467   6.656   5.151   2.213 -0.1557  0.0805 -0.0146
10264W        W28468   1.622  16.044   3.827  0.2844  0.0813  0.3273
10265W        W28469   4.592   3.348  14.609 -0.1613 -0.2153  0.2191
10266W        W28470   6.370   8.545  12.389  0.2466  0.4741 -0.0081
10267W        W28471   1.723  17.729   0.355 -0.1363 -0.3263 -0.3583
10268W        W28472  14.982  16.566  12.478  0.1756  0.3736  0.1513
10269W        W28473  12.705   2.383  14.094 -0.2078 -0.2438 -0.1359
10270W        W28474   1.889  11.907  14.067 -0.0017  0.0388 -0.1929
10271W        W28475   1.067  18.504  15.205 -0.2287  0.0630  0.0600
10272W        W28476   1.667   4.651  12.286 -0.0839  0.2150 -0.0703
10273W        W28477   6.605  12.746   2.792 -0.1716 -0.0861 -0.0206
10274W        W28478  15.466   3.863   2.421 -0.2652  0.0775 -0.1084
10275W        W28479  13.266  15.559  14.198 -0.1181  0.2522  0.0713
10276W        W28480  16.857   3.436   2.647 -0.1062  0.2429  0.2775
10277W        W28481  15.546   0.008   2.274  0.2688 -0.2127  0.1779
10278W        W28482   3.857   4.645  14.425 -0.0264 -0.1513  0.1428
10279W        W28483   7.757  11.852   0.536 -0.2388 -0.0759 -0.0465
10280W        W28484   6.006  17.617   1.780  0.0758 -0.2132  0.3408
10281W        W28485   3.735  10.568  12.409  0.1689  0.1235 -0.0042
10282W        W28486  12.356  13.558   9.928  0.1875  0.0284  0.3333
10283W        W28487   2.436  11.693  14.329 -0.0235 -0.0216  0.0071
10284W        W28488  15.714  17.535  12.216  0.1723  0.3842  0.1066
10285W        W28489  11.950  15.821   4.032 -0.1317 -0.1421 -0.0430
10286W        W28490   3.862   1.343  11.293 -0.2890  0.1391 -0.0222
10287W        W28491   8.455  16.236  15.338  0.0602 -0.0326 -0.2217
10288W        W28492   6.406   7.317   0.189  0.1682 -0.0879 -0.1564
10289W        W28493  16.186  18.579   1.708  0.2037 -0.0723  0.1918
10290W        W28494  15.636  10.122  15.023  0.0199  0.0453 -0.1876
10291W        W28495  18.382  11.470  11.299  0.2161 -0.0086  0.4079
10292W        W28496  15.222  10.653   3.587  0.1239  0.2075  0.2671
10293W        W28497   5.438  12.539  14.178  0.1468  0.0324  0.2657
10294W        W28498  12.793   7.637  12.236 -0.0460 -0.2201  0.0414
10295W        W28499  15.245   4.719   3.171  0.2025  0.0341  0.0958
10296W        W28500  18.198  15.271   4.286 -0.1801  0.1408 -0.2134
10297W        W28501   3.394   4.911  11.430  0.0846 -0.2250  0.2523
10298W        W28502   2.184   7.601  12.540 -0.0394  0.0457 -0.2463
10299W        W28503  11.762  16.103  10.024 -0.2343  0.0027  0.1664
10300W        W28504  10.658   9.949   2.164  0.2625  0.0345 -0.3594
10301W        W28505   5.338   9.976   1.354  0.2333  0.0199  0.3084
10302W        W28506   2.757  12.691  14.428 -0.0287  0.0476 -0.0159
10303W        W28507   3.852   5.080   3.492  0.1700  0.0012 -0.0627
10304W        W28508   6.623  14.660   1.973 -0.0484  0.2157 -0.3835
10305W        W28509  10.315  10.009   9.735 -0.0842 -0.0052 -0.1520
10306W        W28510  16.768  16.458  11.971  0.0890 -0.3057  0.1533
10307W        W28511   1.578  14.360   0.768 -0.0632 -0.0669  0.0346
10308W        W28512  12.238   9.655  10.325  0.2036 -0.1367 -0.1597
10309W        W28513  16.255   8.675   0.736 -0.0648 -0.0266  0.1123
10310W        W28514   3.070  10.594   1.335  0.1485  0.0564 -0.1026
10311W        W28515   6.622  12.366   3.122  0.1968 -0.1096 -0.1861
10312W        W28516   9.361  16.549   1.103  0.3645 -0.2301 -0.0046
10313W        W28517  15.965  18.060  13.508 -0.2465  0.0419 -0.4201
10314W        W28518   2.378   1.611  13.944  0.2118  0.0125 -0.0709
10315W        W28519  17.431  18.388  12.375  0.0770 -0.1811 -0.0250
10316W        W28520  16.550   0.073   3.822  0.2188 -0.2819 -0.1315
10317W        W28521   5.748   9.726   2.138 -0.0008 -0.3663  0.4652
10318W        W28522   5.179  11.308   1.154 -0.0093 -0.0082 -0.0681
10319W        W28523   2.628   1.173   2.521 -0.1620 -0.0726  0.0003
10320W        W28524   8.866   8.683   0.129  0.1178  0.1522 -0.0155
10321W        W28525   6.642   3.295  11.376  0.1741 -0.0814  0.2464
10322W        W28526  10.595   7.248  12.175  0.0686  0.0519  0.5192
10323W        W28527   2.814  10.562   3.899 -0.3031  0.2679 -0.0083
10324W        W28528   0.652  10.508  14.343  0.0020 -0.0432 -0.1907
10325W        W28529  13.807   0.048  15.274  0.0491 -0.1388 -0.0521
10326W        W28530  10.650  12.716  13.420  0.1836  0.0437  0.2071
10327W        W28531   7.490  11.001   1.610 -0.2128  0.1944 -0.1172
10328W        W28532   7.005  16.870   0.945 -0.1625  0.1177 -0.0144
10329W        W28533   3.292  11.041  13.795 -0.1061  0.3723 -0.0775
10330W        W28534   4.297  16.507   0.680  0.0668  0.0905 -0.0169
10331W        W28535   4.272  16.554  13.834  0.1190  0.0095 -0.1812
10332W        W28536  13.516  16.463   2.000 -0.2157  0.0138  0.1358
10333W        W28537   2.946   6.817   2.099  0.0625  0.2236 -0.2435
10334W        W28538   3.027  10.546   3.433  0.0155  0.1676 -0.2447
10335W        W28539   4.638  10.463   3.469 -0.1283  0.1895  0.2908
10336W        W28540   0.690  10.267   0.853  0.1931  0.2767  0.2519
10337W        W28541  16.851  15.349   5.008  0.3587  0.0123  0.0213
10338W        W28542   5.873  17.010   3.651  0.0354  0.2121 -0.4130
10339W        W28543   4.518  11.123  13.018  0.0721  0.0442  0.1889
10340W        W28544  14.172   4.761   0.618 -0.0132 -0.1926  0.2654
10341W        W28545   0.488  12.357  14.284  0.1410  0.1194  0.1193
10342W        W28546   3.993   5.225   1.954  0.3913  0.2316  0.2617
10343W        W28547   7.345   8.296   3.549  0.2920  0.0547 -0.2967
10344W        W28548  12.144  10.426   0.374  0.0498  0.2627  0.0453
10345W        W28549  15.472   1.552   2.173  0.0056 -0.1039  0.1854
10346W        W28550  11.951   6.540   1.793  0.2090 -0.2343  0.0517
10347W        W28551   0.646  12.701  10.767 -0.0057  0.1275 -0.0343
10348W        W28552   1.391   9.095  11.328 -0.1100 -0.0768  0.5652
10349W        W28553   1.496  12.987  12.418 -0.2487 -0.1732  0.1618
10350W        W28554   7.135   8.980  11.826 -0.1932 -0.0966  0.3697
10351W        W28555   1.946   5.476   0.625 -0.3270  0.1312  0.0692
10352W        W28556  12.065   7.741  14.808 -0.0517 -0.2258  0.2106
10353W        W28557  18.233   2.177   2.720  0.0003 -0.6298  0.1125
10354W        W28558   7.067  10.328  11.332 -0.2499 -0.2643  0.1408
10355W        W28559   5.002  10.356  12.530 -0.1466 -0.0383  0.0915
10356W        W28560   5.178  13.201  13.949  0.1369  0.3162  0.2781
10357W        W28561  11.860   7.565   4.359 -0.2375  0.2484 -0.2321
10358W        W28562  13.554   6.196   3.665 -0.1247 -0.1988  0.1611
10359W        W28563  13.891   7.883   1.497 -0.1088  0.0532  0.0433
10360W        W28564   3.865  13.635   4.928  0.0126 -0.1246  0.2849
10361W        W28565  12.519  15.485  10.089  0.1079 -0.0665  0.2268
10362W        W28566   8.192  14.292  10.201 -0.1032  0.1368  0.2617
10363W        W28567  15.683   0.996   4.619  0.1798  0.0921 -0.1737
10364W        W28568  16.719   9.341  13.722  0.0645 -0.2487 -0.1487
10365W        W28569  13.541   4.395   0.711  0.0442  0.1254  0.1147
10366W        W28570   6.245  17.540   0.573  0.0532 -0.1250  0.0398
10367W        W28571  15.624  13.106  14.491  0.0178 -0.5408  0.0099
10368W        W28572  10.974   8.345  13.574 -0.1265  0.0737 -0.2865
10369W        W28573   8.065  11.673   0.020 -0.2914 -0.0974 -0.2543
10370W        W28574   2.884  18.314   0.531 -0.1978 -0.1328 -0.1183
10371W        W28575  13.095  12.343   3.671  0.1147 -0.1434 -0.0596
10372W        W28576   9.585  17.854   0.652 -0.0707  0.1311  0.0132
10373W        W28577  12.040   6.639   2.280 -0.0168  0.0198 -0.0558
10374W        W28578  16.491  14.218   1.748 -0.0076 -0.1651 -0.0380
10375W        W28579   6.849  18.105  12.608 -0.0947 -0.0498 -0.1543
10376W        W28580   1.832  11.773  13.265  0.0544  0.0636 -0.1504
10377W        W28581   0.319   5.685  12.841  0.2683 -0.2155  0.0838
10378W        W28582  13.807   5.004  12.765  0.1098  0.1147 -0.1413
10379W        W28583   2.985  10.339  12.756  0.0395 -0.2123 -0.1111
10380W        W28584   5.415   1.176  15.423  0.1500 -0.4106  0.2183
10381W        W28585   1.450   4.574   1.432 -0.1901 -0.0352 -0.0299
10382W        W28586  12.245   6.147  12.775 -0.1613 -0.1790  0.2981
10383W        W28587  14.267  13.777   5.072 -0.2657 -0.0773  0.1279
10384W        W28588   2.672   2.638  13.409  0.3204  0.2219 -0.1104
10385W        W28589   7.402  17.934  11.726  0.0128 -0.0733  0.0410
10386W        W28590  14.167  15.596  11.973 -0.0616 -0.1046 -0.0191
10387W        W28591  14.676  15.691  14.348 -0.0996  0.3538  0.3415
10388W        W28592   4.382   6.118  15.279  0.0081 -0.3208 -0.0241
10389W        W28593   0.448  17.456   0.195 -0.1018  0.1540  0.3296
10390W        W28594  16.360   3.438   0.902  0.0625 -0.0029  0.1056
10391W        W28595   4.871  15.809   0.356 -0.2685  0.0484 -0.3038
10392W        W28596  17.546  16.727   0.083  0.2844 -0.1266 -0.0252
10393W        W28597   1.483   9.686  13.884 -0.2399  0.3275 -0.1201
10394W        W28598  10.447  18.542  15.272  0.1910 -0.2353  0.2308
10395W        W28599   6.465  10.622   0.130  0.4398 -0.3692 -0.0903
10396W        W28600   5.798  14.348   3.249 -0.0513 -0.0231 -0.0686
10397W        W28601   1.994  14.004   1.955  0.0143 -0.1961 -0.0768
10398W        W28602   4.944   1.438   3.815  0.0063  0.3467 -0.0700
10399W        W28603  13.653   0.597  11.270 -0.3313  0.0799 -0.1724
10400W        W28604   4.303   6.756   3.166 -0.1513  0.2256  0.1829
10401W        W28605   7.115   4.612  13.958  0.0852  0.2011  0.0619
10402W        W28606  17.084   9.753  13.468  0.1226  0.0331 -0.2022
10403W        W28607  16.173  12.410   1.580  0.2757 -0.2024  0.0346
10404W        W28608  16.351   3.805   1.299  0.0965 -0.0140 -0.1126
10405W        W28609  12.251   9.758  10.859 -0.2450 -0.0016  0.0794
10406W        W28610  18.072   2.123  11.595  0.1278 -0.1359  0.2728
10407W        W28611   2.063   4.187  15.406  0.2098  0.2557 -0.2649
10408W        W28612   1.294  12.262   4.026  0.5093 -0.0992 -0.0161
10409W        W28613   9.476   9.419  13.841 -0.0831 -0.1085  0.3572
10410W        W28614  17.441  12.483  15.199 -0.2590 -0.0050 -0.3591
10411W        W28615  15.885  17.336   2.955 -0.2280  0.1294  0.1928
10412W        W28616  10.645   5.060   4.089 -0.4246 -0.1898  0.3401
10413W        W28617   8.319  17.636  14.516 -0.4414  0.1021 -0.2380
10414W        W28618  12.986   5.731  12.020 -0.0984 -0.4415 -0.2730
10415W        W28619   2.594  16.733   3.548  0.0455 -0.1100  0.1889
10416W        W28620  14.332  15.387   1.769 -0.0716  0.0579 -0.5960
10417W        W28621   0.271   3.502  12.832 -0.1860  0.0348  0.1114
10418W        W28622   4.844   1.026  12.053 -0.0348  0.2910  0.0255
10419W        W28623  14.965  14.836  14.809 -0.4487 -0.0157  0.0682
10420W        W28624   8.897  11.786  11.487 -0.1398  0.2658  0.0572
10421W        W28625  12.961   0.174   3.814  0.1130 -0.0712 -0.0285
10422W        W28626  17.046   1.530   3.410  0.1154 -0.0488 -0.1455
10423W        W28627   9.480  12.223   5.786 -0.0448 -0.0124  0.0081
10424W        W28628   0.065   6.852   2.539  0.1994  0.2428  0.0535
10425W        W28629  10.418   8.033   1.196 -0.3369  0.0668  0.1506
10426W        W28630   7.834   0.810   0.992  0.3986 -0.0635  0.1205
10427W        W28631   3.363   5.824  11.997  0.0244  0.0600 -0.0908
10428W        W28632  17.554  15.670   0.504 -0.1101  0.0161 -0.2366
10429W        W28633  13.114  16.250  12.646 -0.3029 -0.4611 -0.2192
10430W        W28634  10.093   0.011  14.911  0.0224 -0.2788  0.0908
10431W        W28635   5.257  11.752   1.487 -0.1674 -0.0995  0.0644
10432W        W28636  18.282   9.448   3.837 -0.3463  0.2428 -0.1132
10433W        W28637   0.874   3.740   3.737  0.0998 -0.0156 -0.1213
10434W        W28638   4.362   5.068   2.777 -0.0774  0.0183  0.2320
10435W        W28639  17.335   5.838   0.004 -0.2745 -0.0287 -0.3735
10436W        W28640  12.020   1.946  13.783  0.1651  0.0286  0.1981
10437W        W28641  17.210  11.577  12.669  0.2580 -0.0002  0.0367
10438W        W28642  16.114  12.313   3.496 -0.0384 -0.0514  0.3247
10439W        W28643   3.845   7.481   1.075  0.1090  0.0688 -0.0384
10440W        W28644   9.162  17.528   0.711  0.0910 -0.1304  0.0443
10441W        W28645  13.238   0.872  11.613 -0.0105  0.2480 -0.2114
10442W        W28646   0.779   6.991  13.033  0.0081  0.0838  0.2352
10443W        W28647   9.357  16.939  15.201 -0.0508  0.0474 -0.0051
10444W        W28648   6.402  13.666   0.363  0.2013  0.1468  0.1383
10445W        W28649   9.619  12.420   0.793 -0.1508  0.0862  0.1324
10446W        W28650   0.679   8.523   3.576 -0.1860 -0.1080 -0.0949
10447W        W28651   0.435   6.825   2.161 -0.1690  0.3403  0.3544
10448W        W28652  13.783   6.214   4.948  0.2562 -0.3371  0.0502
10449W        W28653  11.574  17.811   3.745  0.0165  0.1006 -0.2682
10450W        W28654  17.661   2.047   0.915 -0.2261 -0.0341  0.2991
10451W        W28655  14.098   8.492   1.544  0.2959 -0.1123 -0.0751
10452W        W28656   7.909  16.723   2.905  0.2137 -0.0606  0.0670
10453W        W28657  11.377  15.691  11.506  0.1828 -0.4879  0.1658
10454W        W28658   4.927  16.678  13.556  0.1076 -0.0330 -0.2890
10455W        W28659  15.123   4.288   0.247  0.0680 -0.0274 -0.2145
10456W        W28660   6.173   8.852   2.426  0.2527  0.0651 -0.2399
10457W        W28661  16.255  11.290   5.307 -0.1969 -0.1647  0.0373
10458W        W28662   2.845   1.578   0.902 -0.1260  0.2363 -0.0047
10459W        W28663   9.610  12.223   3.230  0.1294 -0.1130  0.1171
10460W        W28664  14.245   7.252  11.710 -0.1919  0.1462 -0.0295
10461W        W28665  15.861   9.061  14.450  0.0814 -0.1933  0.0908
10462W        W28666   6.902   6.441   3.855 -0.2374  0.1578 -0.2758
10463W        W28667  11.369  14.312   1.428  0.0621  0.1706 -0.1114
10464W        W28668   0.351   0.573   5.212  0.1623 -0.2623 -0.1119
10465W        W28669   9.072   7.910   1.904 -0.1383 -0.0093 -0.0785
10466W        W28670  11.601  15.054   4.330 -0.0754 -0.1555 -0.1711
10467W        W28671   2.359  16.216  10.703 -0.5713 -0.1823  0.2692
10468W        W28672  15.720  18.152   1.204  0.0945  0.0706  0.1169
10469W        W28673   7.613   7.787  12.341  0.1185 -0.1445  0.2491
10470W        W28674  15.922   9.250   4.564 -0.0817  0.4594  0.0281
10471W        W28675  11.487   9.777  14.568 -0.1716  0.0475 -0.2737
10472W        W28676   8.663  14.411   0.824  0.1383 -0.0355 -0.3520
10473W        W28677   0.356  12.319   3.373  0.0225 -0.2916  0.4550
10474W        W28678   6.486   8.444   4.730  0.1185 -0.2859  0.0431
10475W        W28679   7.916  18.473  14.902 -0.1666  0.1042  0.1220
10476W        W28680  17.198   9.259  13.790  0.0352 -0.1724  0.3243
10477W        W28681   1.413  12.345  10.175  0.0191  0.0383  0.3111
10478W        W28682  10.855  10.104  11.450 -0.3887 -0.0286 -0.5752
10479W        W28683  16.366  11.600  11.233 -0.0293  0.0262 -0.0714
10480W        W28684  18.133   5.371  10.905 -0.1216  0.1638 -0.1426
10481W        W28685  14.140   9.590  12.371 -0.0999 -0.0858 -0.0415
10482W        W28686  18.041  11.139   0.291  0.1311  0.1010 -0.0138
10483W        W28687  18.441   7.425   1.037  0.2484  0.2690  0.1825
10484W        W28688   7.346   9.906  11.066  0.0621 -0.0681  0.0356
10485W        W28689  13.211   5.160  11.563 -0.1040  0.4275  0.1108
10486W        W28690   8.374  16.414   2.018 -0.1173 -0.2073  0.0413
10487W        W28691  13.956  15.829  12.404  0.1140  0.0396  0.0756
10488W        W28692  12.848  17.287   1.585  0.0010 -0.0138 -0.0157
10489W        W28693  15.694  15.679   2.820  0.0459 -0.3369 -0.1868
10490W        W28694   5.963   7.319   0.698  0.2814 -0.0347  0.0606
10491W        W28695   2.731   0.065   0.718  0.0707 -0.2451  0.0974
10492W        W28696   8.013  14.003   0.384 -0.2773  0.0993 -0.3070
10493W        W28697   0.225   6.713   1.324  0.2210 -0.0662 -0.1260
10494W        W28698   0.333   4.909  12.670  0.0825 -0.2759  0.1116
10495W        W28699   1.145   0.084  11.550 -0.0602  0.4330 -0.0434
10496W        W28700   3.315   5.940   0.857  0.0687 -0.0963 -0.0155
10497W        W28701   9.014   1.348   1.533  0.2345  0.0126 -0.1636
10498W        W28702  12.814  11.911  10.782 -0.0918 -0.0431 -0.0546
10499W        W28703  15.175   6.799   4.558 -0.2005 -0.2829  0.1431
10500W        W28704  15.013  16.190  13.709  0.0652  0.0617  0.0924
10501W        W28705   3.513   0.749   0.762  0.2812 -0.2778  0.1603
10502W        W28706   5.420  16.530  14.772  0.0484 -0.2018 -0.3441
10503W        W28707  18.509   4.036   0.691  0.0760  0.2211  0.5369
10504W        W28708   3.501   6.390   0.842 -0.0774  0.2841 -0.1893
10505W        W28709  11.788   6.975   1.974  0.2866  0.1319  0.2490
10506W        W28710  16.247   2.453  14.786  0.2464 -0.2020  0.1568
10507W        W28711  17.616  12.681  14.351  0.1558  0.2526  0.0386
10508W        W28712  10.707  13.143   3.201  0.0228 -0.1472  0.0533
10509W        W28713   2.209   4.379  11.958  0.3549 -0.1959  0.3010
10510W        W28714  11.703   4.733  12.636  0.4972  0.2033  0.2540
10511W        W28715  13.712   8.126  12.502 -0.0071  0.1785  0.2673
10512W        W28716   9.137   8.229  12.692  0.2888  0.0075  0.2146
10513W        W28717   6.821   8.792   5.746  0.2936 -0.2351  0.0956
10514W        W28718  11.322  13.818   0.217  0.2762  0.2053 -0.0608
10515W        W28719  15.042   8.437   3.717 -0.3645 -0.1119  0.0755
10516W        W28720   0.203  11.524   2.715 -0.1591 -0.3411  0.1340
10517W        W28721   3.791  17.324  13.960  0.3162  0.1407 -0.1328
10518W        W28722   9.796  18.313  10.074  0.0184  0.3677  0.0446
10519W        W28723  13.451  11.249  11.747  0.0588 -0.3601 -0.0280
10520W        W28724  17.019  15.598  12.845 -0.2286 -0.0273  0.0930
10521W        W28725  14.450   5.431   4.259 -0.2315 -0.2062 -0.2746
10522W        W28726   2.557   2.456   2.477 -0.0061  0.0743 -0.1118
10523W        W28727   5.883  16.425   4.159  0.1102  0.1512  0.0946
10524W        W28728  12.158  14.357  15.133 -0.1484 -0.2274  0.0485
10525W        W28729   7.223   9.100  14.660  0.2311 -0.3458 -0.0666
10526W        W28730   4.575  10.593   2.745 -0.0859 -0.1207  0.2940
10527W        W28731   2.049  14.296   3.561 -0.0078 -0.1539 -0.3762
10528W        W28732   3.804   2.402   4.067 -0.1565 -0.0725  0.1020
10529W        W28733   0.609  10.927   3.567 -0.3569  0.1953 -0.1596
10530W        W28734  18.527   6.761  11.386 -0.2001 -0.2625  0.0043
10531W        W28735   9.705   7.734   3.990  0.1363  0.0303  0.1109
10532W        W28736  10.731  14.145   3.976 -0.2251  0.4291  0.0448
10533W        W28737  11.479   6.458   1.671 -0.0361 -0.0338 -0.2918
10534W        W28738   6.444   1.104  13.335 -0.0634  0.0253  0.0903
10535W        W28739  14.050   2.058  11.599  0.2239 -0.4178  0.1940
10536W        W28740  10.835  12.054   3.122 -0.0464 -0.0997  0.2310
10537W        W28741   9.664  16.471   0.290 -0.0384 -0.1861 -0.2296
10538W        W28742  18.029  16.249   4.235  0.0597 -0.0243 -0.0554
10539W        W28743  12.069  16.912   0.983  0.1051 -0.1048 -0.0197
10540W        W28744   0.631  18.272   1.627  0.1477 -0.0960 -0.1513
10541W        W28745   1.090   4.513  11.006  0.0646 -0.4859  0.2398
10542W        W28746   1.509   1.307   2.326 -0.0903 -0.1855 -0.2575
10543W        W28747  15.236  15.274   1.144 -0.1477  0.2109  0.0711
10544W        W28748  16.738   3.200  11.392 -0.2946  0.0253  0.0719
10545W        W28749  18.479  14.941  13.119  0.0570 -0.1850 -0.1237
10546W        W28750   5.596  15.012  12.978  0.2357 -0.0125  0.2883
10547W        W28751   3.389  15.340   4.012 -0.2893 -0.0487  0.3106
10548W        W28752  11.368   2.133  14.446  0.0191  0.0004 -0.1847
10549W        W28753   1.898  14.647  14.786 -0.0875  0.0977 -0.1639
10550W        W28754   5.093   4.759  11.875  0.1283 -0.0126  0.1746
10551W        W28755  10.224  10.642  13.543  0.1408  0.1101  0.1835
10552W        W28756   5.269   5.065  11.198 -0.0068  0.3779 -0.3351
10553W        W28757  14.803   9.112   5.750 -0.2221  0.0423  0.0408
10554W        W28758   1.649   3.295  15.027  0.0135  0.2707  0.1647
10555W        W28759  15.995  14.328  13.235 -0.0886 -0.1747  0.2575
10556W        W28760   1.907   6.026   0.352 -0.0320  0.1935  0.1329
10557W        W28761   2.589  12.790  11.275  0.2571  0.2422 -0.1950
10558W        W28762  11.142   0.149   4.639 -0.2063  0.1807 -0.2437
10559W        W28763   2.574   5.241  10.467 -0.1699  0.1223 -0.2500
10560W        W28764  11.738   9.291  14.619  0.0668 -0.1068  0.2236
10561W        W28765   0.276   7.978  15.402 -0.0998 -0.1268  0.0365
10562W        W28766   7.215   8.782   3.466  0.1591 -0.0570  0.0563
10563W        W28767   0.169  18.212  11.176 -0.1543 -0.0870  0.1616
10564W        W28768   6.876  13.297   2.455 -0.1365 -0.0920  0.1770
10565W        W28769   5.497  12.906   2.627 -0.2219  0.0266 -0.0218
10566W        W28770  14.246  17.440   0.273  0.0255 -0.2069 -0.1266
10567W        W28771  16.297   6.826  10.769  0.1269  0.2378 -0.1014
10568W        W28772  12.277  15.899  11.658 -0.1130 -0.0434  0.0787
10569W        W28773  10.202  15.480  12.216 -0.1469 -0.1673  0.2004
10570W        W28774   9.649   8.448  12.100 -0.3331  0.0363  0.4896
10571W        W28775   8.125   2.692  12.670 -0.0966 -0.1383  0.0547
10572W        W28776   2.045   4.404  14.126 -0.2211 -0.2358 -0.2448
10573W        W28777  15.047   6.586  12.693  0.0322 -0.0228 -0.1299
10574W        W28778   5.878   0.430   4.084  0.1526  0.0765  0.2879
10575W        W28779  15.801   4.324  11.333  0.0636 -0.2404 -0.0310
10576W        W28780   8.891  11.670   0.182  0.1668  0.1867  0.3014
10577W        W28781   0.471   3.074  14.772 -0.2721  0.1214 -0.1172
10578W        W28782  12.504   1.226  13.238 -0.0446 -0.1743  0.2263
10579W        W28783  17.702  10.353   0.087  0.0205  0.0602  0.0137
10580W        W28784   9.029   8.997   1.416  0.3487 -0.0263 -0.0357
10581W        W28785   7.222  16.540  14.276  0.1551  0.2313 -0.0003
10582W        W28786  14.740   3.435  15.376 -0.0465  0.2736  0.1078
10583W        W28787  18.464  17.370   0.748 -0.3485 -0.0433  0.2535
10584W        W28788   7.564   3.217  10.243  0.0688 -0.2825 -0.1022
10585W        W28789  15.164   2.225  12.032 -0.0220  0.0496  0.3286
10586W        W28790   4.732   4.737   3.783 -0.0501 -0.0929 -0.0802
10587W        W28791   4.152   8.563  10.396 -0.0569  0.4372 -0.1148
10588W        W28792   5.959   2.339   4.728  0.5399 -0.2162  0.1844
10589W        W28793   3.284   7.411  14.832  0.2027 -0.4129  0.0260
10590W        W28794  14.286  10.984   1.408 -0.0713  0.0088 -0.1887
10591W        W28795   3.375  15.803   1.197 -0.1961 -0.3453  0.0710
10592W        W28796  13.681   4.167  14.928 -0.0856  0.0312 -0.0863
10593W        W28797  14.817  10.170   2.842 -0.0054 -0.0775 -0.0085
10594W        W28798  14.021  17.823   0.631 -0.0336  0.1991  0.0058
10595W        W28799  17.809  18.107  15.336  0.2022 -0.1080 -0.3695
10596W        W28800   9.820   1.697   1.232 -0.1110 -0.0748  0.2740
10597W        W28801  14.963  11.692  13.392 -0.1268 -0.0677 -0.1156
10598W        W28802   6.971   5.258  11.567 -0.0803 -0.0765  0.2552
10599W        W28803  18.620   0.356   5.556  0.1792 -0.3256 -0.1779
10600W        W28804  12.403   1.703   2.847  0.2613  0.1626  0.0659
10601W        W28805   3.852  12.366   5.711  0.3036 -0.0916  0.0934
10602W        W28806   5.861   0.096   4.919 -0.0793  0.1967  0.0990
10603W        W28807  15.978   7.444  13.872 -0.1941 -0.1469 -0.2004
10604W        W28808   7.679  15.903   5.148 -0.3593  0.1997 -0.2380
10605W        W28809  11.241  13.195  12.333 -0.2207 -0.1521  0.1471
10606W        W28810   8.441   5.382   3.674 -0.4059  0.3360 -0.0323
10607W        W28811  15.091   0.592   2.705 -0.1101 -0.1562  0.0226
10608W        W28812   3.449  14.872   4.596 -0.0512  0.1764 -0.3927
10609W        W28813  17.851  18.468  12.717 -0.0886  0.1669 -0.4034
10610W        W28814  12.707   8.196   2.701  0.1705 -0.1599  0.2752
10611W        W28815   8.838  13.800  11.308  0.2014  0.1526 -0.0878
10612W        W28816   0.768  17.632   2.518 -0.0075  0.1107 -0.0185
10613W        W28817   0.179   3.069   3.043 -0.2532  0.0434 -0.0341
10614W        W28818   6.653   3.551  15.431  0.0174  0.0503 -0.0607
10615W        W28819  14.467   7.493   1.357  0.0469  0.1166  0.1207
10616W        W28820   1.171  10.817   2.498 -0.1124  0.4279  0.0394
10617W        W28821  11.813  12.650  12.602 -0.5272  0.1657 -0.2520
10618W        W28822  17.495  13.218  14.467  0.1152  0.1110 -0.0244
10619W        W28823  15.398  13.736  12.084 -0.1243 -0.1228  0.0128
10620W        W28824   2.099   8.792  13.725  0.0951 -0.1243  0.2030
10621W        W28825  17.638   7.761  10.214 -0.1409  0.1361  0.1601
10622W        W28826   2.130  17.839  11.418 -0.0488 -0.4571 -0.0534
10623W        W28827  16.462  17.627   0.843  0.1501  0.2034  0.2862
10624W        W28828   7.477   4.136  13.067 -0.0096  0.1582  0.0165
10625W        W28829   8.931   9.716  12.222  0.1455  0.1341  0.0612
10626W        W28830  15.252  15.242   1.925  0.0503  0.0149 -0.1391
10627W        W28831   3.615   1.387  15.244 -0.0859  0.0039  0.0487
10628W        W28832   6.273  18.128  14.805 -0.0667 -0.0060  0.0503
10629W        W28833   6.396  17.808  15.135  0.0614  0.0346 -0.0303
10630W        W28834  16.592  10.970  12.695 -0.2226 -0.1654  0.1906
10631W        W28835   7.686  15.705   2.684 -0.1432 -0.1186 -0.5186
10632W        W28836  11.237  11.894   1.107  0.0219 -0.2013  0.0312
10633W        W28837  15.813   5.182   4.208  0.3587  0.0221 -0.2752
10634W        W28838   2.046   3.391   9.938  0.1206 -0.0751  0.2593
10635W        W28839  11.730  13.794  14.527  0.0320  0.2654 -0.2639
10636W        W28840   5.135  14.657  12.733 -0.2437 -0.0479  0.1809
10637W        W28841   4.038   8.749   1.604  0.4117 -0.2157 -0.2677
10638W        W28842   1.486   8.348   2.538  0.0371 -0.0247 -0.0386
10639W        W28843  12.911   0.087   0.491 -0.1372 -0.2500 -0.3671
10640W        W28844   0.410   4.971   1.303  0.0185  0.1133 -0.1579
10641W        W28845  10.126   3.167  11.151  0.1009 -0.1041  0.1413
10642W        W28846   0.079   6.218   5.076  0.1150 -0.2037 -0.3106
10643W        W28847   0.172  14.296  14.781 -0.0623 -0.1304  0.3950
10644W        W28848   4.905  14.870   4.184  0.2013  0.1617  0.0152
10645W        W28849   8.822   2.809  15.316 -0.1466  0.1140 -0.0694
10646W        W28850   1.415  11.000   1.475  0.2426  0.0924  0.0866
10647W        W28851  12.023   9.576  11.383 -0.2061 -0.0401 -0.3472
10648W        W28852  14.550  15.375   0.052  0.0317 -0.0489 -0.2047
10649W        W28853  13.495   7.675  13.923  0.1295 -0.1390 -0.1142
10650W        W28854   3.359   9.595  12.907 -0.0318 -0.3393  0.1120
10651W        W28855   2.758   1.836   1.329 -0.1143  0.0553 -0.1581
10652W        W28856   8.874   0.102   4.247  0.0483  0.0617 -0.2925
10653W        W28857   0.540   1.246   2.078  0.0009  0.2218  0.1837
10654W        W28858   1.232   6.120   5.206  0.1162  0.0349  0.1203
10655W        W28859  12.182   4.255  15.069 -0.3861 -0.2808  0.2323
10656W        W28860  11.615   6.934  12.728  0.0934  0.1948 -0.2558
10657W        W28861  18.190   0.752   1.617 -0.1031  0.0650  0.1406
10658W        W28862   5.748  15.524  12.287  0.2585 -0.1063 -0.0066
10659W        W28863  10.911   9.506  14.035  0.1854  0.3665  0.0536
10660W        W28864   0.609   0.635   4.007 -0.0244  0.2351 -0.1036
10661W        W28865  17.787   0.613   2.588  0.1277 -0.2858  0.4886
10662W        W28866   2.869  12.864  12.106 -0.2330 -0.2612 -0.1036
10663W        W28867   5.767  10.216  10.875 -0.1500 -0.2025  0.1347
10664W        W28868   2.429  10.490   2.048  0.1096 -0.4050  0.0676
10665W        W28869   8.179  14.469   0.147 -0.0968 -0.3635 -0.1025
10666W        W28870   4.811   3.537   3.063 -0.1597 -0.0520  0.1706
10667W        W28871   1.041  12.876   2.012 -0.0253  0.1000 -0.3639
10668W        W28872   5.811   1.782   0.706 -0.1097 -0.1008 -0.0816
10669W        W28873   3.778  18.079   2.200  0.2129 -0.2017 -0.3006
10670W        W28874   1.414   2.214   3.645 -0.0461 -0.0093  0.1702
10671W        W28875  16.979   2.462   5.172 -0.2385 -0.0763 -0.2819
10672W        W28876   3.459   4.570   0.971 -0.1058  0.2595 -0.0700
10673W        W28877   0.458  12.508  12.215  0.0350 -0.2079  0.0465
10674W        W28878   3.167  17.175  14.496  0.1300 -0.4484 -0.1224
10675W        W28879   3.411  10.573  12.953 -0.0409  0.1263 -0.1355
10676W        W28880   9.328  11.406   4.327  0.2115 -0.0216  0.0650
10677W        W28881   8.823   5.462  14.881 -0.0817  0.0099 -0.1761
10678W        W28882   1.701   5.604   1.606  0.0288 -0.1174  0.0003
10679W        W28883   4.285   6.583  13.497 -0.0278  0.2244 -0.4151
10680W        W28884  12.077  15.316  12.687  0.0385  0.4501 -0.0531
10681W        W28885  18.278  14.424   1.763  0.1960 -0.0416  0.3591
10682W        W28886   9.782   9.027   2.485 -0.2365 -0.0391 -0.1078
10683W        W28887   8.945   2.071  13.213  0.2107  0.0723 -0.2066
10684W        W28888   9.889   8.807  12.785 -0.0894 -0.1784 -0.1240
10685W        W28889   0.972   0.583  10.867  0.1809 -0.1732 -0.1374
10686W        W28890   1.774  15.294  11.945 -0.0463  0.1729 -0.1118
10687W        W28891   8.795  10.448  11.747  0.0134  0.1797  0.1111
10688W        W28892  16.975  10.079  12.552 -0.3482  0.2561 -0.2599
10689W        W28893  11.413  17.061  14.760  0.2674  0.0713  0.4017
10690W        W28894  14.028  16.930   0.242 -0.0416 -0.1268  0.2301
10691W        W28895  12.091   2.404   1.961  0.2336 -0.1314  0.1556
10692W        W28896  16.344   4.368  11.723  0.0842  0.1926 -0.0588
10693W        W28897   8.502  13.759   0.104  0.1735 -0.0696 -0.2448
10694W        W28898  13.123   2.264   3.103 -0.0952  0.1505 -0.3312
10695W        W28899  15.538   5.660  13.333 -0.1050 -0.1082 -0.1277
10696W        W28900   4.970  16.755  12.258  0.1362  0.0167 -0.3526
10697W        W28901  17.846  10.978  13.300  0.0024  0.2277  0.1408
10698W        W28902   1.236  17.886  13.163  0.0170 -0.0986 -0.2830
10699W        W28903  18.071   1.675   0.174  0.0169  0.1342  0.1370
10700W        W28904   7.340  17.297  11.068 -0.0877 -0.2799 -0.0405
10701W        W28905  16.804  13.478   1.338 -0.1161 -0.0147  0.0276
10702W        W28906   3.499  18.361   0.068 -0.0218 -0.1912 -0.0752
10703W        W28907   5.789   4.311  13.520 -0.0226  0.0476  0.1500
10704W        W28908   5.747  13.530  12.825 -0.1003 -0.0753 -0.1162
10705W        W28909  13.814  17.927   2.227 -0.4656 -0.2677 -0.2688
10706W        W28910   7.922  14.638  12.619  0.2653  0.0069  0.0161
10707W        W28911   7.187   2.488   3.375 -0.2664 -0.2228 -0.2017
10708W        W28912  15.393  17.507  13.003  0.1729 -0.1173 -0.1468
10709W        W28913   6.548   4.286  13.264 -0.0413 -0.1116  0.0980
10710W        W28914  10.727   9.191  14.984 -0.2701  0.3650 -0.1991
10711W        W28915   5.902   4.619   2.338  0.0771  0.2553 -0.3227
10712W        W28916   9.779   3.855   2.528  0.1594  0.1746 -0.0371
10713W        W28917   9.520  16.325  11.280 -0.1893  0.1375  0.1582
10714W        W28918   7.639   6.808  13.079  0.0133  0.0902 -0.1170
10715W        W28919  16.601   1.649  10.696 -0.0122 -0.3153 -0.0419
10716W        W28920  17.087  11.109   0.051  0.1875 -0.2254 -0.0075
10717W        W28921  11.854  15.337   1.542 -0.2831 -0.0473 -0.0048
10718W        W28922  10.914   3.698  10.384  0.2314 -0.1068  0.0182
10719W        W28923   1.869   5.547   3.734 -0.1293  0.0055 -0.1948
10720W        W28924  17.940   9.175   2.142 -0.1075 -0.3138  0.0634
10721W        W28925  17.096  12.109  11.753 -0.2995 -0.0507 -0.0147
10722W        W28926   4.783   1.254   0.223 -0.1815 -0.1308 -0.1119
10723W        W28927   5.325   6.525   5.032  0.1128  0.0315  0.1654
10724W        W28928  17.441  12.854   3.476 -0.2348 -0.1997  0.1185
10725W        W28929   0.737   3.993   0.294 -0.0912 -0.2542 -0.2603
10726W        W28930   0.505   8.000  11.100  0.0098 -0.1151  0.3714
10727W        W28931  15.774  13.494   2.136 -0.0262  0.0959  0.0231
10728W        W28932   4.290   6.671  15.125 -0.0817 -0.0596  0.1136
10729W        W28933   9.454  14.957   2.947 -0.0082 -0.1202 -0.3174
10730W        W28934  18.394  15.866  10.832 -0.2370 -0.0838  0.1277
10731W        W28935  17.533   5.834  14.965  0.1434 -0.2546  0.4729
10732W        W28936   5.448   9.984   3.802  0.2564 -0.2960  0.0939
10733W        W28937  17.873   1.898  14.903  0.1291  0.0139 -0.0118
10734W        W28938   2.277  14.386   4.898 -0.3049  0.2884 -0.2443
10735W        W28939   8.422  16.765  13.473 -0.3631 -0.1728  0.2245
10736W        W28940   8.379   3.494  15.068 -0.2395  0.1168  0.0423
10737W        W28941  15.297  18.247   4.160 -0.1251 -0.0934 -0.3444
10738W        W28942   8.166   1.971  11.929 -0.0629  0.0449 -0.0347
10739W        W28943   7.248   5.216   1.978 -0.1530 -0.1431  0.0046
10740W        W28944   8.492  11.993  15.326 -0.3713  0.0762  0.1920
10741W        W28945  10.322   1.192   1.811 -0.1858  0.0133 -0.4021
10742W        W28946   8.038   3.014  11.653 -0.1110 -0.0834  0.2080
10743W        W28947   7.659   0.390   2.443  0.0674  0.0673  0.2888
10744W        W28948   6.454  17.319  12.691  0.0108  0.0820  0.1543
10745W        W28949  10.309  17.802  13.945 -0.0095  0.2593  0.4634
10746W        W28950   2.359  10.924   0.142 -0.0703  0.1863 -0.1776
10747W        W28951  18.115   8.778   1.735  0.1197  0.1560 -0.1971
10748W        W28952   6.853  15.906  11.150  0.0333  0.1325 -0.0376
10749W        W28953  13.792   2.657   0.533  0.2001  0.1864  0.2079
10750W        W28954  13.539  17.812  10.501  0.3004  0.0027  0.1320
10751W        W28955   5.088  10.382   3.279 -0.0467 -0.0517  0.1734
10752W        W28956   8.595   5.082  10.824 -0.0459 -0.1295  0.2716
10753W        W28957  12.847   0.645   5.887  0.3015 -0.0121 -0.2016
10754W        W28958  17.500  11.085   3.113 -0.1593  0.0863 -0.3309
10755W        W28959   0.965   7.070  14.273 -0.2864 -0.2717 -0.0984
10756W        W28960  15.527   3.850  12.603  0.2415  0.3267  0.1079
10757W        W28961   9.173  12.146   1.120  0.1934 -0.2073 -0.0952
10758W        W28962   2.368  11.268   0.535  0.1923  0.1407  0.1711
10759W        W28963  12.364   2.468  12.137 -0.1367 -0.0101 -0.2461
10760W        W28964  16.452   7.233   0.362  0.1048 -0.3892 -0.1929
10761W        W28965   3.423   8.258  13.271 -0.0044 -0.1576  0.2163
10762W        W28966   1.796  13.070   3.839  0.2756 -0.1511  0.0179
10763W        W28967  12.916   3.114   0.368  0.2596 -0.0026  0.1445
10764W        W28968   7.224   4.906  11.283 -0.1816 -0.1694  0.5057
10765W        W28969  14.596   7.957  13.904 -0.0910  0.1067 -0.0411
10766W        W28970   1.692   9.357  11.750  0.0441 -0.0066 -0.0571
10767W        W28971   5.816   2.169   1.154 -0.1380 -0.0379  0.1428
10768W        W28972  14.329   6.492   4.059 -0.1128 -0.0441 -0.2207
10769W        W28973   9.354  17.803  14.187 -0.0652  0.1414  0.0784
10770W        W28974   3.593  10.080   2.299 -0.0493 -0.0145  0.3204
10771W        W28975  18.502   9.411  12.510  0.4259  0.1720 -0.2925
10772W        W28976   8.624  12.234   2.864  0.2148  0.0814  0.1784
10773W        W28977  11.443   7.628  15.387  0.1479  0.1271 -0.1810
10774W        W28978   1.234  14.654  11.072 -0.1185  0.3374 -0.3253
10775W        W28979   5.584   1.496  12.000 -0.2580 -0.0716  0.0918
10776W        W28980  13.014   6.487   0.093 -0.0366 -0.0336  0.3647
10777W        W28981  15.930   5.717   0.471 -0.3344 -0.0830 -0.1368
10778W        W28982  17.081   9.920   2.583  0.1763 -0.3442 -0.0694
10779W        W28983   2.296   5.122  13.765 -0.2135  0.1726  0.2787
10780W        W28984   6.844  17.369   3.720  0.0758 -0.0195 -0.0906
10781W        W28985   6.798   2.781  13.604  0.1702  0.0375 -0.2705
10782W        W28986   9.314  10.283  10.999  0.2945 -0.2657  0.0381
10783W        W28987   1.606   8.915   2.355 -0.0431  0.0040 -0.1197
10784W        W28988   1.858   2.993  13.911 -0.2207  0.4236 -0.3235
10785W        W28989  14.155  10.926  10.592 -0.0668  0.0192 -0.0048
10786W        W28990   9.028  11.045  11.374  0.0468  0.0718  0.0351
10787W        W28991   8.029   1.377  14.770  0.1927  0.0283  0.2248
10788W        W28992  18.203  16.558  14.021  0.0448 -0.1882 -0.0950
10789W        W28993   9.896   2.373  15.251  0.0001  0.1453 -0.3957
10790W        W28994   2.715   1.740   3.180  0.1783  0.0221  0.0842
10791W        W28995  12.499   4.378   1.082  0.0556 -0.0970  0.3286
10792W        W28996   1.710  10.265   0.640  0.3030  0.1780  0.0335
10793W        W28997   7.317  16.140  11.853 -0.2576 -0.2461 -0.0250
10794W        W28998   7.708  14.267   1.839  0.4357 -0.1314 -0.3199
10795W        W28999   6.132   9.406  12.650 -0.0554 -0.1629  0.0146
10796W        W29000  11.463  12.278  11.827 -0.0767  0.0998  0.1400
10797W        W29001   1.472  10.342  12.187 -0.1072 -0.1888 -0.1440
10798W        W29002   4.518  18.345   0.197  0.3227  0.2624 -0.2378
10799W        W29003   3.067  15.775  11.642  0.1021  0.0031 -0.2240
10800W        W29004  11.368   5.164   1.471  0.2786 -0.2315 -0.1329
10801W        W29005   0.843  17.274  14.689  0.1643  0.2303 -0.1358
10802W        W29006   7.602   3.453   1.788 -0.0565  0.1975  0.0048
10803W        W29007   5.028   7.955  12.734 -0.0855 -0.0515 -0.3452
10804W        W29008   9.586   0.881  13.592  0.3404  0.4378  0.0053
10805W        W29009  10.207  18.315   0.525 -0.0718  0.0571  0.1054
10806W        W29010   0.733  12.455   2.182 -0.1098 -0.1779  0.0771
10807W        W29011   0.915  18.271  11.877  0.0107 -0.1697 -0.2197
10808W        W29012  15.669   7.828  11.460 -0.3988  0.1370  0.0919
10809W        W29013   2.664   9.795   1.338  0.0426 -0.0624 -0.0579
10810W        W29014  15.547   1.895  12.830  0.0314 -0.1689 -0.1766
10811W        W29015  13.195   3.795  12.030  0.0349 -0.2810 -0.0370
10812W        W29016  13.141   1.693  15.108  0.0481 -0.0115 -0.0053
10813W        W29017   2.324  17.108   1.688  0.0126 -0.1763 -0.3322
10814W        W29018  14.083   6.502  13.197  0.0594  0.2874 -0.1521
10815W        W29019   6.803   3.137  14.219 -0.0672  0.1193  0.3309
10816W        W29020  18.575   7.092  10.969  0.1343 -0.1594 -0.1469
10817W        W29021   2.439   1.824  15.206 -0.2524 -0.2168 -0.2381
10818W        W29022   7.197  10.125   0.312  0.4208  0.1864 -0.1393
10819W        W29023   6.381  11.729   4.298 -0.0293 -0.1873  0.0055
10820W        W29024   7.388   8.932   2.537 -0.1460  0.0493  0.0019
10821W        W29025  15.842   3.508  15.012 -0.2417 -0.2312  0.2579
10822W        W29026  12.392  11.310   0.497  0.0490 -0.3014  0.1234
10823W        W29027  15.829   9.884   3.057 -0.0082 -0.0835 -0.0051
10824W        W29028   3.081   0.373   3.033  0.2564  0.1837  0.1165
10825W        W29029  13.654   6.962  13.773  0.0799 -0.1050  0.1028
10826W        W29030  15.444   9.241  11.228  0.0088 -0.1668  0.0989
10827W        W29031   2.408  11.528  12.685 -0.4063 -0.2084 -0.4300
10828W        W29032  12.172  14.107  14.620 -0.0838  0.2457  0.0157
10829W        W29033  16.146  14.430  13.804 -0.0897 -0.2738  0.1418
10830W        W29034   1.653  13.375  13.327 -0.0964  0.2646  0.0123
10831W        W29035   6.241   5.510  11.198  0.2466 -0.0433  0.1065
10832W        W29036   2.847  11.341   4.054  0.0460 -0.1805 -0.3478
10833W        W29037  15.703  12.598  12.243  0.2533  0.2148  0.1360
10834W        W29038   2.918  10.020  11.697  0.0247 -0.3477  0.2360
10835W        W29039   6.481   1.101   3.630 -0.0315 -0.2316 -0.0397
10836W        W29040   5.903  14.390  11.747 -0.0573  0.0467  0.4344
10837W        W29041   0.061  12.791   1.958 -0.0026 -0.1499  0.1091
10838W        W29042   6.240  11.652  13.252 -0.1691  0.0580  0.1116
10839W        W29043   2.036  10.139   4.566 -0.0642  0.3335 -0.0358
10840W        W29044  17.982   3.759  15.009 -0.1410 -0.0921 -0.1948
10841W        W29045  13.932   6.967  12.995 -0.1994  0.0911 -0.0879
10842W        W29046  10.767  18.285  11.277 -0.1705  0.1605 -0.2370
10843W        W29047   5.261  14.810   2.470 -0.1129 -0.0327  0.0464
10844W        W29048  12.678  11.057   0.789 -0.2083  0.1798 -0.3645
10845W        W29049  10.348  16.389   0.914 -0.0890  0.1762 -0.1594
10846W        W29050  12.180  18.584  13.582 -0.1373  0.2149 -0.0723
10847W        W29051   4.805  11.018  12.386 -0.1321 -0.1443  0.1524
10848W        W29052   8.491   8.102   3.992 -0.0241  0.3141 -0.0189
10849W        W29053   5.798  14.296   1.786  0.1638 -0.4455  0.0712
10850W        W29054   4.030   6.742   1.537  0.1780 -0.4002 -0.0412
10851W        W29055  10.553   1.131  12.764 -0.1912 -0.1011  0.2058
10852W        W29056  12.880   4.797  11.626  0.0374 -0.1510 -0.0062
10853W        W29057   7.492  11.472  12.558 -0.1832  0.3108 -0.0088
10854W        W29058   9.419   1.603   0.926 -0.2878 -0.3337  0.0165
10855W        W29059   5.017   5.305  11.768 -0.0425  0.1629  0.1008
10856W        W29060   9.920   6.838   1.988  0.0355 -0.0373 -0.1774
10857W        W29061   9.552  15.872   2.384  0.0970  0.1601 -0.0660
10858W        W29062  13.283  15.646   2.498 -0.0975 -0.4697  0.1435
10859W        W29063  18.525  18.224   3.895  0.1819  0.2772 -0.2079
10860W        W29064   2.162   1.163  14.236 -0.1657 -0.0111  0.1375
10861W        W29065  14.368   9.147  14.562  0.1141 -0.0571  0.0102
10862W        W29066   6.709   4.612  13.586 -0.0303 -0.0815 -0.1057
10863W        W29067   0.442  12.168   2.548  0.1430 -0.1513 -0.3303
10864W        W29068   8.062  17.099  13.528 -0.2502 -0.1109 -0.1319
10865W        W29069  17.703  11.544   4.290  0.1186  0.2102 -0.0988
10866W        W29070  16.612   7.244  13.145 -0.1071 -0.0007 -0.2280
10867W        W29071  10.273   8.607   4.220  0.2198  0.2413  0.0560
10868W        W29072   5.713   5.456   1.088  0.2382  0.1075 -0.0240
10869W        W29073   1.251   2.052   5.259 -0.1349  0.4121  0.1299
10870W        W29074   3.883  13.674  14.543  0.1401  0.2581 -0.1303
10871W        W29075   9.790  10.911   4.683  0.2654 -0.0359  0.3615
10872W        W29076  17.705  15.497  13.560 -0.2477 -0.0346 -0.0588
10873W        W29077  16.579  10.468   1.936 -0.0797 -0.4636 -0.3599
10874W        W29078   9.622   4.927  15.343  0.0748 -0.0954 -0.1468
10875W        W29079   6.598   7.300  11.718 -0.0313 -0.1607 -0.3724
10876W        W29080  15.121   2.023  13.061  0.2123  0.4818 -0.2063
10877W        W29081   7.042   4.177  13.338  0.2985  0.1142  0.1015
10878W        W29082  16.260   0.247   2.482  0.0012  0.3426  0.4616
10879W        W29083   6.038   7.601   1.426  0.1565 -0.1066  0.1708
10880W        W29084   2.650  12.388  14.913 -0.2817 -0.1451  0.0454
10881W        W29085   7.231  12.167   2.370 -0.2183 -0.1507  0.2694
10882W        W29086  11.895   2.541  11.966 -0.0918 -0.1719 -0.0782
10883W        W29087  14.050  17.356  12.652 -0.2191 -0.2646  0.0741
10884W        W29088   1.375   7.165   1.750  0.1325 -0.1177 -0.1700
10885W        W29089   0.373  18.466   3.288  0.0162  0.0922  0.0497
10886W        W29090   5.748  17.800  10.402  0.1936  0.0085 -0.1178
10887W        W29091  15.003   8.133   3.132 -0.1501  0.0576 -0.0892
10888W        W29092  15.318   8.819   4.414 -0.2790  0.0018 -0.0812
10889W        W29093  11.803   6.236   0.353 -0.0249  0.1156 -0.0868
10890W        W29094  12.270   4.949   2.318  0.0050  0.1414  0.1155
10891W        W29095   5.893   6.413  13.077 -0.3505 -0.0260  0.0034
10892W        W29096   0.911   5.202   1.857  0.1995 -0.2535 -0.0152
10893W        W29097   2.156   8.997  12.444  0.2953  0.1144  0.0975
10894W        W29098   7.067   1.941   0.300  0.1790  0.2737 -0.2465
10895W        W29099   4.511   9.469   4.970  0.1742  0.0650 -0.0362
10896W        W29100   1.628   4.745  11.688 -0.1627 -0.2148 -0.1888
10897W        W29101   5.111   7.706  13.488  0.2314 -0.2380  0.0089
10898W        W29102   6.588   0.380  12.225  0.1475 -0.1714  0.0231
10899W        W29103  15.140  16.457   5.693  0.1718 -0.1488  0.1239
10900W        W29104   7.659   2.401  12.709  0.2361  0.2311 -0.0301
10901W        W29105   0.388   0.456  11.060 -0.1375 -0.2056 -0.0906
10902W        W29106   0.175   9.726   2.206 -0.1542  0.0803  0.0123
10903W        W29107  18.600   7.504   0.075 -0.0133 -0.3284  0.2154
10904W        W29108  14.660   2.700   1.064  0.0869  0.0145  0.0672
10905W        W29109  13.412  11.760  14.108 -0.0619  0.0648 -0.1773
10906W        W29110   4.119  13.187   0.712 -0.0029 -0.1897  0.1824
10907W        W29111  10.515  15.348  12.624 -0.0907  0.1080  0.1830
10908W        W29112   2.062   8.981   3.160  0.1391  0.0715  0.2806
10909W        W29113  16.789   4.609  12.590 -0.2121  0.0034 -0.0571
10910W        W29114   5.764  15.540   3.074 -0.1447 -0.1418  0.1413
10911W        W29115  13.056   6.628  10.346 -0.3886 -0.2095  0.2013
10912W        W29116   2.756  15.094   4.359  0.2660 -0.0603 -0.3718
10913W        W29117   4.037   7.164   2.909  0.1335  0.1769  0.0656
10914W        W29118  11.218  15.521  13.367 -0.2593  0.0105  0.2555
10915W        W29119  10.466  13.954   5.325  0.0128  0.2926  0.1361
10916W        W29120  16.269   2.470  11.267 -0.2795  0.0459 -0.0918
10917W        W29121  15.108   8.191   4.993  0.0882 -0.3098 -0.0611
10918W        W29122  11.676   9.141  11.164 -0.1154  0.1346 -0.0321
10919W        W29123  11.422  12.787   2.251 -0.2588 -0.3664 -0.2119
10920W        W29124   7.472  17.662   2.616 -0.1103 -0.0860 -0.0980
10921W        W29125   4.424   3.301  13.738  0.1007  0.0144 -0.1142
10922W        W29126   3.995  12.790  11.507  0.1201  0.1207 -0.3150
10923W        W29127   4.668   9.880  15.359 -0.2533  0.1755  0.1292
10924W        W29128   7.704   2.003   2.101 -0.0062  0.2063 -0.1235
10925W        W29129   5.640   2.917   1.276 -0.1717  0.0933 -0.2009
10926W        W29130  12.569  12.777   1.170 -0.1567 -0.1178 -0.3203
10927W        W29131  10.930  13.351  11.775  0.0554  0.0896  0.0846
10928W        W29132   2.755  14.422  13.687 -0.3065  0.2365 -0.0413
10929W        W29133   6.584   6.166  14.540  0.1773  0.0122 -0.0399
10930W        W29134   1.005  10.404   2.183 -0.1250 -0.7276  0.3402
10931W        W29135   0.482  16.617   1.294 -0.0083  0.1012 -0.1469
10932W        W29136  10.645  11.821  13.559 -0.0910  0.2699 -0.1315
10933W        W29137  15.601  11.490   2.170  0.4780 -0.1902  0.0113
10934W        W29138  10.701  16.763   2.993 -0.1274 -0.0415 -0.2099
10935W        W29139  10.903  13.996  14.690 -0.2453 -0.0335  0.1378
10936W        W29140   5.789   4.818  12.206 -0.1147  0.1092  0.0656
10937W        W29141   4.739  17.138   4.949 -0.0845 -0.2108  0.0609
10938W        W29142   8.525   5.775   0.663 -0.1645  0.1656  0.4127
10939W        W29143   6.159   0.163   1.701 -0.1380  0.0142 -0.0175
10940W        W29144  15.481  17.959  10.053 -0.3426  0.1773 -0.2136
10941W        W29145   4.123   3.983  12.058 -0.2321  0.1925 -0.0947
10942W        W29146   5.588   1.960  11.270  0.2243  0.0461 -0.1045
10943W        W29147  10.908   6.093   1.132  0.0305  0.3992  0.5981
10944W        W29148   5.610  17.964   4.885 -0.0007  0.2826  0.0747
10945W        W29149  14.343   8.548   4.264  0.4298  0.0214  0.3455
10946W        W29150   4.947   5.503  13.140  0.1239 -0.2316  0.2709
10947W        W29151   3.651  16.290  10.508 -0.1284  0.0843 -0.0392
10948W        W29152   7.463   8.398  15.133  0.1624 -0.0441  0.2839
10949W        W29153  11.034   3.913  13.895  0.0528 -0.0819 -0.3949
10950W        W29154   2.559  15.107  12.974  0.0796 -0.0923 -0.0597
10951W        W29155  15.361   0.962   0.976 -0.0408 -0.0516 -0.1486
10952W        W29156   1.652  14.990  13.294  0.1423 -0.1620  0.0727
10953W        W29157   8.336   9.658  14.242 -0.1064  0.0342  0.0090
10954W        W29158   0.961   3.252   4.856 -0.1921  0.1327  0.0123
10955W        W29159   8.366   1.211  14.378 -0.0517 -0.4644  0.1473
10956W        W29160   9.723  17.942   1.616 -0.1169 -0.1472 -0.1057
10957W        W29161   1.899   0.080   1.299 -0.1794  0.2247 -0.2455
10958W        W29162   9.695   8.952  12.289 -0.0931  0.1828  0.0338
10959W        W29163   0.092   4.156  12.100  0.0138 -0.0313 -0.1025
10960W        W29164   5.215   6.338   0.620 -0.0317  0.1004  0.2384
10961W        W29165   7.922  10.758  13.248 -0.1736  0.1686 -0.0685
10962W        W29166  12.025   2.685  12.464  0.0219  0.2318 -0.3594
10963W        W29167  13.586  12.346  13.927 -0.1472 -0.0694  0.0308
10964W        W29168  10.476   3.475  13.979 -0.1368  0.1081  0.3085
10965W        W29169   3.531  16.186   2.096  0.2254 -0.0376  0.1649
10966W        W29170   9.628  17.815   2.944 -0.0751 -0.1184  0.1034
10967W        W29171  17.608  16.601  10.346 -0.0527  0.0661  0.3685
10968W        W29172  15.351   8.827   1.532  0.2431  0.0808  0.0761
10969W        W29173   1.634   8.839   4.907  0.0514  0.3367  0.0641
10970W        W29174   8.416  17.490   2.454  0.2047  0.3621  0.0066
10971W        W29175  18.391   5.751   2.091  0.1518 -0.1164  0.1137
10972W        W29176  14.449  15.225   3.390 -0.0352  0.1013  0.0242
10973W        W29177   2.769  14.772   3.343 -0.1179 -0.1602 -0.1720
10974W        W29178   5.671  18.300   5.325  0.4126 -0.2148  0.2044
10975W        W29179   3.513  14.258  10.163  0.4554  0.0043  0.1981
10976W        W29180   8.575   2.766   2.550 -0.0421  0.1426  0.1024
10977W        W29181   5.572  15.676   4.364 -0.3595  0.0755 -0.0229
10978W        W29182  12.699   1.401   2.558 -0.2745 -0.3202  0.4329
10979W        W29183   6.461   2.774  10.754 -0.1268 -0.2592  0.3489
10980W        W29184  12.586  14.009  12.072  0.2697  0.1668  0.0589
10981W        W29185  15.216   4.456   1.570  0.0505  0.3331 -0.1385
10982W        W29186  11.257  16.740   2.855  0.2957 -0.1384  0.3999
10983W        W29187   5.363   2.987  13.141  0.1000  0.0050  0.0874
10984W        W29188   9.656   6.012   3.273  0.1472  0.0643 -0.1105
10985W        W29189  16.742  14.787  11.203  0.0755 -0.2258  0.0182
10986W        W29190   7.572  12.754   4.236  0.0138  0.3433  0.0307
10987W        W29191   5.696   5.333  11.304  0.0670 -0.1388  0.3357
10988W        W29192   9.483   9.488   3.424  0.0542 -0.0817  0.4688
10989W        W29193  13.944  11.302  11.921  0.4788 -0.0193  0.2803
10990W        W29194  18.599   4.951   3.561  0.2672 -0.1206  0.0366
10991W        W29195   9.791   9.206   4.907  0.1030 -0.1637 -0.3473
10992W        W29196  15.789  14.007   2.216  0.3363  0.0211 -0.1540
10993W        W29197   9.143   0.470   2.295 -0.1996  0.1319  0.2758
10994W        W29198  15.951   0.206   1.354  0.1118  0.0234 -0.1983
10995W        W29199   6.516   1.690   4.990 -0.0343 -0.0939 -0.1066
10996W        W29200   2.171   5.237   2.482 -0.0623  0.1736  0.0876
10997W        W29201   2.126  17.692  13.147 -0.0605  0.1119 -0.3018
10998W        W29202   7.419  15.381   4.036 -0.2734  0.1653 -0.2768
10999W        W29203  14.039  16.818   0.773 -0.0835  0.0249  0.1631
11000W        W29204   2.891  15.118  12.200  0.2024  0.1707  0.3106
11001W        W29205   9.863   6.121  14.483  0.0042  0.0241 -0.1166
11002W        W29206  14.875  16.316   3.581  0.0921 -0.2795 -0.2685
11003W        W29207  14.818   7.726  14.325 -0.0090  0.0558  0.1633
11004W        W29208   0.401  13.779   0.808  0.3743 -0.1230  0.1278
11005W        W29209  15.953  14.026  14.062  0.1177 -0.0136  0.0784
11006W        W29210  12.167  10.914  10.412 -0.0708  0.2104 -0.1327
11007W        W29211   8.771  14.954   2.133  0.2352  0.1369 -0.0174
11008W        W29212   1.744   2.222   2.586 -0.2155  0.2366 -0.0956
11009W        W29213  12.378   9.090   2.952  0.1002  0.3187  0.0954
11010W        W29214  16.723   7.509   4.742  0.0544  0.3023 -0.1310
11011W        W29215   6.897   2.830   0.451  0.1089 -0.1071 -0.0701
11012W        W29216   6.626   7.750  14.465  0.2016  0.2232  0.3030
11013W        W29217  16.606  12.897   3.908  0.2286  0.2540 -0.2223
11014W        W29218  18.112   4.196   4.919 -0.0124 -0.2537 -0.3704
11015W        W29219   6.651   0.670   3.805 -0.0098  0.1147 -0.0388
11016W        W29220   8.939  17.134   3.594  0.1067 -0.1665  0.2652
11017W        W29221   0.127  14.778   3.116  0.4943  0.0797 -0.1713
11018W        W29222   8.513   7.565   4.844  0.2310  0.0143  0.2228
11019W        W29223   7.260   1.620   2.138  0.3411 -0.0385 -0.1029
11020W        W29224   1.762  14.656   2.073 -0.0828  0.1963 -0.3286
11021W        W29225   8.084   7.607  15.342 -0.0074 -0.2187  0.1731
11022W        W29226  13.140  16.657  14.234  0.2954  0.1844 -0.0001
11023W        W29227   6.708  12.942  10.990 -0.3100 -0.2393  0.1517
11024W        W29228   5.484   4.472  12.230 -0.0881 -0.1239  0.0765
11025W        W29229   6.305  15.385   1.383  0.0139  0.1934  0.4200
11026W        W29230   9.016   7.467   2.717  0.1110 -0.0783  0.1249
11027W        W29231  11.343  14.932  10.250 -0.1141  0.0526 -0.0254
11028W        W29232   4.491  14.516   3.410  0.1202  0.0322 -0.0301
11029W        W29233  13.139   8.800   1.381 -0.1224 -0.2273  0.0700
11030W        W29234  17.966   9.680  10.241 -0.1557  0.1774 -0.0745
11031W        W29235  17.375  11.566  15.069 -0.0262  0.3147  0.1178
11032W        W29236   8.780   7.897   3.602  0.0379 -0.0449 -0.1890
11033W        W29237  16.251  15.403   1.494 -0.1060  0.0670 -0.1399
11034W        W29238   2.224   6.719  11.809  0.0635  0.0076 -0.0484
11035W        W29239   7.949   5.339   1.886 -0.0261 -0.1057 -0.1023
11036W        W29240  12.479   2.902  10.990  0.1190  0.2310 -0.4602
11037W        W29241  10.509   2.486   1.238  0.1255  0.0145  0.0449
11038W        W29242   6.949  17.940  11.541 -0.1115  0.0739 -0.2206
11039W        W29243   7.781  13.208   4.360 -0.1580  0.0814 -0.1489
11040W        W29244   1.102   6.775   1.628 -0.0570  0.2276 -0.1125
11041W        W29245   9.435   8.770   1.018 -0.2054  0.0223 -0.2915
11042W        W29246   6.368  14.765  12.144  0.0840  0.2781  0.0567
11043W        W29247  15.786  16.790  15.006  0.1759  0.1373  0.1595
11044W        W29248  17.719  17.175  14.926 -0.0414  0.1305 -0.1247
11045W        W29249   9.599   4.580   2.119 -0.2302  0.1536  0.0707
11046W        W29250  12.853   8.374  15.054  0.0973  0.2703  0.0905
11047W        W29251   9.914  12.750  15.045 -0.1373  0.3476  0.1782
11048W        W29252  14.466  16.492   0.939 -0.1964 -0.0188  0.0161
11049W        W29253  11.662  16.746   2.552 -0.1847  0.0437  0.1359
11050W        W29254   8.594  17.923   2.598  0.0080  0.1644  0.1007
11051W        W29255  17.898  15.498   3.763 -0.2579 -0.0367 -0.3038
11052W        W29256  17.077  14.945   2.104  0.2090 -0.1077  0.1315
11053W        W29257  17.301   2.809   1.470 -0.2950 -0.0284 -0.0862
11054W        W29258  15.512  14.130  14.216  0.1712 -0.0995  0.1029
11055W        W29259   6.941   5.691  13.630 -0.0253 -0.0965 -0.0768
11056W        W29260   2.811   5.343  13.083  0.0609  0.0146  0.0020
11057W        W29261   0.964   2.276  12.954  0.0753  0.4624 -0.0661
11058W        W29262   0.990   1.794   2.830 -0.0836  0.1973  0.0413
11059W        W29263   4.678   3.730  11.180 -0.2407  0.0126  0.1397
11060W        W29264  11.458   6.052   2.595  0.1128  0.2034  0.2279
11061W        W29265  16.616   9.773   2.586  0.3572  0.0083 -0.0952
11062W        W29266  14.511  13.618  12.114  0.0249 -0.2716  0.0274
11063W        W29267   7.197   0.535   4.651  0.4191 -0.1890  0.2921
11064W        W29268   2.839   1.797  13.934  0.1606 -0.2578 -0.2406
11065W        W29269   5.061   9.179  10.168 -0.1336 -0.0263 -0.0349
11066W        W29270   7.045   1.301   3.352 -0.1927 -0.0001  0.3628
11067W        W29271   6.814  14.524  11.838  0.0957 -0.2204 -0.0053
11068W        W29272   4.899   4.015  11.548 -0.0367  0.1435  0.2000
11069W        W29273  12.722  18.299   1.137 -0.3534  0.3771 -0.0385
11070W        W29274   9.817   2.840   0.039  0.0773 -0.0037 -0.0167
11071W        W29275  12.904  12.901  14.868  0.2345 -0.2249  0.2731
11072W        W29276   3.987   0.383   1.515  0.0488  0.3653  0.2687
11073W        W29277  16.384   7.381  15.034  0.2840 -0.1023 -0.1491
11074W        W29278  14.242   7.680   0.043  0.2641  0.1773 -0.0482
11075W        W29279   1.488   5.777   3.458  0.1333  0.2201  0.0950
11076W        W29280  12.790   1.950  14.349 -0.1304  0.0935  0.1313
11077W        W29281  17.048   5.698  12.256  0.0043  0.3744 -0.2532
11078W        W29282   3.214  12.359  15.405 -0.0454 -0.0271  0.0127
11079W        W29283   8.334   2.839  13.088  0.0018 -0.2132 -0.0110
11080W        W29284   0.014   2.346   3.029  0.0776  0.0005  0.1932
11081W        W29285   3.512  16.474  11.979  0.2027  0.0989  0.1135
11082W        W29286  14.694   4.885   3.726 -0.1856  0.2456  0.0079
11083W        W29287   3.722  17.107  14.409 -0.1217  0.0552 -0.1831
11084W        W29288   5.212  11.593   2.052  0.0269  0.3643  0.1010
11085W        W29289   0.952   9.243   0.411  0.2722 -0.0058 -0.2184
11086W        W29290  11.787   5.769  13.507  0.1977 -0.1475  0.0724
11087W        W29291  12.459   3.782  12.755 -0.1212 -0.0241 -0.1030
11088W        W29292   5.840   7.698   3.564 -0.1141 -0.1948  0.0374
11089W        W29293   0.364  15.052   4.608  0.1316 -0.0986  0.0326
11090W        W29294   7.308   7.037   1.820  0.3208 -0.0450 -0.2610
11091W        W29295  12.923  10.779   3.590 -0.1952 -0.1874  0.2504
11092W        W29296  13.270  16.190   2.620  0.2274 -0.0574 -0.0335
11093W        W29297  12.682   8.054   0.479 -0.2158  0.2555  0.0922
11094W        W29298  18.570   9.790  14.333  0.0905  0.0969 -0.2238
11095W        W29299   7.715  11.787  12.241  0.2981  0.2483  0.0659
11096W        W29300   2.399   6.775   3.592 -0.1901 -0.0760 -0.2929
11097W        W29301   6.932  10.103  14.058 -0.1287 -0.1998 -0.4189
11098W        W29302   1.364   8.319  12.719  0.3475 -0.0496 -0.1065
11099W        W29303  12.142   0.967   3.380 -0.1787 -0.1887 -0.2520
11100W        W29304  18.511   3.696  12.129 -0.1979 -0.1702  0.4612
11101W        W29305   6.977  18.057  12.072  0.1097 -0.0021 -0.3621
11102W        W29306   8.982  12.150  11.108 -0.0729 -0.2630 -0.0203
11103W        W29307   6.285   9.849   0.024  0.2603  0.1194  0.0494
11104W        W29308   1.736   0.097   2.148  0.2724  0.0884  0.0852
11105W        W29309   4.342   2.795   2.909  0.1228 -0.1662 -0.2590
11106W        W29310  15.725  14.472  14.570 -0.3341  0.1042  0.0004
11107W        W29311   5.277  15.517   0.618 -0.2428 -0.1333  0.2467
11108W        W29312  14.900   4.188  10.604  0.1409 -0.0343  0.1284
11109W        W29313  13.237   3.450  13.346  0.3465  0.1285  0.0601
11110W        W29314  12.870   6.791   1.238  0.0289  0.1832  0.0747
11111W        W29315  14.637   0.962  13.625 -0.0817 -0.3543 -0.1310
11112W        W29316  12.244   4.514  14.282 -0.1728  0.0282  0.2993
11113W        W29317   9.218   5.107   2.148 -0.3315  0.1250  0.2604
11114W        W29318  10.775  15.798   3.613 -0.3395 -0.0169 -0.1315
11115W        W29319  11.992  10.564   1.232 -0.4049 -0.2831  0.0026
11116W        W29320   3.183   5.814  15.062  0.1425 -0.3301  0.0194
11117W        W29321   1.028   6.070  11.167  0.0081 -0.0796 -0.1915
11118W        W29322   1.924  16.547   4.014 -0.0363 -0.3011 -0.0990
11119W        W29323   3.307   3.040   0.550  0.3028  0.0793 -0.2831
11120W        W29324   3.181  10.330  13.998  0.0072  0.2100  0.0114
11121W        W29325   6.928  15.644  14.501  0.3228  0.0991 -0.1088
11122W        W29326   0.611   3.145  12.620 -0.0745  0.0139  0.0442
11123W        W29327   3.362   2.159   5.617 -0.1311 -0.0454  0.1777
11124W        W29328   9.087  14.255   5.767  0.1319  0.2139  0.3138
11125W        W29329  10.208   3.432   5.439 -0.0218  0.0040 -0.2008
11126W        W29330   8.340  15.719   4.362  0.2525 -0.0084 -0.2153
11127W        W29331   9.653  17.068   4.922 -0.1243  0.1379  0.1233
11128W        W29332  12.682  17.970  11.754  0.3417 -0.1234  0.0747
11129W        W29333  16.671   0.080   0.235 -0.3223 -0.2187  0.1660
11130W        W29334  11.275   4.302   1.653 -0.0518 -0.0798  0.1226
11131W        W29335  11.747   6.020   3.080 -0.1516  0.0628 -0.0227
11132W        W29336  14.932  11.141   2.800 -0.1221 -0.1077 -0.0520
11133W        W29337   7.575  11.165  14.529 -0.2909 -0.1454 -0.0823
11134W        W29338  14.633   1.623  13.720 -0.1182  0.1237  0.5011
11135W        W29339  12.423   9.730  14.321  0.0518  0.1045  0.1676
11136W        W29340  12.227   1.960  15.167 -0.2965 -0.2017 -0.1064
11137W        W29341  15.251  14.345   1.675 -0.1847 -0.0891 -0.0180
11138W        W29342   7.418  12.211  13.243  0.1555  0.2399  0.3355
11139W        W29343  18.139   9.626   0.979 -0.0902 -0.2055 -0.5525
11140W        W29344   5.512  10.575   4.039 -0.0447  0.0242 -0.0992
11141W        W29345   9.707   7.353   2.482  0.1352 -0.5813  0.0627
11142W        W29346  13.936   5.465   4.259  0.1624 -0.0524  0.2019
11143W        W29347  13.261   6.396   9.964  0.3030  0.0370  0.4140
11144W        W29348  18.072   0.676   2.116  0.0418  0.0816  0.1739
11145W        W29349   0.667  14.093  14.856  0.1759  0.1021  0.0727
11146W        W29350   5.246   3.519  13.233 -0.0660  0.0077 -0.1852
11147W        W29351   5.972  16.681   2.111  0.0090  0.0342  0.4419
11148W        W29352   4.897   8.314  11.789 -0.0252  0.3410 -0.0203
11149W        W29353  11.184   1.982  13.089 -0.0711 -0.0086  0.0230
11150W        W29354  12.788  11.267  15.037 -0.0566 -0.1610 -0.2008
11151W        W29355  10.251   6.276   0.343  0.1849  0.0818  0.4040
11152W        W29356  10.959  12.928  10.860  0.2077  0.0223 -0.0533
11153W        W29357  17.786   3.944   2.776  0.3794 -0.0051  0.0974
11154W        W29358   4.633   6.598  10.451  0.0818 -0.0283  0.1969
11155W        W29359   7.000  11.349  15.141 -0.2729  0.0493  0.1448
11156W        W29360   2.218   2.081   2.395 -0.2831  0.1445  0.3501
11157W        W29361   2.116  17.806   2.113  0.3965 -0.2962 -0.1518
11158W        W29362  16.445  14.904  14.810 -0.0860  0.0304 -0.0202
11159W        W29363   4.811  12.144   1.270  0.0130  0.0689 -0.2133
11160W        W29364   6.622   5.784   0.635 -0.0451  0.0632  0.2789
11161W        W29365  16.452   7.823  14.554  0.2619 -0.0680  0.0971
11162W        W29366   7.910   2.564  11.412  0.0941 -0.0990  0.0547
11163W        W29367   5.208   7.827  12.261  0.0129 -0.0493 -0.0942
11164W        W29368   1.076  13.561   3.474 -0.0844 -0.1976 -0.0482
11165W        W29369   3.911   2.493   2.816  0.0391  0.0649 -0.1037
11166W        W29370  16.501  12.706   2.726 -0.3400 -0.0701  0.5042
11167W        W29371   7.756  15.007  14.396 -0.4579  0.1403 -0.0421
11168W        W29372  14.439  18.335  13.411 -0.5167 -0.0679 -0.3230
11169W        W29373   1.491   3.540  14.145  0.2984 -0.0780 -0.1502
11170W        W29374   3.208  13.529  10.824  0.2974  0.0615 -0.2538
11171W        W29375  16.013   1.768   0.333  0.1457 -0.1359  0.1543
11172W        W29376  15.329   8.334  14.949  0.0774  0.0329  0.1847
11173W        W29377  17.052  11.155  11.500  0.1139 -0.1247  0.2862
11174W        W29378  15.741  15.601  14.774  0.2143  0.2611 -0.0209
11175W        W29379   0.911  18.424   3.039  0.0418 -0.0890 -0.1381
11176W        W29380   7.721   9.392  13.716  0.4497  0.0174 -0.1188
11177W        W29381   3.347  11.206  12.769 -0.1101 -0.0096  0.1115
11178W        W29382   2.613  15.992   5.129  0.1761 -0.0967  0.0269
11179W        W29383  17.062   3.687   0.910  0.1381  0.0595  0.4654
11180W        W29384   0.461   6.116   5.362  0.0381 -0.0667 -0.1481
11181W        W29385   0.484  15.398  14.528 -0.1172 -0.0512 -0.0680
11182W        W29386   9.016   8.034  11.278 -0.0286 -0.1765 -0.1550
11183W        W29387   9.275  17.920  12.005 -0.2878 -0.2425  0.0213
11184W        W29388   6.644   3.342   3.176 -0.1292  0.4423 -0.0650
11185W        W29389   9.619   5.346  14.515 -0.0693 -0.1880  0.0169
11186W        W29390   1.978  14.520  12.551 -0.2522 -0.1325  0.0010
11187W        W29391   1.804  15.674   1.808  0.1988  0.0282  0.3035
11188W        W29392   8.512  15.176  12.741 -0.0016  0.0148  0.1061
11189W        W29393  17.439  18.205   0.736  0.0073  0.0173  0.0103
11190W        W29394  11.808  15.611   3.028 -0.2616  0.0515  0.0463
11191W        W29395   9.796  17.483   1.430 -0.2154  0.2836  0.1287
11192W        W29396  15.300  10.786   0.293  0.2417  0.0210  0.2063
11193W        W29397   4.253  14.289   4.589 -0.1833 -0.0148 -0.0720
11194W        W29398  14.631   7.985   0.513 -0.1972  0.0947  0.0564
11195W        W29399  12.682  12.367   4.487  0.1956 -0.0951  0.0546
11196W        W29400   8.183  14.520   0.673  0.1031 -0.0981 -0.0790
11197W        W29401   9.958  15.299   4.957 -0.1417 -0.0401  0.0299
11198W        W29402   0.892  17.927   4.787  0.0910  0.0608 -0.0559
11199W        W29403   6.719  13.008  14.216  0.0534  0.0346  0.0093
11200W        W29404  18.050  15.466   1.231 -0.0775  0.2970 -0.1144
11201W        W29405  13.217   1.550   2.526 -0.5180  0.2282  0.5455
11202W        W29406  13.958   1.391  15.344  0.1709 -0.0787 -0.0959
11203W        W29407   3.692  18.352   2.789  0.1887  0.1440 -0.0954
11204W        W29408   8.334  13.842   4.289  0.0557 -0.3260  0.0347
11205W        W29409   4.617  14.598  11.191 -0.2581  0.1938 -0.0053
11206W        W29410  14.929   6.636  10.820 -0.0096 -0.2103 -0.0608
11207W        W29411  18.451   9.579  11.200  0.0677  0.0854 -0.2204
11208W        W29412   4.132   1.264   4.398 -0.2528 -0.0200 -0.1750
11209W        W29413   7.910   4.383  13.344  0.1373 -0.0177 -0.0717
11210W        W29414  13.722   6.093   0.619  0.0559 -0.0035  0.2332
11211W        W29415  17.610   9.808   0.875 -0.2041  0.2611 -0.0415
11212W        W29416   6.483   2.586  11.716 -0.0086  0.0187 -0.2239
11213W        W29417   9.945  12.467   2.821 -0.0580 -0.0447 -0.3237
11214W        W29418  14.368   7.748   2.596  0.1739  0.1282  0.0518
11215W        W29419  16.522   8.378   0.398 -0.1965  0.1199  0.1981
11216W        W29420   7.442   1.620   1.110  0.1099  0.1377 -0.0349
11217W        W29421  11.324   5.922   3.442 -0.2113  0.1377  0.0288
11218W        W29422   4.446   7.777   2.535 -0.1519  0.3077 -0.0375
11219W        W29423   7.219  13.432   1.840  0.2601 -0.0946  0.1629
11220W        W29424   2.994  14.166   1.447  0.0223 -0.0707 -0.2933
11221W        W29425   7.346   7.215  10.820  0.0900 -0.4085  0.1484
11222W        W29426  17.757   6.547   3.364 -0.0037  0.0360  0.0943
11223W        W29427   3.807  18.161   4.118 -0.1203 -0.1529 -0.0780
11224W        W29428  15.471   5.599   3.148  0.0961  0.2629 -0.0829
11225W        W29429   6.070   0.251  13.126 -0.1928  0.0399  0.1093
11226W        W29430   4.195  17.418   0.286  0.2011 -0.2049  0.0559
11227W        W29431  12.342  16.146   3.793 -0.1538 -0.2376  0.4891
11228W        W29432   9.850  14.849  11.127 -0.0196  0.0370  0.0278
11229W        W29433  14.808   4.278   2.708 -0.3063 -0.0847  0.2420
11230W        W29434  11.784   1.854   0.958  0.3532 -0.3800  0.1473
11231W        W29435  10.200  12.261  12.652 -0.0285 -0.0356  0.0381
11232W        W29436   4.700  13.611  14.419  0.0564 -0.1753 -0.0303
11233W        W29437  18.587   8.115   4.318 -0.0732 -0.1899 -0.3962
11234W        W29438   0.302   2.021  11.518 -0.1483 -0.0861 -0.3808
11235W        W29439   1.920  13.020  12.594  0.1601  0.1496  0.0686
11236W        W29440  17.577  10.463  13.322 -0.1657  0.2647  0.0520
11237W        W29441   8.960   4.108   3.703 -0.1542 -0.2109 -0.0596
11238W        W29442  17.430   8.103  14.690 -0.1193 -0.1809 -0.1020
11239W        W29443   7.941  14.560   3.826 -0.2181  0.0517  0.1397
11240W        W29444  17.182  12.446   5.663 -0.1272 -0.1510  0.0992
11241W        W29445   9.872  15.304   1.092 -0.1662  0.1463 -0.2939
11242W        W29446   7.644   6.364   2.590  0.1949 -0.0201  0.0152
11243W        W29447  10.776  12.511   3.819 -0.1761  0.3058 -0.0827
11244W        W29448   3.981  17.480  13.539  0.0642 -0.0656 -0.0652
11245W        W29449  11.790  15.151   1.059 -0.0699  0.0501 -0.0231
11246W        W29450  14.454  11.177  13.293 -0.1442 -0.0970  0.0765
11247W        W29451   1.865  14.987   2.790  0.0512 -0.1208 -0.0409
11248W        W29452  15.673  18.073  14.821 -0.3282  0.0533 -0.2241
11249W        W29453   1.625   3.042   2.423  0.1321  0.2368  0.1355
11250W        W29454   7.280   4.990  14.245  0.0698  0.1132  0.1584
11251W        W29455   1.788  15.450  11.438  0.1420 -0.3274  0.1308
11252W        W29456   5.531   9.111   2.792 -0.0289 -0.1586  0.0803
11253W        W29457   1.674   1.175  14.351  0.0477 -0.1249  0.1442
11254W        W29458  18.106   2.630  10.329 -0.3768 -0.0067 -0.1889
11255W        W29459  10.585  11.112   3.589  0.0882 -0.0720 -0.2488
11256W        W29460  17.490  18.469  15.130  0.1769  0.1092 -0.1847
11257W        W29461  13.182   7.961  12.265 -0.1835 -0.3218 -0.0907
11258W        W29462   1.955   5.531   3.220 -0.2264 -0.0642  0.2721
11259W        W29463   0.229   4.645  10.488  0.0274  0.3115 -0.2396
11260W        W29464  14.064   4.223  11.541 -0.0175  0.2569 -0.4444
11261W        W29465   4.375   5.340  11.557  0.0636 -0.4320 -0.1732
11262W        W29466  10.974  18.074  12.898  0.1181 -0.3140 -0.2918
11263W        W29467  14.318  17.823   3.448 -0.0264 -0.0185  0.3163
11264W        W29468   7.857   7.309  10.482 -0.0495 -0.1176 -0.3649
11265W        W29469  11.801   0.477  12.915 -0.2735 -0.1272  0.2126
11266W        W29470   4.619  11.140   0.209  0.1019  0.2247  0.0979
11267W        W29471   3.678  10.230   0.318  0.0757  0.0522  0.4086
11268W        W29472   0.600  17.074  10.965 -0.0896 -0.3298 -0.2193
11269W        W29473   8.020  11.393  14.457  0.1495 -0.1734  0.2032
11270W        W29474  16.062   8.616   3.987  0.0117 -0.0431  0.1483
11271W        W29475  16.175   9.588  13.070 -0.1834 -0.3326  0.3565
11272W        W29476  16.278   4.346  15.374  0.0062 -0.1500  0.0549
11273W        W29477   2.907  14.416  11.606 -0.0202 -0.1722  0.2460
11274W        W29478   0.444   1.803  12.506  0.3459  0.0959 -0.1407
11275W        W29479  16.853   7.529   0.406 -0.1912 -0.0023  0.0506
11276W        W29480   7.453   3.428   1.249  0.0502 -0.0030 -0.0622
11277W        W29481   7.189   8.031  12.137  0.4257  0.1378 -0.2163
11278W        W29482   3.509   4.619  12.287 -0.0800  0.2182 -0.0351
11279W        W29483  17.456  14.039  13.889 -0.0067  0.1577  0.4054
11280W        W29484  18.100   7.284   4.523  0.0141 -0.0092 -0.1074
11281W        W29485   6.960   3.696  12.203  0.0145  0.2376  0.0037
11282W        W29486   4.474   6.669   0.171 -0.1561 -0.1676  0.0947
11283W        W29487   4.795  15.125  11.484  0.0125 -0.2361 -0.0946
11284W        W29488  14.198   5.588   4.737  0.2500  0.0382  0.0373
11285W        W29489  12.942   0.966   1.254 -0.2310 -0.5547  0.0368
11286W        W29490  13.668  16.931  12.536  0.2188  0.0809  0.0933
11287W        W29491  17.898   8.674  12.012 -0.2198  0.1168 -0.2449
11288W        W29492   4.334  18.134   4.104 -0.1401  0.0885  0.0062
11289W        W29493   5.353   7.356   9.721  0.0582  0.1252  0.2297
11290W        W29494  12.147  10.350   2.185  0.1933 -0.1797  0.0949
11291W        W29495   7.792   7.284   1.709 -0.0215  0.1498 -0.2037
11292W        W29496   3.049  18.506   2.885  0.1992  0.0470  0.0733
11293W        W29497   9.383   8.327  11.583  0.1152  0.1638  0.1898
11294W        W29498   1.512   1.030   1.054 -0.2713 -0.2127 -0.0884
11295W        W29499  18.047  18.027   1.219  0.0161  0.1229  0.0802
11296W        W29500   8.324  13.744  11.164  0.1373  0.0913 -0.2801
11297W        W29501   1.814   0.370   3.652  0.0619 -0.0277  0.2264
11298W        W29502  15.501   1.338  11.437 -0.2780 -0.0433  0.2285
11299W        W29503   6.376  10.532   0.604  0.2438 -0.1347 -0.1900
11300W        W29504   7.457   1.456   4.380  0.2008 -0.1820  0.1786
11301W        W29505   4.791  16.019   3.216 -0.0368 -0.0832  0.1173
11302W        W29506   0.427   1.177  11.473  0.2224  0.1792  0.0652
11303W        W29507  17.012  15.727  10.303  0.1920 -0.1175  0.0755
11304W        W29508  17.936  12.653   4.031  0.0379  0.2999  0.1606
11305W        W29509  14.220  12.902  11.549 -0.1242 -0.1551 -0.0666
11306W        W29510  11.108   1.242   3.005 -0.1998  0.0557 -0.1736
11307W        W29511   2.211   3.213   3.978 -0.1376  0.3274 -0.1932
11308W        W29512   4.330  16.317  14.822  0.1522 -0.0530  0.1068
11309W        W29513   1.470   8.236  10.173 -0.2032  0.0959 -0.1255
11310W        W29514   7.115  15.090   3.745  0.0908 -0.2205 -0.1123
11311W        W29515  16.333   7.277  12.713 -0.1417 -0.0077 -0.0684
11312W        W29516  15.175   6.405   4.088  0.4905  0.4059  0.2430
11313W        W29517  15.473  18.081   3.111  0.2222  0.1831 -0.0231
11314W        W29518  17.499   2.889  13.353 -0.1377 -0.3925 -0.2526
11315W        W29519  11.786  11.585  13.441  0.0497 -0.2931  0.0041
11316W        W29520  13.688  16.507  13.301  0.2822 -0.1876  0.2655
11317W        W29521  17.745   4.110  10.069  0.1401  0.0951  0.2137
11318W        W29522  12.294  15.084  14.483 -0.2743  0.0543 -0.1182
11319W        W29523   4.986   9.450   1.152  0.2472 -0.0248  0.0817
11320W        W29524   0.551  13.687   1.261  0.1859 -0.0779  0.0168
11321W        W29525  18.587  10.746   2.799  0.0200  0.2135 -0.0782
11322W        W29526  11.152  10.894   0.974 -0.0245  0.0028 -0.1610
11323W        W29527  11.432   8.238  13.806  0.2340 -0.1103  0.0907
11324W        W29528   7.857  12.242   3.555  0.0686 -0.1789  0.2950
11325W        W29529  16.444   0.582   1.515 -0.0673  0.1914 -0.0943
11326W        W29530  14.110  17.436   4.470  0.0424  0.1826 -0.0983
11327W        W29531   9.924   2.886  13.101  0.1618  0.1412 -0.0177
11328W        W29532  10.504  17.236   0.992  0.1220  0.1603  0.1464
11329W        W29533   8.881   3.096  11.478  0.0150  0.0547  0.1317
11330W        W29534  12.043   8.757  14.519 -0.3204  0.1193  0.0641
11331W        W29535  14.828  10.483   1.836  0.0111  0.0449 -0.2653
11332W        W29536   5.249   3.441   0.308  0.0647  0.2902 -0.4100
11333W        W29537   6.646  13.696  11.057 -0.0059  0.1752 -0.0723
11334W        W29538   7.654  14.637   1.492 -0.3472  0.0351  0.0603
11335W        W29539  16.617  13.782  12.817  0.0124  0.2030 -0.1635
11336W        W29540  15.735  13.902  12.479  0.1125 -0.3325 -0.1093
11337W        W29541  15.608   6.553  11.584  0.2829 -0.0187  0.2493
11338W        W29542   8.573  11.297   3.794 -0.0078  0.0268  0.0621
11339W        W29543   1.449   6.030  12.081  0.1971  0.0972 -0.0117
11340W        W29544   7.638  14.462   3.050  0.2008 -0.3295 -0.0373
11341W        W29545   5.826   0.726   2.251  0.1332 -0.2518  0.0382
11342W        W29546  13.845   9.360  14.625  0.2616  0.4168 -0.4568
11343W        W29547  11.396  13.610   0.684  0.2966 -0.0425 -0.0628
11344W        W29548   3.891  15.800  13.978  0.3188 -0.0454 -0.1396
11345W        W29549  15.141  16.561  14.015  0.1665 -0.0081 -0.2078
11346W        W29550   5.053   1.470  11.920  0.0716  0.2152  0.2006
11347W        W29551   0.764   7.116   3.050  0.0309 -0.0555  0.0196
11348W        W29552  16.383  10.754  11.834  0.0730  0.0668  0.0870
11349W        W29553   2.056  17.837   2.941 -0.1255  0.1596 -0.1857
11350W        W29554   7.690  13.223  14.689 -0.0799  0.2870  0.1681
11351W        W29555   4.481  12.022  11.718  0.0486 -0.0523 -0.1746
11352W        W29556   3.280   6.307  12.686  0.0113 -0.2079 -0.0001
11353W        W29557  15.252  13.832   0.494 -0.0788  0.0610 -0.1616
11354W        W29558   6.066   2.698   1.140 -0.1004  0.2542 -0.2836
11355W        W29559   3.078   2.354  10.954 -0.0723 -0.0586  0.1496
11356W        W29560   2.942  11.548   2.550 -0.1135  0.6145 -0.0403
11357W        W29561  18.558  13.328  13.149  0.3209 -0.0022 -0.0737
11358W        W29562   0.250  16.331   1.663 -0.1535  0.2243  0.0490
11359W        W29563  16.462  11.226  14.558  0.1351  0.0997 -0.0300
11360W        W29564  14.588   0.463  10.585 -0.1166 -0.0314 -0.0639
11361W        W29565   9.192  13.247  11.903  0.1533 -0.2144 -0.1205
11362W        W29566   6.923  16.032  13.452 -0.1049  0.1196 -0.1192
11363W        W29567   8.656  10.064   3.703 -0.1553 -0.1562  0.1382
11364W        W29568  11.520  12.557  15.011 -0.3731 -0.1436 -0.0499
11365W        W29569  16.578   1.057  13.779 -0.2501 -0.1078 -0.0117
11366W        W29570   4.228  13.290  12.982  0.0112 -0.1241  0.1018
11367W        W29571  10.215  14.556   2.784 -0.3475 -0.3994  0.2945
11368W        W29572   5.612  10.629   2.246  0.0385  0.4919 -0.1722
11369W        W29573   6.434  10.350  13.361 -0.0418  0.0056  0.0332
11370W        W29574   4.891  18.065  12.257  0.1505 -0.0514  0.0949
11371W        W29575  16.651  17.106   0.845 -0.0933 -0.0309  0.0073
11372W        W29576  16.329   6.061  13.217 -0.1323  0.1536  0.0199
11373W        W29577   1.143   3.298   0.086 -0.1535 -0.3246 -0.0564
11374W        W29578   9.415   2.392  15.139 -0.3261 -0.2352 -0.1441
11375W        W29579  17.221   3.226  14.540  0.3772  0.2140  0.2932
11376W        W29580   0.705   2.429  13.717 -0.1904  0.2607 -0.2733
11377W        W29581  14.308   4.047   4.502  0.1267  0.0632  0.0378
11378W        W29582   4.040   9.108  12.590 -0.0051  0.0460  0.1642
11379W        W29583   7.527  12.900   4.722 -0.1074 -0.0830  0.2623
11380W        W29584   3.469   3.768   1.769  0.0875 -0.0057  0.0396
11381W        W29585  18.403   3.609   1.495 -0.1485 -0.0320  0.0931
11382W        W29586  18.582  18.028   0.260 -0.3729 -0.2777  0.0106
11383W        W29587  17.820  16.831  11.911  0.2279  0.2046 -0.2252
11384W        W29588   5.369   6.417   1.998  0.1331  0.0646 -0.1343
11385W        W29589  16.240   2.367   2.977 -0.0240  0.0850 -0.1953
11386W        W29590   8.792  14.945   1.158 -0.0288  0.2127 -0.1533
11387W        W29591  13.775   1.058   5.618  0.0406 -0.0686 -0.0723
11388W        W29592  10.117  18.297  13.296  0.0792 -0.1603  0.2443
11389W        W29593  18.070  13.791  13.298  0.1362  0.1577  0.2594
11390W        W29594   1.463   9.601  11.335  0.0989 -0.0218  0.0541
11391W        W29595   5.616  12.094   3.664 -0.1244  0.1786 -0.0901
11392W        W29596   6.579   0.827  11.948 -0.0817 -0.1863  0.2419
11393W        W29597   5.955   3.939   0.326  0.2096  0.1620 -0.1141
11394W        W29598   5.120  11.823  12.600  0.0535  0.0888  0.1512
11395W        W29599  16.384   9.936  14.516  0.0589  0.3911  0.1933
11396W        W29600   8.921   5.610   3.529 -0.0606 -0.1167  0.0716
11397W        W29601  13.533   5.257   0.142 -0.1719 -0.1153  0.2333
11398W        W29602   9.578   0.881   0.957 -0.0492  0.1744 -0.1788
11399W        W29603  10.776   3.630  11.931  0.2496 -0.1093 -0.3297
11400W        W29604  10.520  18.069  13.547  0.1193  0.1111  0.0646
11401W        W29605   7.687   1.688   3.209  0.1202 -0.2010 -0.2466
11402W        W29606   7.530  11.472   5.109 -0.0620 -0.0384 -0.0117
11403W        W29607  10.240  12.349  14.750  0.3148  0.0776  0.0214
11404W        W29608   5.486  15.508  13.168  0.1063  0.2792 -0.0640
11405W        W29609   3.126   2.670  15.125  0.1157 -0.1835 -0.1864
11406W        W29610   7.319  16.634  12.072  0.0712  0.1154  0.3529
11407W        W29611  10.953  13.720  11.381  0.4082  0.1385 -0.1913
11408W        W29612   1.637   8.398   0.633  0.1074  0.4661 -0.0100
11409W        W29613  13.710   1.850  13.101  0.3384 -0.0321  0.1470
11410W        W29614   9.972  18.611   1.083  0.3430  0.0518  0.1381
11411W        W29615   9.011   4.734   4.048  0.0844 -0.4393  0.0220
11412W        W29616  16.897  11.864   1.559  0.0414  0.0485  0.1346
11413W        W29617  10.932   3.690  10.856  0.0292  0.1185 -0.0874
11414W        W29618   5.992   5.325   1.691 -0.0860 -0.4110 -0.1730
11415W        W29619   6.280  16.263   3.541  0.0057 -0.2444  0.0037
11416W        W29620  16.280  17.684   2.644  0.0247 -0.0239  0.0415
11417W        W29621  10.916   1.869  14.626  0.2763  0.1834  0.1406
11418W        W29622   5.879  10.867   3.726  0.2040 -0.0165  0.2029
11419W        W29623  12.322   6.889  14.962 -0.2243  0.0243  0.1321
11420W        W29624  10.481   4.826   2.978 -0.1897  0.4552 -0.1992
11421W        W29625   8.946   2.910   1.875  0.0728 -0.2312 -0.0573
11422W        W29626   3.957  16.788   3.440 -0.0264  0.2316 -0.4722
11423W        W29627   0.377   2.166  10.878 -0.2979  0.1594  0.0461
11424W        W29628  17.934   7.323  11.550  0.0409 -0.0281 -0.2924
11425W        W29629  10.034   5.017   2.390  0.2775 -0.0863 -0.1039
11426W        W29630   4.801   5.293  12.691 -0.1402 -0.1030  0.0335
11427W        W29631   7.124  14.727   2.386  0.0618 -0.1114 -0.0586
11428W        W29632  11.881   1.719   3.821  0.0492 -0.1194  0.2157
11429W        W29633   1.467   5.926  10.914 -0.0041  0.0269  0.1396
11430W        W29634  13.087   8.169   3.753  0.2071 -0.1960  0.0445
11431W        W29635   1.411   7.469   0.849 -0.1013  0.3027 -0.3010
11432W        W29636  16.444  13.186   0.456  0.0606 -0.0203 -0.1079
11433W        W29637  10.279  14.837   4.236 -0.0977 -0.0371  0.3439
11434W        W29638   1.872   7.599   0.618 -0.5367 -0.1337  0.1370
11435W        W29639   0.270  11.650   3.268  0.1514  0.0183  0.2354
11436W        W29640   0.223   9.589   0.975 -0.2271 -0.6573 -0.0525
11437W        W29641   6.641  10.799   4.513 -0.0907  0.0428  0.1343
11438W        W29642  17.607   4.353   0.675  0.1019  0.0952 -0.0325
11439W        W29643   6.904   8.586  14.398  0.1894 -0.0393  0.0170
11440W        W29644   7.438   5.973  10.347 -0.3060  0.0473 -0.0394
11441W        W29645  13.165  14.247  13.841 -0.0847 -0.2488 -0.1143
11442W        W29646   6.933   8.547  10.754  0.1544 -0.0384  0.2053
11443W        W29647  13.727   3.393  10.551  0.1975 -0.2610  0.1838
11444W        W29648   8.919   4.219  15.258 -0.1369 -0.1640  0.1523
11445W        W29649  15.091  16.678   2.011  0.0671  0.0703 -0.1136
11446W        W29650  10.496   9.680   0.559 -0.0607 -0.0233 -0.1991
11447W        W29651   3.159   9.135   4.643 -0.2942 -0.0584 -0.0041
11448W        W29652  17.344  12.391   0.350 -0.1125 -0.0546  0.1459
11449W        W29653   9.494   5.064  13.987 -0.1430  0.1355 -0.3214
11450W        W29654   4.357  15.889  15.334  0.1641 -0.0799 -0.1289
11451W        W29655  12.678  15.473   2.100 -0.0177 -0.1195 -0.1256
11452W        W29656   2.032  10.846   2.088 -0.2717 -0.1484 -0.0690
11453W        W29657   9.795  10.316  10.558  0.0454 -0.0770  0.1634
11454W        W29658  15.632   8.534   0.654  0.2286 -0.0265 -0.2915
11455W        W29659  17.099   8.005  13.288 -0.1529 -0.0050 -0.0968
11456W        W29660   0.291   1.424   1.183 -0.1821 -0.1384 -0.1742
11457W        W29661  16.775   8.444  13.895 -0.1527  0.1197 -0.2142
11458W        W29662  13.367  16.599   1.022  0.0906 -0.0578 -0.1163
11459W        W29663  17.231  15.424  10.612  0.0181 -0.3832  0.1708
11460W        W29664   0.031  17.128  11.217  0.1482 -0.0842  0.0750
11461W        W29665   4.390   2.239  14.356 -0.2923  0.1068 -0.0474
11462W        W29666   4.697   8.243  10.426 -0.0457 -0.0853 -0.0288
11463W        W29667   3.319  17.066   1.741  0.1620 -0.0460 -0.1482
11464W        W29668  12.502   8.562   1.549 -0.1176  0.0845  0.1469
11465W        W29669  14.731  10.280   4.306  0.1228  0.0747  0.3507
11466W        W29670  13.076  11.191  12.083 -0.0620  0.0794  0.1961
11467W        W29671  13.612  14.833   0.705 -0.0327  0.2213 -0.0181
11468W        W29672  14.589  18.424   2.764 -0.0778 -0.2397 -0.0794
11469W        W29673   4.047   5.361   0.950  0.0114 -0.0548 -0.0595
11470W        W29674   0.889   9.985   2.472 -0.2347  0.0459 -0.0077
11471W        W29675   0.446  12.872   3.276  0.2088  0.1318 -0.2522
11472W        W29676  15.827   0.334  14.633 -0.0452  0.5503 -0.1392
11473W        W29677  15.332   8.511  12.664 -0.1981 -0.1443  0.1890
11474W        W29678  14.950  17.172   2.843  0.3105 -0.1000  0.2657
11475W        W29679   3.464  10.969   3.091  0.0788 -0.1606 -0.2745
11476W        W29680  15.462  18.316  14.482 -0.2347  0.0368 -0.1645
11477W        W29681  11.674  13.259  14.484 -0.0540 -0.0683 -0.2013
11478W        W29682   7.893  10.238   1.623  0.0958  0.2174 -0.1848
11479W        W29683  10.479   0.745   3.584  0.0118  0.0498 -0.1034
11480W        W29684  18.046   2.080  11.012  0.2929 -0.2055 -0.2940
11481W        W29685  17.237   7.318   3.160 -0.1685 -0.0169  0.1287
11482W        W29686   1.430   4.683  14.427 -0.0477 -0.0178  0.0481
11483W        W29687   3.885  10.555   2.332 -0.2441 -0.1032  0.0954
11484W        W29688  11.189   4.939   3.872  0.0532  0.4233 -0.1554
11485W        W29689   1.924  14.078   1.018  0.0343 -0.1280 -0.0134
11486W        W29690   8.693  11.538   1.664  0.0542  0.1571 -0.1192
11487W        W29691   4.174  15.732   2.195 -0.0548  0.1983 -0.0250
11488W        W29692  18.098   7.918   5.056  0.3679  0.0843  0.3104
11489W        W29693   2.743  15.002   0.392 -0.1933  0.0802  0.1823
11490W        W29694   7.985   9.665  12.715 -0.0284  0.0951 -0.0910
11491W        W29695   8.575   0.084  12.993  0.0607  0.2431 -0.2179
11492W        W29696   6.320   9.799  14.474 -0.0304  0.3996 -0.0276
11493W        W29697   4.768   6.553   4.778 -0.0265 -0.0366 -0.0095
11494W        W29698  15.938  11.879   1.629 -0.1729 -0.0727  0.0025
11495W        W29699  15.211  15.402   3.508  0.1485 -0.4067  0.1919
11496W        W29700  12.265   3.292   3.647 -0.0891 -0.1077  0.2358
11497W        W29701  17.584   4.399  12.480 -0.0573  0.2462 -0.0991
11498W        W29702   3.926   3.970   1.448  0.0296 -0.0754  0.0275
11499W        W29703   5.991   5.360   3.602  0.2387 -0.3909  0.0453
11500W        W29704   9.427   3.768  11.073 -0.0644  0.1075  0.0524
11501W        W29705  13.920   3.376  13.817  0.2108 -0.1326  0.1182
11502W        W29706   4.706  18.482   9.942  0.2929 -0.0379 -0.0011
11503W        W29707   9.010  14.888  14.826 -0.2068  0.3676 -0.0530
11504W        W29708   0.208  16.211   0.980 -0.0498 -0.2189  0.2097
11505W        W29709  14.394   3.508  11.938 -0.3585  0.2664 -0.1261
11506W        W29710   7.177   0.882   3.584 -0.0878  0.1338 -0.1792
11507W        W29711  10.290  13.106  15.293 -0.0326  0.0331  0.2708
11508W        W29712   2.287   1.543   3.313 -0.2420 -0.1995  0.0388
11509W        W29713   3.177  14.358  14.697 -0.0543 -0.1055  0.0569
11510W        W29714   2.957   3.977   3.465 -0.1974 -0.2346  0.2253
11511W        W29715   2.754  15.248   2.335  0.3493  0.0602 -0.1463
11512W        W29716  12.391  16.704   3.332 -0.0418  0.1643 -0.0328
11513W        W29717  16.768   0.351  14.540 -0.1541 -0.2186  0.2724
11514W        W29718   9.590  13.639  12.969  0.3457  0.0228 -0.1653
11515W        W29719   3.227  16.104   3.274 -0.2830  0.2782 -0.3655
11516W        W29720   6.612  14.131   3.257 -0.1596 -0.0278 -0.0094
11517W        W29721   0.727   8.427  10.769 -0.1542 -0.1783  0.4238
11518W        W29722   0.211   1.799   5.621 -0.0590  0.0232  0.0018
11519W        W29723  16.532  10.840   5.337 -0.3523  0.2100  0.1422
11520W        W29724  11.607   9.877   3.948 -0.2738 -0.0902 -0.1013
11521W        W29725   8.719   6.098  11.622 -0.2080 -0.0078 -0.1476
11522W        W29726   1.115  11.177   3.286 -0.1873 -0.0021  0.4015
11523W        W29727   9.701  15.290  12.960 -0.1330  0.0800  0.0242
11524W        W29728   7.009   9.161   3.655  0.2343 -0.5536 -0.1247
11525W        W29729   9.011   9.013   2.852  0.1518  0.0266  0.0522
11526W        W29730   8.346  11.341   1.100  0.1962  0.0713  0.1545
11527W        W29731   4.186   9.168  13.662  0.0354  0.0859 -0.2402
11528W        W29732  15.774  11.572  14.441  0.0723  0.1067  0.2174
11529W        W29733   2.884   8.446  12.424  0.0343  0.1619 -0.0686
11530W        W29734   0.841  18.073   2.693 -0.0077  0.1060  0.1733
11531W        W29735  11.972   9.691  11.898 -0.0513  0.0212  0.0548
11532W        W29736  16.116   4.921   4.528 -0.0184 -0.3044 -0.1061
11533W        W29737  16.341   8.877   1.476 -0.1568 -0.0148 -0.2085
11534W        W29738  10.346   1.295   2.339  0.4188  0.2062  0.2130
11535W        W29739   3.109  10.940  14.301 -0.0121 -0.0971  0.0695
11536W        W29740  12.701  10.068  11.047 -0.0701 -0.0128 -0.3147
11537W        W29741   0.340  18.242   1.026  0.1367 -0.1621  0.1418
11538W        W29742  11.625  17.913  11.979  0.0621 -0.1089 -0.0229
11539W        W29743  15.990   1.596   2.165  0.0285  0.0026  0.1056
11540W        W29744  11.062  15.325  13.789 -0.1240  0.2453 -0.1568
11541W        W29745   9.755  18.184   2.687  0.0325 -0.0129  0.0854
11542W        W29746   5.739  12.337  11.781  0.0849  0.1217 -0.0921
11543W        W29747  13.664   8.587  11.691 -0.0421 -0.0673  0.1632
11544W        W29748   6.962  17.525   2.632 -0.0141  0.2839  0.0001
11545W        W29749  14.958   9.606  11.311 -0.2263 -0.3361  0.1130
11546W        W29750  13.712   5.108  13.670  0.1374 -0.2926 -0.1739
11547W        W29751  15.667  17.265   0.471  0.2137 -0.0261 -0.0284
11548W        W29752   7.715   0.413   4.723  0.0173  0.1143  0.0143
11549W        W29753  18.539  13.792  11.238  0.0521 -0.2263  0.0882
11550W        W29754  12.779  13.007   3.477 -0.1616  0.3022  0.1759
11551W        W29755   9.449   1.809   0.438  0.2708  0.2150 -0.0824
11552W        W29756  13.972  15.482  13.342  0.2563  0.2504 -0.2118
11553W        W29757   1.573   8.109  12.309  0.2393  0.0086  0.2248
11554W        W29758   4.702  13.981   0.354  0.1131 -0.2590  0.0954
11555W        W29759  16.849  15.171   3.142 -0.1554  0.3920  0.2503
11556W        W29760  16.161  12.748   0.645  0.0222  0.0507  0.0195
11557W        W29761   0.653  10.639   0.481  0.1543  0.1604 -0.2031
11558W        W29762  14.444  11.314   2.863 -0.0139 -0.1779  0.1380
11559W        W29763  10.900   6.132  13.251  0.3664 -0.1921  0.1942
11560W        W29764  14.162   5.032   1.233 -0.3779 -0.1998 -0.0297
11561W        W29765   4.458  12.677   4.589 -0.0873 -0.3413 -0.2222
11562W        W29766   4.460  11.227  13.556  0.0244  0.1620  0.1161
11563W        W29767   0.969  10.022  15.355 -0.1789  0.0778 -0.0885
11564W        W29768  16.643  13.326  12.580  0.3192 -0.1988 -0.2281
11565W        W29769  13.784   4.813   1.484 -0.1079  0.0313 -0.1559
11566W        W29770   7.093   5.045   3.380  0.2371  0.0027 -0.0940
11567W        W29771   0.070  17.875  14.402 -0.0313  0.1894  0.0585
11568W        W29772  14.049   7.044   2.064 -0.1193  0.2700  0.5208
11569W        W29773   8.477  16.924   1.688 -0.2987  0.2388 -0.1684
11570W        W29774  12.249  11.440  12.625 -0.0004  0.0590  0.2308
11571W        W29775   4.388   0.289  12.538  0.0888  0.1381 -0.0938
11572W        W29776   6.442  10.259   3.746 -0.1129  0.3949 -0.1762
11573W        W29777   7.305  14.487  13.892 -0.0146  0.0613 -0.2667
11574W        W29778   9.899  11.250  10.637  0.0341  0.0724 -0.2622
11575W        W29779   5.208   6.275  10.937 -0.0706 -0.1501 -0.1114
11576W        W29780  16.235   3.858  15.257  0.0366  0.0483  0.0238
11577W        W29781  10.203   5.057   0.734  0.1402 -0.2059 -0.0877
11578W        W29782   4.621  14.870  11.923 -0.1236 -0.0974 -0.1500
11579W        W29783   8.535  11.894   4.195  0.1537 -0.3026 -0.3211
11580W        W29784   3.075   0.702  13.192  0.0866 -0.1592 -0.4008
11581W        W29785  12.530  10.751  14.262  0.5223  0.1473 -0.0667
11582W        W29786  18.125   5.542  10.105 -0.3016  0.2039  0.2236
11583W        W29787   2.762   9.140   0.523  0.2798  0.1765 -0.0643
11584W        W29788  11.963   0.459  11.619  0.0498 -0.1513 -0.1060
11585W        W29789  11.538  11.403  15.192 -0.0731  0.0937  0.0195
11586W        W29790   6.138  11.454  11.373 -0.4036  0.0963  0.0769
11587W        W29791  16.869   8.057   3.859  0.4955  0.0949 -0.3179
11588W        W29792   5.647   6.719   2.361 -0.1008 -0.1140 -0.0304
11589W        W29793   8.835  13.218   2.473  0.1706 -0.0707 -0.1245
11590W        W29794   5.284  16.512   1.546 -0.3406 -0.3006  0.3782
11591W        W29795  10.220  14.337  10.468  0.4223 -0.2030 -0.2148
11592W        W29796   7.985  10.478   2.171  0.2214  0.1823  0.3943
11593W        W29797   4.669   5.818   3.729 -0.1090  0.3492 -0.3602
11594W        W29798  10.294   1.374  11.169  0.2056  0.0673 -0.0463
11595W        W29799   5.431   6.048   4.242 -0.0457 -0.1103 -0.0751
11596W        W29800   1.629  15.604  15.346 -0.3849  0.1482  0.0824
11597W        W29801   2.774  16.532   2.039  0.0877  0.4904  0.1400
11598W        W29802  11.510  13.403   2.879 -0.0780  0.1619  0.0923
11599W        W29803   7.836  12.318   4.396 -0.1457 -0.2403  0.4727
11600W        W29804  11.955  12.920   4.159 -0.2767 -0.0956 -0.1969
11601W        W29805  13.965  16.613   2.997  0.0726  0.0446 -0.1649
11602W        W29806  15.972  11.188  14.802  0.0776  0.1509  0.0542
11603W        W29807  15.343  10.219  11.472  0.1008  0.0857 -0.0427
11604W        W29808  13.258   9.178  14.938  0.1908 -0.0336  0.0020
11605W        W29809   1.381   1.662   1.311  0.0775 -0.0655  0.2992
11606W        W29810  12.465   3.677   0.904  0.0815  0.0472  0.0904
11607W        W29811  11.087  12.241  13.227 -0.3152 -0.2769  0.0057
11608W        W29812   8.906  16.500   2.051  0.0304  0.1261  0.2193
11609W        W29813  11.195   0.160  13.356 -0.3814  0.0838 -0.1027
11610W        W29814  18.431   6.596   2.167  0.0071  0.1038  0.0759
11611W        W29815   7.211  16.156   3.735  0.0174  0.1597 -0.4394
11612W        W29816   8.083   9.565   5.369  0.1505  0.0649 -0.1519
11613W        W29817  10.113  11.996   4.565  0.2040  0.1373  0.1771
11614W        W29818   5.621   5.315  13.622 -0.1758 -0.1776  0.0850
11615W        W29819  14.723   1.784  12.845  0.0499  0.0626 -0.4540
11616W        W29820  16.305  10.032   3.407  0.3718  0.1636 -0.1120
11617W        W29821  10.141   6.163   3.555  0.0092 -0.0178 -0.0900
11618W        W29822  10.602   9.013   4.355 -0.3211  0.2830 -0.0443
11619W        W29823   5.456   0.626   1.239 -0.0997  0.0336  0.0869
11620W        W29824  11.421   0.453  10.904 -0.1173  0.2553  0.1646
11621W        W29825   7.022   0.306  11.919 -0.1293 -0.0580 -0.0411
11622W        W29826  16.542  18.513  12.243  0.1703  0.2294  0.1622
11623W        W29827   7.815  13.251  10.744 -0.2795  0.0436 -0.0048
11624W        W29828   2.394  14.437   2.606 -0.1445 -0.1684 -0.2479
11625W        W29829   3.916   8.431   3.104  0.1083  0.1463  0.2192
11626W        W29830   6.792  16.732  14.001  0.2641  0.3241  0.0382
11627W        W29831   3.562   6.324  12.218 -0.2188  0.0653  0.0192
11628W        W29832  17.900   8.127  14.045  0.0757  0.0009  0.0660
11629W        W29833  12.738   1.036  11.726  0.2942  0.1193 -0.1384
11630W        W29834   2.110   6.943   3.192  0.1057  0.1892  0.0234
11631W        W29835   2.576   3.554   5.155 -0.1595  0.1771 -0.3015
11632W        W29836   7.260  17.979   3.106 -0.3913  0.0166 -0.0871
11633W        W29837   2.702  12.196  11.229 -0.4609  0.0215 -0.2301
11634W        W29838  10.268  11.162   2.193 -0.2802  0.1394  0.1831
11635W        W29839  15.464   0.314  11.607 -0.3005 -0.0375 -0.3113
11636W        W29840   3.103   7.244  11.996  0.2565 -0.0866  0.0514
11637W        W29841  11.820   7.609  11.495 -0.1417  0.0872  0.0378
11638W        W29842  14.430   4.258  10.073  0.1214  0.1140  0.1669
11639W        W29843   6.528   1.183   4.958  0.2773 -0.2149 -0.0800
11640W        W29844   7.659  17.557   0.423  0.1545 -0.0137 -0.1178
11641W        W29845   5.612  16.575  11.768  0.2418  0.0371 -0.2846
11642W        W29846   7.749  17.619   3.944 -0.1323 -0.1863  0.1959
11643W        W29847   2.739   4.129   0.764  0.1698 -0.2349 -0.1326
11644W        W29848   2.988   3.997   2.975 -0.2409  0.5248 -0.0884
11645W        W29849  12.851   5.082   1.874 -0.1434 -0.1629  0.1763
11646W        W29850   8.003  16.098   4.235  0.1203 -0.0885  0.1248
11647W        W29851  16.272   0.908  11.492  0.1652 -0.0171  0.1133
11648W        W29852  17.345  15.373   5.059 -0.2086  0.0298 -0.0125
11649W        W29853   6.204   2.186  11.915  0.3434 -0.0895 -0.1058
11650W        W29854  14.122   4.713   3.005  0.0269  0.2683  0.1889
11651W        W29855  18.248   5.976   2.851 -0.1504 -0.1067 -0.0525
11652W        W29856   4.948   5.629   1.580  0.0756  0.0109 -0.2731
11653W        W29857   8.141  10.519  14.566 -0.3293 -0.1204  0.0892
11654W        W29858   1.408  11.116   2.871  0.1030  0.5192 -0.2009
11655W        W29859   2.411   3.596  12.408 -0.3233  0.1644 -0.1954
11656W        W29860   5.319  11.130   3.928 -0.1501  0.2785  0.0865
11657W        W29861  15.175   3.011   0.012  0.3200 -0.2374  0.0871
11658W        W29862  16.710   9.350   1.501 -0.0530 -0.3758 -0.0631
11659W        W29863   4.942   1.003  12.665 -0.2689  0.1523 -0.0082
11660W        W29864  10.852  10.085   2.605  0.2335 -0.2144  0.1396
11661W        W29865  17.971   6.479   0.984 -0.2543  0.1725 -0.2999
11662W        W29866   0.744  12.331  11.462  0.2118 -0.0161  0.0861
11663W        W29867  13.770   8.722  10.225 -0.0712  0.0494  0.3240
11664W        W29868   6.063  11.961  11.249  0.0932  0.1209  0.0467
11665W        W29869   3.122  14.102   2.594 -0.2154 -0.0783 -0.0073
11666W        W29870  10.012  16.020  11.123 -0.2438  0.0627 -0.0150
11667W        W29871  12.865  14.542   4.308 -0.1605  0.0584  0.1413
11668W        W29872   6.880  18.308   3.053  0.0830 -0.1153  0.0745
11669W        W29873  17.201   7.802   3.049 -0.0385 -0.0919 -0.1325
11670W        W29874  11.164   1.544   0.135 -0.2889  0.0796 -0.0137
11671W        W29875  17.579   4.946  11.061  0.1767 -0.0966  0.0059
11672W        W29876   9.399   6.722   1.254 -0.2736  0.0541 -0.0885
11673W        W29877   3.353   1.751   0.697 -0.1056  0.1127  0.2201
11674W        W29878   5.806  15.362   5.540 -0.0439  0.1039  0.4432
11675W        W29879  16.618  12.385  11.907 -0.1500 -0.2593  0.3938
11676W        W29880  16.374   1.381  10.321  0.0385  0.0743 -0.1717
11677W        W29881  13.878  16.247  11.005 -0.0847  0.0005  0.0197
11678W        W29882   0.171  18.413  14.447 -0.3170  0.0126 -0.3852
11679W        W29883  10.575   1.706  14.938  0.2170  0.0451  0.0548
11680W        W29884   1.619  11.944  14.507  0.0195  0.3034  0.0418
11681W        W29885  17.528  16.242  12.316 -0.3885  0.0094 -0.2223
11682W        W29886   9.228  11.857  12.408 -0.0569 -0.1202  0.0535
11683W        W29887   4.565   3.086   3.275  0.0436  0.1572 -0.0746
11684W        W29888  13.697  11.170  12.790  0.0321 -0.0953  0.0618
11685W        W29889   8.609  12.877   4.342  0.2930  0.1911 -0.4069
11686W        W29890  12.972  10.276  13.501  0.1725 -0.0745  0.0552
11687W        W29891  11.787   8.639  12.936  0.0037  0.0416 -0.0161
11688W        W29892   7.307   5.135  13.281 -0.2520 -0.1109 -0.2370
11689W        W29893  17.457   7.687   3.546  0.0700  0.1130 -0.2721
11690W        W29894   2.209  13.709   4.273 -0.0406  0.0991  0.1373
11691W        W29895   2.140  16.088   4.158 -0.0396  0.0888 -0.0410
11692W        W29896  10.925   7.663  15.386 -0.1992 -0.3211  0.2426
11693W        W29897  16.058   2.917  15.110 -0.1373  0.0483  0.0010
11694W        W29898  18.210   3.548   2.434  0.1847 -0.1061 -0.0703
11695W        W29899  12.691   1.563   3.340 -0.0696  0.2465  0.1863
11696W        W29900  14.034  15.101   2.183 -0.2507 -0.2146  0.2880
11697W        W29901  12.408   1.066  15.233 -0.0462  0.0232 -0.2526
11698W        W29902  13.801   7.057  10.969  0.0220  0.2100 -0.0824
11699W        W29903  16.173  12.475  14.329 -0.2963 -0.0058 -0.0056
11700W        W29904   0.947   9.981   1.762 -0.1243  0.0703  0.1214
11701W        W29905  11.735   8.549   0.418  0.1855  0.2491 -0.0857
11702W        W29906  12.503   3.462  14.966  0.0057 -0.2604  0.1421
11703W        W29907  12.651   5.767   0.547 -0.0318  0.1320  0.1133
11704W        W29908   2.757   8.096   4.903  0.0468  0.0085 -0.1758
11705W        W29909   7.845  10.216   2.640 -0.0292 -0.1341  0.0195
11706W        W29910   7.616  18.179   2.732 -0.0477  0.1162 -0.0943
11707W        W29911   6.027   8.114  14.211 -0.2054 -0.1203 -0.0712
11708W        W29912  15.524   6.805   1.747  0.0741 -0.0347 -0.1430
11709W        W29913  18.407  11.295   3.523 -0.1651  0.1211  0.0652
11710W        W29914   7.180   8.125  10.635 -0.1088  0.0405 -0.2336
11711W        W29915   1.974  14.172  14.952 -0.4585 -0.0657  0.3711
11712W        W29916   7.844  16.283   4.707 -0.2559 -0.0746  0.2737
11713W        W29917  13.766  12.865  15.007 -0.3712  0.0392 -0.0033
11714W        W29918  13.803   8.104  14.568 -0.1473 -0.0200  0.1703
11715W        W29919   0.381   5.287  13.608 -0.0518 -0.4165  0.1691
11716W        W29920  18.456   7.206   1.518  0.1101  0.0677 -0.0114
11717W        W29921  17.248  10.859  11.997  0.0729  0.0865 -0.0132
11718W        W29922  13.830   2.746  15.445  0.2950  0.1040 -0.2725
11719W        W29923   3.348   4.176   2.031 -0.1524 -0.3046  0.3811
11720W        W29924   1.372  12.512  15.401  0.0958 -0.0187  0.3853
11721W        W29925   3.654   7.124   1.415  0.1532  0.1530  0.2598
11722W        W29926   9.997  14.460  10.885  0.0534 -0.1585  0.0135
11723W        W29927   8.030   6.153  13.588  0.4245 -0.0643  0.1078
11724W        W29928  16.813  15.596  12.296 -0.2025  0.2287  0.2948
11725W        W29929  12.388   3.868   4.348 -0.0030 -0.1287 -0.0988
11726W        W29930   6.781   0.788   4.379 -0.1265  0.2370 -0.3714
11727W        W29931  12.723  10.590   4.531  0.0493  0.0930 -0.0128
11728W        W29932   7.883  12.958   1.036  0.2137 -0.2169  0.0135
11729W        W29933   3.605   0.182  13.619  0.2305  0.0296 -0.1562
11730W        W29934  10.293   0.202  13.099 -0.0859 -0.1456 -0.1961
11731W        W29935   7.263  10.231  13.043  0.2751  0.1581  0.0807
11732W        W29936   5.300   6.154   0.188 -0.1596  0.0934  0.3045
11733W        W29937   3.802   9.649  12.559 -0.2338 -0.0324 -0.0559
11734W        W29938  10.388   1.131  12.173  0.3107  0.1517 -0.3391
11735W        W29939  13.153   8.113   2.103 -0.2728  0.2659  0.0828
11736W        W29940   6.826  16.139   4.603 -0.1236  0.2346 -0.3600
11737W        W29941   0.306  11.695   1.837 -0.0169  0.1765 -0.2280
11738W        W29942   8.320   6.427   5.205 -0.0585  0.2361 -0.0763
11739W        W29943  10.832   1.182   0.305  0.2732 -0.4044 -0.0597
11740W        W29944   9.920  11.960   0.552 -0.2428 -0.1773 -0.3500
11741W        W29945  15.486  16.940  13.996 -0.0112  0.2664 -0.1070
11742W        W29946   9.790   4.087  12.758  0.2838  0.4276  0.0765
11743W        W29947  13.560  18.445   4.436 -0.0842  0.0180 -0.0760
11744W        W29948   1.939   0.674   2.700 -0.2759  0.0020  0.1946
11745W        W29949   5.401   2.718  11.886 -0.3341  0.0991 -0.1633
11746W        W29950  13.063   4.828   4.008  0.0762 -0.0890  0.1137
11747W        W29951  11.743   8.613   1.449  0.1555 -0.0456  0.0442
11748W        W29952  14.796  10.441  15.235  0.0568  0.0753  0.0299
11749W        W29953  18.138  11.838   0.534 -0.1734 -0.1294 -0.2990
11750W        W29954   3.351  13.557  12.325  0.2920 -0.0159  0.0205
11751W        W29955   8.316   1.072   2.219  0.4177  0.4150  0.1358
11752W        W29956  14.111   4.835  13.807 -0.1672  0.0678  0.2949
11753W        W29957   7.028   3.759   0.262 -0.1281 -0.0519  0.2151
11754W        W29958  15.946  18.119   0.095  0.0002  0.1568  0.1147
11755W        W29959  15.083  14.684   3.211 -0.3569 -0.0712 -0.4094
11756W        W29960  13.593  12.061  13.094  0.1991 -0.0974 -0.2032
11757W        W29961   1.455  11.333   0.983  0.0145  0.2720 -0.0771
11758W        W29962  12.846  18.510  11.522 -0.0063  0.3088  0.0680
11759W        W29963  16.123   5.635   2.680  0.0434  0.5018  0.4110
11760W        W29964  14.349   3.698  14.692 -0.1796 -0.0345 -0.0199
11761W        W29965  17.959   3.659  11.728  0.0460 -0.0982 -0.3568
11762W        W29966   7.417  14.634  12.743 -0.1678 -0.2797 -0.3161
11763W        W29967   2.903   8.835   2.070 -0.1325 -0.1551 -0.0108
11764W        W29968   7.416   3.988  12.154 -0.2868 -0.0329  0.2563
11765W        W29969   0.664  10.276   4.128 -0.3283  0.1410  0.3372
11766W        W29970   3.997  14.655   3.096  0.0881  0.0083  0.0970
11767W        W29971   4.615  17.831   4.669 -0.1804 -0.0415  0.0621
11768W        W29972   9.433   1.206   2.199  0.0314  0.4045  0.2447
11769W        W29973  13.211  14.608  10.933  0.3400  0.0369 -0.0777
11770W        W29974   0.244   4.672  11.534 -0.1591  0.0237  0.0076
11771W        W29975  16.746   5.026   3.690  0.0163  0.1650 -0.4345
11772W        W29976  11.318   0.675  13.233 -0.0337  0.1646  0.4415
11773W        W29977   1.020  15.220   4.157  0.1839  0.0325  0.2468
11774W        W29978  18.115  14.558   1.001  0.1696  0.3614  0.2364
11775W        W29979   5.225   0.560  12.879  0.0595 -0.0178 -0.0344
11776W        W29980   6.154  12.643  14.985  0.1986  0.0744  0.0278
11777W        W29981  13.290  14.006   2.914  0.1210 -0.1349 -0.0621
11778W        W29982   9.840   8.032  13.355 -0.0877 -0.1548  0.1511
11779W        W29983   4.960   8.578  13.516 -0.0557  0.0762 -0.1302
11780W        W29984   8.056  15.161  12.264  0.2379  0.1725 -0.0082
11781W        W29985  18.398   8.574   3.066 -0.2208 -0.1236 -0.0813
11782W        W29986  12.615  11.019  11.183 -0.1764 -0.0397  0.1702
11783W        W29987   8.924  14.474   0.396 -0.0282 -0.0373  0.1427
11784W        W29988  16.158  13.006  14.420 -0.1375 -0.0280 -0.1074
11785W        W29989  15.042  14.322  14.130 -0.0814  0.1077  0.0684
11786W        W29990  10.514  13.414   3.627  0.1134 -0.1295 -0.2798
11787W        W29991   3.048   3.989  15.424 -0.1121 -0.2057  0.2314
11788W        W29992   6.611   1.010   0.088  0.1496 -0.2182  0.0088
11789W        W29993   4.777  10.927  13.744 -0.0754  0.0611 -0.1883
11790W        W29994  13.084   1.621  14.593  0.2177  0.3348 -0.0428
11791W        W29995  16.315   1.341  10.937 -0.2407  0.1581 -0.1586
11792W        W29996   4.256   5.567   2.276 -0.0437 -0.1471  0.4466
11793W        W29997   4.593   5.886   2.518  0.1084 -0.2780  0.3075
11794W        W29998   5.862   8.522  15.269  0.3440 -0.2047 -0.2440
11795W        W29999   2.402   6.249  13.039  0.2523 -0.0264 -0.3522
11796W        W30000  10.937  16.938   1.822 -0.0062 -0.1176  0.0493
11797W        W30001  18.027   7.955  11.111 -0.0436  0.2004  0.0002
11798W        W30002   3.295   9.089  13.626 -0.0175 -0.1890  0.0515
11799W        W30003   5.106  12.777  13.203  0.2546 -0.0358  0.0842
11800W        W30004  11.359  13.073   0.780 -0.1713 -0.0613 -0.0074
11801W        W30005   8.795  10.967   3.477 -0.0105 -0.1579  0.3370
11802W        W30006   2.029   1.088   4.249  0.1215 -0.0916  0.1650
11803W        W30007   6.187   1.924   4.663 -0.2717  0.0943 -0.4703
11804W        W30008  14.738   0.702   2.167  0.0621  0.0319 -0.1775
11805W        W30009  17.150  17.571   2.332  0.1353  0.0894  0.1236
11806W        W30010  16.006   6.740  15.043 -0.0297 -0.2845  0.2445
11807W        W30011  10.293  17.676   4.361 -0.0781  0.0891 -0.0417
11808W        W30012  16.126  13.966  13.611 -0.1108 -0.0111 -0.2071
11809W        W30013   3.878   5.737   9.840 -0.1458 -0.0132 -0.0549
11810W        W30014  11.799   8.434  14.846 -0.0342  0.0482 -0.1696
11811W        W30015  14.385   9.040   4.027  0.6656  0.0649  0.1203
11812W        W30016   7.980  12.008  12.572 -0.2773  0.2839 -0.2735
11813W        W30017   7.648  16.103  11.183  0.3647  0.0650  0.0148
11814W        W30018  10.063   0.879  13.780  0.0298 -0.0234  0.1310
11815W        W30019  13.996  16.712  13.696  0.1305 -0.0569  0.2666
11816W        W30020  15.262   9.671   0.404 -0.1191  0.0525 -0.2644
11817W        W30021   0.891   6.374   0.045 -0.0016 -0.1344 -0.1686
11818W        W30022  17.557  14.883  12.698 -0.2484 -0.0293 -0.4017
11819W        W30023   5.441   3.801   1.546  0.1251  0.1334  0.0321
11820W        W30024   4.680   5.908   4.402  0.1968 -0.2703 -0.1281
11821W        W30025  12.026  13.969  13.673 -0.0002  0.1182  0.2480
11822W        W30026   6.537  15.004  13.170  0.0813 -0.2004 -0.3405
11823W        W30027   7.280   6.800   2.572  0.0737  0.1074 -0.0306
11824W        W30028   1.999  16.882   1.023 -0.0871  0.0187 -0.2521
11825W        W30029   4.766  11.004   3.691 -0.0210  0.1939 -0.0181
11826W        W30030   8.352  10.906   4.668 -0.3015 -0.0328 -0.1254
11827W        W30031  14.116   3.282  14.296 -0.2245  0.1000 -0.0293
11828W        W30032   6.717   2.072  13.849  0.2475 -0.0823  0.2019
11829W        W30033   3.698  18.573   2.311 -0.2416  0.1160 -0.1009
11830W        W30034   4.321   9.946  12.141  0.1143 -0.0401  0.3523
11831W        W30035   4.092  11.147  11.576  0.0362  0.5818 -0.0932
11832W        W30036   0.060   3.339  13.880  0.2029 -0.2600  0.1062
11833W        W30037  11.709   2.471   1.622  0.3457 -0.4823  0.2295
11834W        W30038  12.650   1.709  11.153 -0.2209 -0.1875  0.1819
11835W        W30039   2.792  15.411  11.272  0.0462  0.1357  0.0763
11836W        W30040   5.153  18.006  11.599  0.0315  0.1444 -0.2074
11837W        W30041  14.413   5.112  14.146 -0.1122 -0.0462  0.1049
11838W        W30042  10.220   6.808  13.095 -0.2355 -0.2137 -0.1475
11839W        W30043   1.850  11.655  11.945  0.0128  0.0197 -0.0660
11840W        W30044  10.478   7.736   0.488  0.0323  0.0103 -0.1631
11841W        W30045   1.015  18.168   0.534 -0.0635 -0.1075 -0.0940
11842W        W30046  11.742   5.163  12.211  0.0940  0.0215  0.1128
11843W        W30047   6.289  10.883   0.900  0.2245 -0.0261  0.0314
11844W        W30048  12.029   9.685   4.204  0.0125  0.0224  0.1641
11845W        W30049   5.620  10.093  14.152 -0.0200 -0.1362 -0.0261
11846W        W30050  16.322  12.645  13.854  0.4236  0.2380 -0.2250
11847W        W30051   2.810  17.002   2.189 -0.3835  0.0002 -0.3181
11848W        W30052   9.247  12.325  14.998  0.2196 -0.0517  0.2943
11849W        W30053   6.716  18.004   4.288 -0.0448  0.2689  0.0092
11850W        W30054   6.306   6.600   2.065 -0.0483  0.2361 -0.1959
11851W        W30055  18.100   7.344   0.097  0.0371  0.1440  0.1068
11852W        W30056   7.771  10.950   2.582 -0.1060 -0.1287 -0.1891
11853W        W30057  17.790  14.108   1.768 -0.1618 -0.4275  0.3164
11854W        W30058  17.369  15.786  12.553  0.1017 -0.0645 -0.3137
11855W        W30059   0.660   1.967   3.459  0.2468 -0.1324  0.1834
11856W        W30060  17.331   1.097   3.286  0.0566  0.1725 -0.2865
11857W        W30061  14.979   7.957   4.566  0.2711 -0.2267 -0.2258
11858W        W30062  13.287   8.629   2.021 -0.0671 -0.0337 -0.2890
11859W        W30063   1.382  13.262   2.058  0.0506 -0.1139 -0.6367
11860W        W30064  15.286  12.421   2.091  0.1867 -0.2712  0.3749
11861W        W30065  13.391  12.337  13.466  0.1050  0.2773  0.2858
11862W        W30066   6.567  13.679  13.164  0.1635  0.2398 -0.0039
11863W        W30067   9.645   7.452  13.124 -0.4125 -0.0092 -0.1387
11864W        W30068  10.166   1.970  11.605 -0.0560 -0.0754  0.2012
11865W        W30069  13.257  18.457  12.756 -0.2546 -0.1814  0.0522
11866W        W30070   7.465  16.907   4.166  0.0636 -0.0815 -0.0682
11867W        W30071  14.431  15.949   3.669  0.0159  0.2652 -0.3744
11868W        W30072  11.131   8.633   4.592 -0.2388 -0.2992 -0.0509
11869W        W30073  12.495   9.948   4.010 -0.0387 -0.1645 -0.4020
11870W        W30074   8.367   8.798  14.517  0.2659  0.2353  0.0430
11871W        W30075   3.165  13.608   4.367  0.0496 -0.0949 -0.0165
11872W        W30076   8.132  14.369   1.162 -0.1977 -0.3247  0.0282
11873W        W30077  14.082  13.349   0.149  0.2190 -0.0666  0.1353
11874W        W30078   1.412  15.962  14.046  0.1153 -0.3083  0.0707
11875W        W30079   7.986   7.067  14.520 -0.1393  0.0228  0.0330
11876W        W30080   6.877  12.672  10.592  0.0081 -0.4138  0.1983
11877W        W30081   7.223   8.416  13.495  0.0555 -0.0993  0.3501
11878W        W30082   2.063   0.052  13.374  0.2414  0.0949  0.1267
11879W        W30083   7.273  17.306  13.096 -0.0482 -0.2793  0.0874
11880W        W30084   1.676  10.797   0.146  0.0118  0.0367  0.1267
11881W        W30085   8.649   7.859   2.923  0.1968 -0.1101 -0.2053
11882W        W30086   2.784   6.896   1.570 -0.0277  0.0610  0.3144
11883W        W30087   4.071   3.790  11.072  0.0456 -0.1449 -0.0915
11884W        W30088   6.400   0.771  11.485 -0.0565 -0.3447 -0.0173
11885W        W30089  12.673  18.291   0.123 -0.1124  0.2915 -0.0357
11886W        W30090   2.146   0.684   0.829  0.1987 -0.1146  0.4556
11887W        W30091  18.481   2.877  12.486  0.2537 -0.0302 -0.0161
11888W        W30092   5.783   3.804  12.751 -0.4489 -0.1732 -0.1118
11889W        W30093  17.850   1.293  13.585 -0.1046  0.0830 -0.1846
11890W        W30094  13.116   5.061   0.274  0.1129 -0.1133  0.0752
11891W        W30095  14.190   4.702   1.685 -0.0818 -0.1271  0.0509
11892W        W30096   0.488  17.369   3.899  0.1315 -0.0696  0.1096
11893W        W30097   5.824  15.004   1.388 -0.1424  0.1098 -0.0503
11894W        W30098  11.419  17.887   3.239 -0.0102  0.0204 -0.0036
11895W        W30099  12.747   0.768  12.431  0.1045 -0.1185 -0.0937
11896W        W30100   6.997  14.804  15.396 -0.2328  0.2228  0.0626
11897W        W30101  15.998  18.217   2.588  0.0319 -0.3080  0.0683
11898W        W30102   7.776  12.095   4.796  0.0331  0.1345 -0.0612
11899W        W30103  11.350  17.106   2.477 -0.1287  0.2434 -0.2553
11900W        W30104   2.544  13.128  14.714 -0.0884 -0.4246 -0.1852
11901W        W30105   1.933   2.371   4.292  0.3105 -0.0794  0.0527
11902W        W30106  15.492   3.870  14.951 -0.0359  0.1534 -0.2601
11903W        W30107   4.979   8.531   0.942 -0.1866  0.1773  0.2268
11904W        W30108   6.044   1.093   4.748  0.2351 -0.2937 -0.2335
11905W        W30109   3.671   2.009  14.268  0.1232 -0.0710  0.0049
11906W        W30110  10.364   5.942   3.124  0.0409  0.1342 -0.0018
11907W        W30111   2.332   6.000  15.410  0.0596 -0.2492  0.1660
11908W        W30112   9.536  10.503  12.611  0.3144 -0.3055  0.1207
11909W        W30113   0.598   2.277  12.652  0.2526  0.1434 -0.1030
11910W        W30114  16.453  10.500   3.204  0.0021  0.2858  0.1868
11911W        W30115  10.542  10.510  13.141 -0.0238 -0.0392 -0.2077
11912W        W30116   5.794   1.011   1.275 -0.1379 -0.3947  0.0608
11913W        W30117  13.672  10.878   4.228  0.0656 -0.1533 -0.0645
11914W        W30118  17.194   4.303   2.014 -0.2679  0.3224  0.1831
11915W        W30119   8.306  15.217   5.114  0.1486 -0.0036  0.1441
11916W        W30120   3.543   8.364  12.258  0.1190 -0.0604  0.2524
11917W        W30121   4.266   9.583   3.953  0.0437 -0.5543 -0.2076
11918W        W30122   2.272  13.983  13.711  0.4835  0.2453  0.0259
11919W        W30123  12.965   6.619   1.815  0.3197 -0.2367  0.0553
11920W        W30124   6.301   4.223  14.411 -0.1979  0.0171 -0.0972
11921W        W30125  15.112   0.874  13.831 -0.4697 -0.1477 -0.0650
11922W        W30126  15.633  12.640   3.707 -0.1595  0.2378  0.1123
11923W        W30127  12.259  16.150  15.407  0.0099 -0.0930 -0.0003
11924W        W30128   1.258  11.772  12.781  0.0865 -0.0219  0.0942
11925W        W30129   5.653   9.378  12.884  0.0948 -0.1722 -0.2780
11926W        W30130   2.381  14.405  14.016  0.1410  0.2395 -0.2968
11927W        W30131   3.937  17.062   2.450  0.0433  0.0676 -0.0240
11928W        W30132   6.250  15.522  15.211 -0.1005 -0.0647 -0.0543
11929W        W30133   5.189   1.332   4.707  0.0216 -0.1932  0.3129
11930W        W30134   6.079  16.759   0.732  0.3713 -0.1741 -0.1702
11931W        W30135  18.020  10.650   0.379  0.3862  0.5196 -0.3994
11932W        W30136  18.327   1.675  13.352 -0.0506 -0.0150  0.1601
11933W        W30137  13.891  14.351  12.710 -0.1259  0.0040  0.2856
11934W        W30138  18.234  11.763  12.786 -0.0702 -0.0091  0.5308
11935W        W30139  14.190  16.326   4.826  0.0239  0.0675 -0.0178
11936W        W30140  11.722  18.013  11.482 -0.1529 -0.1835 -0.0657
11937W        W30141   6.880   3.775   3.714 -0.3371 -0.0125  0.0037
11938W        W30142   4.340  17.441   4.842 -0.5158 -0.1207  0.1397
11939W        W30143   8.287  17.683  12.033  0.2725 -0.4031  0.0893
11940W        W30144   3.436   9.458  15.167 -0.0311 -0.1183 -0.1005
11941W        W30145  12.437   9.280  15.051 -0.1553 -0.0735  0.2826
11942W        W30146   2.093  13.634  11.351 -0.1185 -0.0973 -0.0484
11943W        W30147  15.633   6.644   4.258 -0.1944  0.1268 -0.1207
11944W        W30148   0.029  18.560   0.213 -0.0288  0.0756 -0.0823
11945W        W30149   2.852   1.258   1.323  0.1174  0.1979 -0.1374
11946W        W30150  13.497  13.720   2.423  0.0053  0.3644  0.0399
11947W        W30151   6.054   8.557   3.127  0.1431 -0.0245  0.0918
11948W        W30152  10.485   7.402  11.574  0.1063  0.4349 -0.1560
11949W        W30153   5.661   1.396   4.554  0.0734  0.2784  0.4471
11950W        W30154   2.337  13.338  12.810  0.0998  0.2945 -0.0036
11951W        W30155   7.662  15.530  11.443  0.0607  0.2583  0.1865
11952W        W30156   5.189  18.505   1.648  0.2485 -0.0684  0.2875
11953W        W30157   3.422   4.345   0.034 -0.1545 -0.5919  0.2025
11954W        W30158   5.521  16.885  12.949  0.1473  0.0901 -0.3319
11955W        W30159   7.909  17.270   2.215 -0.1378 -0.2563  0.2311
11956W        W30160   0.723  14.115   0.957 -0.0318 -0.0215  0.2348
11957W        W30161  12.306   7.606  12.538 -0.3145  0.0531  0.2558
11958W        W30162   9.226  18.564   1.819 -0.1714  0.0790  0.3416
11959W        W30163   0.929   6.404  13.002  0.0839 -0.3606 -0.1697
11960W        W30164  18.141   9.625  15.097  0.0309  0.1289 -0.0998
11961W        W30165   7.884   9.353  10.936 -0.0712  0.1304  0.1027
11962W        W30166   6.207   0.458   0.749  0.2611 -0.1350  0.1458
11963W        W30167   7.649   1.925  12.827  0.1192 -0.1113 -0.2746
11964W        W30168  17.168   2.209  12.112  0.0640  0.1556  0.0439
11965W        W30169  16.512   6.490   0.790 -0.1174 -0.0233  0.2762
11966W        W30170   9.051   0.520   4.410 -0.1750  0.0629  0.0128
11967W        W30171   2.024   5.923   1.819 -0.1748 -0.1718  0.1065
11968W        W30172   9.254   6.180   2.442  0.1411 -0.1328  0.2329
11969W        W30173  16.901   6.458  11.799 -0.1574  0.0293 -0.0430
11970W        W30174  16.030  12.710   1.136  0.2042  0.1276 -0.2531
11971W        W30175  12.271   5.058   4.875 -0.1454 -0.2456  0.3968
11972W        W30176   8.220   6.952  10.754 -0.0188 -0.0750 -0.1353
11973W        W30177  18.496  18.444   3.375 -0.3164 -0.1774 -0.1458
11974W        W30178  12.580   2.661   0.593  0.2131  0.4191 -0.0558
11975W        W30179   9.615  14.168  13.000 -0.0950 -0.0300 -0.1778
11976W        W30180   0.122   9.081   1.003  0.1572  0.1758 -0.1936
11977W        W30181   5.788  12.504   2.222  0.1681  0.0732 -0.0949
11978W        W30182  13.952   8.498  12.221 -0.0411  0.0946 -0.0928
11979W        W30183  16.769  11.673  13.871  0.2169  0.2751 -0.1614
11980W        W30184  12.610   1.125  12.800  0.0602  0.1686  0.4046
11981W        W30185  10.148   9.111  12.300 -0.0462 -0.3426 -0.2206
11982W        W30186   7.409  13.430   4.680 -0.2001  0.1722  0.0125
11983W        W30187   4.233   9.991  12.617 -0.0138 -0.3329 -0.1122
11984W        W30188   5.627   8.831   5.282 -0.1473  0.2601  0.0001
11985W        W30189   1.205   5.968  13.905  0.0538 -0.1366  0.0284
11986W        W30190  10.183   0.752  14.807  0.0523  0.0608 -0.2260
11987W        W30191  15.788  14.761  15.298 -0.2360 -0.0640  0.2589
11988W        W30192   2.545  12.547  13.421  0.0741  0.1450 -0.0056
11989W        W30193   8.720  17.559  14.854 -0.1029 -0.0131  0.1337
11990W        W30194   5.217  18.539  12.313  0.1930  0.0626  0.0367
11991W        W30195  10.390  10.342   1.349  0.0702 -0.1191 -0.0984
11992W        W30196   7.698   4.045  13.658 -0.0058 -0.0231 -0.1735
11993W        W30197   5.958   9.784   1.140  0.2256  0.1964  0.2556
11994W        W30198   2.434  13.856  14.310  0.0226 -0.0505 -0.1962
11995W        W30199   9.154   3.866   4.167 -0.1182  0.2100  0.0289
11996W        W30200  11.410   1.181  12.037 -0.1975  0.1728  0.1254
11997W        W30201   5.476  13.577  13.822  0.0837  0.1340  0.0597
11998W        W30202  18.347   1.157  13.038  0.0682 -0.2419  0.1864
11999W        W30203   0.725  14.861  13.755  0.1104  0.0888 -0.0990
12000W        W30204   1.818  11.582  11.450 -0.1430  0.0168 -0.0364
12001W        W30205   5.260   3.680  11.929 -0.0354 -0.0090 -0.3551
12002W        W30206   0.862  10.763  12.414 -0.4324  0.2774  0.1507
12003W        W30207  13.279  15.898   4.249 -0.1739  0.1602  0.1024
12004W        W30208  11.135  10.210   1.797 -0.1706  0.1381  0.0349
12005W        W30209  16.626  16.156   1.766 -0.0567 -0.1827  0.0621
12006W        W30210  17.893   8.225  13.490 -0.2476 -0.1329  0.0373
12007W        W30211   9.763   1.491   2.957  0.1557 -0.1201 -0.0648
12008W        W30212   5.574   5.075  10.723 -0.0343  0.0939  0.1247
12009W        W30213   9.513   7.728   3.526  0.1621 -0.0869  0.2578
12010W        W30214   8.086   3.394   0.028 -0.1582 -0.0159 -0.1182
12011W        W30215  12.554   6.321   4.579  0.0896  0.0305 -0.0317
12012W        W30216  11.705  10.822   1.629  0.0610  0.0658 -0.0055
12013W        W30217   8.588  10.939  11.728  0.0121 -0.0091  0.1242
12014W        W30218  12.058  15.375   4.306 -0.0054  0.0807 -0.0138
12015W        W30219  11.510   4.103  11.766 -0.1617  0.0197 -0.3390
12016W        W30220   7.953  17.728   2.389 -0.2122  0.2976 -0.0015
12017W        W30221  15.421  11.428   5.511 -0.1368  0.0114 -0.1513
12018W        W30222  14.631   8.932   4.497  0.0049 -0.0008  0.2158
12019W        W30223   5.122   5.670   3.446  0.2295 -0.2973  0.0883
12020W        W30224   4.774  16.345  14.044  0.5015 -0.0337 -0.1779
12021W        W30225   3.568   3.714   2.318  0.0775 -0.0188  0.0237
12022W        W30226  10.546  16.958  10.550  0.0730 -0.1501  0.1455
12023W        W30227  10.396  12.319  13.694 -0.2694 -0.0385 -0.2437
12024W        W30228  14.899   5.240   4.247 -0.0085  0.2196 -0.2107
12025W        W30229   8.587   3.841   4.163  0.1032 -0.0718  0.1113
12026W        W30230  10.740   7.110   2.349  0.1454  0.2026 -0.1293
12027W        W30231  15.638   6.336   2.700  0.0546 -0.1805  0.0741
12028W        W30232   2.642   5.723   1.205  0.2728  0.2166 -0.2060
12029W        W30233  10.904  16.429  10.998  0.0229  0.2328 -0.0505
12030W        W30234   4.159  17.848  14.918  0.1148 -0.0947 -0.1771
12031W        W30235   5.608  10.211  12.792  0.1686 -0.0429 -0.1251
12032W        W30236   8.181   6.136  11.650 -0.2370 -0.0351  0.1171
12033W        W30237  17.857  13.229   0.501 -0.2487  0.0169  0.2008
12034W        W30238  14.796  10.418  14.120 -0.0560 -0.0352 -0.2704
12035W        W30239   8.875  13.417   0.847 -0.1232 -0.1095 -0.0654
12036W        W30240  11.093  18.541  12.035 -0.0732  0.3666 -0.0983
12037W        W30241   3.794  16.349  12.902  0.0615 -0.2245 -0.2041
12038W        W30242   6.764   7.121   0.502 -0.0270  0.3649  0.1102
12039W        W30243  17.865   8.800   4.119 -0.5972 -0.0786 -0.3859
12040W        W30244   1.050  11.012   2.020  0.3292 -0.1790 -0.0437
12041W        W30245   0.879   9.282  15.012  0.1704  0.0312 -0.1564
12042W        W30246   6.668   9.989   4.077  0.0510  0.0954 -0.2821
12043W        W30247  13.773  11.520   1.987  0.0201  0.2510 -0.3142
12044W        W30248   4.648  12.086  14.617 -0.1396  0.1741 -0.1819
12045W        W30249   0.973  14.988  11.903 -0.0864 -0.1472 -0.0379
12046W        W30250   3.702  17.037  14.911  0.1430 -0.2180  0.0972
12047W        W30251   9.843   7.220  14.854  0.1303  0.0245  0.0613
12048W        W30252  15.843   1.296  10.235  0.0884 -0.3900 -0.4086
12049W        W30253  17.448  11.198  12.287 -0.1420 -0.1437  0.1197
12050W        W30254   8.766  15.999   4.311 -0.1792 -0.0202 -0.0957
12051W        W30255   4.377  15.801   5.132 -0.2496 -0.3595  0.0211
12052W        W30256  12.917   6.058   1.097  0.2945 -0.2103 -0.1131
12053W        W30257   9.699  12.207  11.162 -0.2825 -0.2323 -0.2389
12054W        W30258   8.182  10.007  14.698  0.2253  0.2685  0.1129
12055W        W30259  14.934   1.744  15.230 -0.0959  0.0683 -0.0682
12056W        W30260   9.143  10.819  11.798  0.4781  0.2565 -0.1524
12057W        W30261   7.880   3.838  12.870 -0.3055 -0.3062  0.2228
12058W        W30262  17.160  10.897   2.261  0.0053  0.0230  0.2171
12059W        W30263  11.011  12.690   0.840  0.1800 -0.0039 -0.0303
12060W        W30264  13.903   1.260  12.622 -0.2693 -0.0287  0.0516
12061W        W30265   5.753   6.367   0.827 -0.2721  0.2522 -0.1805
12062W        W30266   0.783   3.606  12.508 -0.0148  0.2195  0.0170
12063W        W30267   1.302  11.745   4.795  0.2880  0.0932 -0.0312
12064W        W30268  11.912  11.093  11.765  0.0334 -0.1286 -0.0510
12065W        W30269   2.182  13.887   2.407  0.2091 -0.2376 -0.1925
12066W        W30270   3.531   6.887   2.983 -0.1311 -0.3492  0.0675
12067W        W30271  16.330   2.001  12.352  0.0008  0.1212 -0.1130
12068W        W30272  11.750  18.371  15.062 -0.0685  0.2086  0.1406
12069W        W30273  18.137   3.034  10.724 -0.0332  0.1735  0.3769
12070W        W30274   0.983  10.572  14.895 -0.0944 -0.1136 -0.2054
12071W        W30275  13.658   7.788  11.991 -0.2985  0.1366 -0.0111
12072W        W30276   7.896  17.393   4.387 -0.0867 -0.0167  0.0743
12073W        W30277  16.649   3.645   1.702  0.3413 -0.3025  0.0167
12074W        W30278  11.562  17.096   2.970 -0.0962  0.3185 -0.0532
12075W        W30279   2.497   9.047  12.056 -0.1882  0.0868  0.1712
12076W        W30280   5.774   3.405  13.112  0.0893  0.1780 -0.1620
12077W        W30281   1.414   8.941  11.897  0.1492  0.0057  0.1814
12078W        W30282  11.195   7.977  15.096 -0.0140 -0.0161  0.2805
12079W        W30283   7.325  17.388   1.126 -0.4212 -0.0599  0.1170
12080W        W30284   6.254   5.993   2.539  0.1925  0.1161 -0.3834
12081W        W30285  12.449   3.462  12.342  0.1932  0.0250  0.0545
12082W        W30286  14.863  14.082   1.241  0.3070  0.1625  0.0058
12083W        W30287   9.627  11.273   0.655  0.1302  0.1272 -0.1834
12084W        W30288   8.530   7.105  11.639 -0.4351 -0.1864  0.0366
12085W        W30289   2.825   3.305   2.357  0.0658 -0.0185 -0.1884
12086W        W30290   0.721  17.911   0.954  0.0495  0.0038  0.0509
12087W        W30291  14.596  17.784  14.831  0.1795 -0.1164  0.3015
12088W        W30292   7.460   0.312   1.663  0.0306 -0.2211 -0.1155
12089W        W30293   5.832   9.475  13.546  0.1467 -0.2193 -0.0334
12090W        W30294  14.750  10.080   0.545  0.1547  0.2814 -0.2164
12091W        W30295  17.980   0.298  15.148 -0.4954 -0.1870 -0.2191
12092W        W30296   2.519   8.616  14.579 -0.1503  0.2112 -0.2416
12093W        W30297  11.547  12.556  11.386 -0.0915  0.0026  0.1112
12094W        W30298  16.594  13.727   2.397  0.0130  0.0180 -0.0416
12095W        W30299   7.508   3.908  15.062 -0.0953 -0.0457  0.0285
12096W        W30300  10.815   8.533  13.104  0.2070  0.0161 -0.2508
12097W        W30301   2.249   8.602   2.580  0.0562  0.2216  0.0747
12098W        W30302   4.475   7.156   3.406  0.4735  0.3249 -0.0238
12099W        W30303   0.630   7.810   0.669  0.0998  0.3853 -0.1620
12100W        W30304  14.550   5.378   1.228 -0.3141 -0.0767  0.1020
12101W        W30305  16.469   4.593  14.618 -0.3032  0.1737 -0.2828
12102W        W30306   9.100  11.588   4.694 -0.3185  0.0795  0.0213
12103W        W30307   9.161   3.608  12.473  0.3036  0.1009  0.3326
12104W        W30308   1.256   8.820   0.376  0.1225  0.1080  0.3967
12105W        W30309  16.776   7.203   3.882 -0.1546 -0.2307 -0.0467
12106W        W30310  10.312   1.918  14.060  0.0184 -0.2651  0.0255
12107W        W30311   7.028   6.163  11.417  0.3110  0.1635 -0.0704
12108W        W30312   4.727   4.174   1.967 -0.0722  0.1993 -0.0488
12109W        W30313   1.006  16.002   0.386  0.0616 -0.1715 -0.1301
12110W        W30314   2.019  14.124  12.931  0.0313 -0.1302 -0.2364
12111W        W30315   3.516  10.254  14.505  0.2108  0.1271 -0.0581
12112W        W30316   2.359   8.190   2.285 -0.0490  0.3902 -0.0007
12113W        W30317   5.547   1.116   2.570 -0.1826  0.3816  0.0955
12114W        W30318   3.535   7.969   2.873  0.0535  0.3494 -0.3205
12115W        W30319   1.620  12.731   4.752 -0.1833 -0.0145 -0.1975
12116W        W30320  10.924   4.652   1.467 -0.0453  0.0595 -0.0682
12117W        W30321  14.817   8.516   2.803  0.0458 -0.0384  0.0829
12118W        W30322  12.870  16.014   0.517  0.0502 -0.1402 -0.1582
12119W        W30323   4.890   1.673   3.022  0.2830  0.2489 -0.2525
12120W        W30324  10.262   5.510  12.013  0.0225 -0.0761 -0.1570
12121W        W30325   0.677   7.042  14.724 -0.1541  0.2086  0.1475
12122W        W30326  16.927   0.904  13.362 -0.1979 -0.0296 -0.0565
12123W        W30327   7.042   5.528  10.576 -0.1082 -0.1295 -0.2414
12124W        W30328   2.560   3.200  13.279 -0.4231  0.1663 -0.4565
12125W        W30329  16.757  14.093   2.138  0.2333 -0.1866  0.0883
12126W        W30330  18.573  11.031  12.339  0.0651  0.0454 -0.1833
12127W        W30331  16.494  14.609   1.364 -0.0518  0.2953 -0.1197
12128W        W30332   4.078   9.062   3.020 -0.0534  0.0830  0.2288
12129W        W30333   4.071   6.469   3.624  0.2160 -0.0959 -0.0503
12130W        W30334  18.158   5.024  12.085  0.2927  0.3292 -0.1163
12131W        W30335   3.098  10.469  11.869 -0.1503  0.0209 -0.0043
12132W        W30336  14.085  18.603  13.099 -0.2426  0.2399  0.0425
12133W        W30337   0.243   4.338  11.158 -0.1368  0.0652 -0.1305
12134W        W30338  11.855  12.060  11.348  0.0115  0.0722  0.3593
12135W        W30339   7.187   5.646   4.412 -0.1861 -0.0067  0.1073
12136W        W30340   9.769   3.892  14.514  0.2881 -0.1257 -0.1918
12137W        W30341  16.703   6.917   1.129  0.0906  0.1181  0.1300
12138W        W30342  18.267  12.517  14.590  0.0837 -0.4034 -0.1044
12139W        W30343   0.683  12.923  12.511  0.1552 -0.1339  0.0211
12140W        W30344   4.154  12.895   3.241 -0.1331  0.1426  0.1722
12141W        W30345  15.961   7.416  11.414  0.3019  0.0091  0.0177
12142W        W30346   7.687  16.006  14.936 -0.1041  0.1297  0.1804
12143W        W30347  17.727  11.799  12.815  0.1020 -0.1096  0.2224
12144W        W30348  11.931   9.344   3.141  0.2376  0.1781  0.1301
12145W        W30349  10.714  18.488   3.110 -0.2103  0.0517  0.0829
12146W        W30350  16.135   4.643   2.651 -0.2300  0.3276 -0.1048
12147W        W30351   6.097   2.256  14.839 -0.0222 -0.0891  0.2465
12148W        W30352  10.500   9.593  14.827 -0.0194 -0.2751 -0.0604
12149W        W30353   3.646   7.292  14.519  0.0271 -0.2268  0.1216
12150W        W30354  11.482   8.795   4.038  0.0075 -0.1211  0.0474
12151W        W30355   1.779   7.851  12.703 -0.0541  0.0138 -0.3160
12152W        W30356  11.179   2.279   2.219  0.1470  0.0799 -0.2926
12153W        W30357   4.385   5.062   1.718 -0.2337  0.2373 -0.0250
12154W        W30358  10.111   5.824  15.119  0.4282 -0.1304  0.1944
12155W        W30359  13.123  18.028  11.488  0.0744 -0.0192  0.0941
12156W        W30360   0.026   5.137  14.670 -0.0738 -0.3671  0.1450
12157W        W30361   6.503   7.569  11.221 -0.0097  0.3552  0.1449
12158W        W30362  16.967   9.071   3.743 -0.0879 -0.3907  0.0734
12159W        W30363  18.143  17.030   1.271 -0.2525  0.1398 -0.0352
12160W        W30364  18.552   9.895  12.507  0.1755  0.0269  0.0265
12161W        W30365  16.707   8.039  13.553  0.0886 -0.0393 -0.1070
12162W        W30366   5.573   8.117  14.323 -0.2373  0.2284  0.0567
12163W        W30367   2.088   1.251   1.789 -0.1346  0.0991 -0.1265
12164W        W30368   4.047  10.344   1.447 -0.0659  0.1728  0.0925
12165W        W30369   6.828   3.235   3.750  0.0317  0.1394 -0.0090
12166W        W30370  18.569   9.952  10.546  0.2206 -0.1124  0.0553
12167W        W30371   9.877   5.879  13.839 -0.1329 -0.2244 -0.3017
12168W        W30372  17.156   1.448  15.269 -0.2060 -0.2090 -0.0161
12169W        W30373  14.051  17.798   1.116  0.1845  0.2195 -0.1557
12170W        W30374   1.400   6.583  13.251 -0.0591  0.2023  0.2139
12171W        W30375   2.878  11.925  14.966 -0.0519 -0.0754 -0.2130
12172W        W30376   9.427  10.744  14.010  0.2324  0.0430 -0.1969
12173W        W30377  15.333  17.865   1.092 -0.0158  0.1499  0.0400
12174W        W30378  14.404  17.216  13.546 -0.2471 -0.0512  0.2914
12175W        W30379   1.131   9.213  10.695  0.0265  0.1146 -0.1059
12176W        W30380   0.898  16.964   1.899 -0.0094  0.1969 -0.0264
12177W        W30381   9.993   0.655  14.251 -0.1589 -0.1277 -0.2157
12178W        W30382   1.003  10.077  14.370 -0.1308 -0.1219 -0.1047
12179W        W30383   8.125  14.793  14.736  0.4075 -0.0916  0.0742
12180W        W30384  17.047   0.700   1.639 -0.1146  0.1193 -0.2877
12181W        W30385   3.837   7.733   3.794 -0.0408 -0.0414 -0.0531
12182W        W30386  10.718   6.671   5.160  0.0680 -0.1369  0.1317
12183W        W30387  12.253   2.109  13.314  0.0353  0.2436 -0.0414
12184W        W30388   1.721   3.532  11.510 -0.1743  0.0656  0.0544
12185W        W30389  14.764  15.927  11.183 -0.2041  0.3437 -0.0713
12186W        W30390  18.262   7.776  13.375 -0.0867  0.3178 -0.0648
12187W        W30391   7.158   9.665   5.000 -0.1333  0.0731 -0.0434
12188W        W30392   3.826  10.256  10.216  0.1618  0.2258 -0.1421
12189W        W30393   5.765  16.361  15.143 -0.1753 -0.0089 -0.0355
12190W        W30394   5.358  17.653  11.336  0.2171  0.0263 -0.1928
12191W        W30395  17.625  17.773  12.693 -0.0929  0.0807 -0.0643
12192W        W30396   3.889   6.272   1.278 -0.1288  0.1683  0.2239
12193W        W30397  17.923  17.388   0.352  0.1120 -0.3432  0.0569
12194W        W30398   9.426   0.686  15.110  0.0814  0.3810  0.1164
12195W        W30399   0.008  14.232   2.252  0.1996 -0.1914 -0.0753
12196W        W30400  15.515   9.207   2.453  0.0707  0.0321  0.0374
12197W        W30401   1.285   9.617   3.689 -0.0437  0.0014  0.1672
12198W        W30402   6.989  16.387   0.746 -0.0281  0.1558  0.3146
12199W        W30403   1.573   1.985  15.189  0.1596 -0.0486  0.1626
12200W        W30404  13.500  13.721   4.434 -0.2764 -0.1323  0.3066
12201W        W30405   1.240  16.648  12.859  0.3497  0.1731  0.0646
12202W        W30406   8.856  13.178   3.979  0.2662 -0.2247  0.1315
12203W        W30407  10.741  10.528   1.717  0.2994  0.0067  0.1389
12204W        W30408  12.385   6.929   3.064 -0.4592 -0.0771  0.1780
12205W        W30409  15.527   2.489   5.464 -0.1258 -0.4337 -0.0899
12206W        W30410  18.412  12.166   1.072 -0.0129 -0.1395  0.0246
12207W        W30411  10.006   5.085  12.073 -0.1327  0.0423 -0.2030
12208W        W30412  12.847   6.012   2.807 -0.1894 -0.2665  0.2067
12209W        W30413   8.952  10.570  10.845  0.1542 -0.4157  0.4112
12210W        W30414   8.919  11.407  12.634 -0.3771  0.1702 -0.1124
12211W        W30415  17.940   1.164   3.060 -0.2154  0.1966  0.1858
12212W        W30416   9.011   2.970   4.246 -0.1755 -0.0539 -0.2822
12213W        W30417  16.747   4.300  11.441  0.1408  0.2387 -0.2289
12214W        W30418   6.943   9.023   0.874 -0.1958 -0.0663  0.2566
12215W        W30419   6.555   6.235   0.435 -0.1130  0.1781 -0.1246
12216W        W30420   9.057   1.990   4.760  0.0973 -0.1494 -0.0617
12217W        W30421   1.224  14.953  13.571  0.1278  0.7158  0.1574
12218W        W30422   2.989  17.487   2.229 -0.0526  0.0582 -0.3341
12219W        W30423   7.828   6.059  15.197  0.0912  0.1836 -0.0390
12220W        W30424  16.923   7.301  12.703  0.1074 -0.0271 -0.2608
12221W        W30425   0.452   4.204  15.362 -0.1089 -0.1485  0.2020
12222W        W30426   0.352  16.240   4.800  0.0476  0.0974  0.1222
12223W        W30427  15.244   8.674   5.079 -0.2819  0.0002  0.1103
12224W        W30428   3.132  11.601  10.615  0.1669 -0.4809 -0.0797
12225W        W30429   8.021   1.501   3.535 -0.0474  0.0306  0.3830
12226W        W30430   6.445  16.368  13.800 -0.0703  0.1217  0.0595
12227W        W30431  11.419   3.601   1.047  0.3294 -0.1498 -0.0163
12228W        W30432  11.733  16.579   0.578 -0.0841 -0.1773  0.0010
12229W        W30433  12.635   0.592  12.871  0.1129  0.0767 -0.1134
12230W        W30434   5.550  15.159  15.141 -0.2923 -0.1776 -0.4662
12231W        W30435  15.911   6.160   0.214 -0.0632  0.0845  0.0224
12232W        W30436   4.987   5.059  12.237 -0.2204 -0.0370 -0.1020
12233W        W30437  13.513  11.968   0.292  0.1386 -0.1167 -0.0262
12234W        W30438   5.632   9.714   0.734  0.2099  0.0144 -0.3050
12235W        W30439  11.274  12.395   1.193 -0.1336  0.0594  0.0515
12236W        W30440   3.935  15.685  11.995  0.0664 -0.1564 -0.0560
12237W        W30441  10.876  12.309  13.655  0.0997  0.0251 -0.4214
12238W        W30442   5.775  14.664  10.827 -0.1185  0.0287 -0.1056
12239W        W30443  13.416  12.931  11.133 -0.0914 -0.2879  0.1199
12240W        W30444   2.947  10.937   3.128  0.3580  0.2336 -0.0370
12241W        W30445   0.526  17.523   3.001  0.0002  0.0410  0.1199
12242W        W30446   6.936   9.482  14.882 -0.1674 -0.2485  0.3119
12243W        W30447   5.964  11.925  10.501 -0.1025  0.4309 -0.1563
12244W        W30448   3.364  10.516   3.951 -0.0047  0.4949 -0.0894
12245W        W30449   2.454   4.892  10.873 -0.4845 -0.1377 -0.1304
12246W        W30450   3.869   5.146  11.562 -0.0995  0.0167 -0.4288
12247W        W30451  16.083   9.435  12.574 -0.1857  0.2878 -0.0033
12248W        W30452  14.719  17.954   2.365 -0.0112  0.2546 -0.0897
12249W        W30453   5.785   1.792   3.324 -0.0072  0.0085  0.2350
12250W        W30454  17.569   4.087  13.953 -0.4132 -0.0114 -0.0439
12251W        W30455   2.463   0.296  13.762 -0.1404  0.0345  0.3402
12252W        W30456   4.679   4.450  10.524  0.0175  0.0357  0.1155
12253W        W30457   2.757  17.033  11.708  0.0667 -0.1676 -0.0905
12254W        W30458  17.719  14.114   5.763 -0.2379  0.1191 -0.1566
12255W        W30459   5.868   6.144   0.173  0.1932 -0.0289 -0.1355
12256W        W30460   0.538  13.740   1.811 -0.0263 -0.2093 -0.0165
12257W        W30461   3.740  17.024   4.162  0.1278 -0.0664 -0.1550
12258W        W30462  16.853   3.318   0.698  0.2383  0.1942 -0.0887
12259W        W30463   0.315   3.030   2.066 -0.0540 -0.1467  0.2908
12260W        W30464  12.371   8.764  12.993 -0.0153 -0.1041  0.1139
12261W        W30465   4.008  11.579   0.109 -0.2523  0.1208  0.0546
12262W        W30466  12.219  14.528  14.305  0.0623 -0.2149 -0.0745
12263W        W30467   2.603  10.530  11.578  0.0053 -0.0221 -0.0826
12264W        W30468   8.759   2.486  13.973  0.3479  0.2276 -0.0922
12265W        W30469  12.777   7.211  12.598 -0.3335 -0.0802  0.0628
12266W        W30470  16.674  17.837   0.415 -0.3899 -0.0015  0.3182
12267W        W30471   5.917  17.879   1.350 -0.2096 -0.2024 -0.0501
12268W        W30472  10.550   1.776   1.894  0.2372 -0.1069 -0.0986
12269W        W30473  12.003   4.323  12.383  0.0850  0.2059  0.1095
12270W        W30474   7.117  11.096  13.263 -0.2087  0.3225 -0.0502
12271W        W30475   6.597   8.495   0.886 -0.0404  0.1934 -0.0460
12272W        W30476   6.926  11.099   4.231 -0.0597 -0.0444 -0.1921
12273W        W30477  10.713   2.267   1.891  0.0714  0.2337  0.2687
12274W        W30478  16.323   0.551  11.921 -0.0412  0.2744 -0.3526
12275W        W30479   8.318  11.142   4.177  0.0714  0.2972  0.1764
12276W        W30480   7.464   5.052  12.805  0.1664  0.1358  0.2320
12277W        W30481   4.001  13.908   4.507  0.0975  0.0081  0.0872
12278W        W30482   7.805  17.769  12.177  0.1186  0.0261  0.0674
12279W        W30483  14.268   4.124  14.940  0.1631 -0.0176 -0.1644
12280W        W30484   7.805  10.067  13.790  0.2340 -0.1277 -0.1985
12281W        W30485   4.214   3.944   0.780 -0.4044 -0.2194  0.2576
12282W        W30486   0.908  17.609   3.830 -0.0607  0.3616  0.1141
12283W        W30487  17.238   1.383   1.442 -0.0414  0.0593 -0.0401
12284W        W30488   8.891   6.370  11.132 -0.1615  0.2981  0.0979
12285W        W30489   2.279  17.436   0.744  0.4511 -0.4570 -0.4157
12286W        W30490   1.142  14.548   4.139 -0.1746 -0.0896 -0.0061
12287W        W30491   5.618  13.932  14.985 -0.1102 -0.1103 -0.1485
12288W        W30492   3.943  12.497  13.661 -0.0227 -0.1191  0.0387
12289W        W30493   0.885   5.140  12.880 -0.0109 -0.0374 -0.2625
12290W        W30494   6.744  17.297   0.550 -0.0271  0.1614 -0.0328
12291W        W30495  12.337  10.345  14.911  0.0051  0.3048 -0.4174
12292W        W30496  12.066   0.700   0.513 -0.0392  0.2986  0.2977
12293W        W30497   3.298  12.273   4.091  0.4620  0.0259 -0.2078
12294W        W30498   8.944  15.193   1.567 -0.0543 -0.1852  0.5037
12295W        W30499   3.359  11.490   0.993  0.0733  0.1286 -0.1231
12296W        W30500  14.459  16.367  11.754  0.1343 -0.2457  0.0786
12297W        W30501   1.506  14.900  10.332  0.3399  0.0422  0.0738
12298W        W30502   3.657  16.557  11.503 -0.2963  0.1066  0.0212
12299W        W30503  17.315   1.077  10.617 -0.0590  0.1733  0.1707
12300W        W30504  17.987   1.265  15.287  0.0514 -0.1842  0.1571
12301W        W30505   6.703   0.645   0.826  0.4208 -0.0832  0.0781
12302W        W30506  16.261   2.821   2.192 -0.1586  0.0237 -0.0652
12303W        W30507  10.297  13.134   1.067 -0.1660  0.0358 -0.3202
12304W        W30508  10.727  15.538  10.824 -0.1615  0.1131 -0.5833
12305W        W30509   9.292   4.996   2.934  0.0907  0.2383  0.0133
12306W        W30510  15.178  12.768   3.954  0.3472 -0.1537  0.1920
12307W        W30511   6.297  14.662  10.813  0.1030  0.0004  0.3630
12308W        W30512   4.683   3.070   2.288 -0.0713 -0.1645 -0.1093
12309W        W30513  13.749  17.155  13.110 -0.0675  0.1564 -0.1274
12310W        W30514  16.330  12.298  13.475 -0.0229  0.1565 -0.1725
12311W        W30515   0.575   6.083  13.325  0.2723  0.1564  0.1800
12312W        W30516   4.847  10.504   1.821  0.0315  0.3871  0.2838
12313W        W30517   6.460  14.039   0.004  0.0337  0.2250  0.2866
12314W        W30518   8.032  10.225  14.193 -0.1222  0.0030 -0.1401
12315W        W30519   0.449   3.875   3.515  0.0202  0.0472 -0.0631
12316W        W30520  12.168  17.570   0.376  0.0135  0.0531  0.0339
12317W        W30521  11.474  10.354   3.338  0.1150 -0.1278  0.0328
12318W        W30522  16.988   5.894  11.708  0.1221  0.1851 -0.0176
12319W        W30523  16.278  11.204  12.085  0.1171 -0.2583  0.1472
12320W        W30524  16.941  12.020  12.978  0.1645 -0.0835  0.0172
12321W        W30525   9.625   3.018   0.904  0.0081  0.0655 -0.1067
12322W        W30526  12.295  11.304   3.311 -0.0035  0.0218  0.1242
12323W        W30527   2.866   1.167  12.142  0.0782  0.1887 -0.1722
12324W        W30528   1.339  11.767  14.141 -0.2289  0.0946 -0.0340
12325W        W30529   9.101  10.811   2.430 -0.2568 -0.3377  0.2461
12326W        W30530   1.407  11.740   0.689  0.3159  0.0002  0.0391
12327W        W30531  10.531  16.403   0.399  0.0436  0.1128 -0.1852
12328W        W30532   0.241  10.644   2.249 -0.0876 -0.1848 -0.1728
12329W        W30533  16.609  18.275   1.542 -0.1727  0.0115  0.1583
12330W        W30534  12.725   9.021  11.163 -0.1948  0.2776  0.1861
12331W        W30535   5.102  13.367  14.393  0.1344 -0.1453 -0.1866
12332W        W30536  12.135  13.594   3.771 -0.1150  0.1205  0.0005
12333W        W30537   3.799   8.883   2.579 -0.0872  0.4363 -0.0156
12334W        W30538  17.346   9.987   3.633 -0.3872  0.0336  0.2252
12335W        W30539   6.529  15.959   2.557 -0.0763 -0.4796 -0.2041
12336W        W30540   3.868   2.592  11.510  0.0103 -0.0846 -0.1857
12337W        W30541  17.133   1.901  11.647  0.4914 -0.2787  0.1154
12338W        W30542  16.485   7.937   1.298  0.2848 -0.1266 -0.1267
12339W        W30543   0.244   9.441  11.435 -0.0192  0.2351 -0.2344
12340W        W30544   8.048  18.236  14.429  0.1427 -0.1057  0.0967
12341W        W30545  16.229  16.120  11.185  0.2950  0.2821 -0.1093
12342W        W30546   5.975   8.016  11.573  0.1155  0.2671 -0.1274
12343W        W30547  12.836   8.936  13.213 -0.3428 -0.3142 -0.0282
12344W        W30548   4.977  16.531   3.025 -0.1567  0.1022 -0.0982
12345W        W30549  10.581  18.426   4.422 -0.1838 -0.1324  0.3077
12346W        W30550   8.051  12.036  15.132  0.2705  0.1996  0.1317
12347W        W30551   0.943  12.306  14.911 -0.0373  0.2096 -0.1208
12348W        W30552   2.638  14.852  11.846 -0.2013 -0.0386  0.3707
12349W        W30553  11.099  11.195  15.294 -0.1403  0.3883 -0.2099
12350W        W30554  15.834   0.093   2.655 -0.0204  0.2977 -0.0301
12351W        W30555  13.775  10.477  14.344 -0.1253  0.0204  0.0527
12352W        W30556   4.154  18.057  14.456  0.0750  0.1127  0.1564
12353W        W30557  11.668   3.648  12.090 -0.0152 -0.4942  0.1650
12354W        W30558   0.322   2.676  12.493 -0.3220  0.1923 -0.2259
12355W        W30559   1.614  15.402   2.541  0.4431 -0.0001  0.5860
12356W        W30560   3.863  15.889  14.809 -0.1511 -0.1705 -0.0961
12357W        W30561   1.604   9.904  13.071 -0.0673  0.1143  0.1490
12358W        W30562  14.187   0.693  14.424  0.2829 -0.4353  0.2277
12359W        W30563   7.530   6.278   1.314  0.0234 -0.1786  0.2103
12360W        W30564   0.082  14.959  14.206  0.2311  0.1204 -0.2520
12361W        W30565  13.035   3.174   3.412  0.2515  0.4966  0.0822
12362W        W30566   4.463  15.617   3.347 -0.1582  0.1068  0.4191
12363W        W30567   9.125  16.437  11.615  0.1930  0.1100 -0.1178
12364W        W30568   7.599   2.138   1.623  0.0866 -0.0495  0.3237
12365W        W30569   7.189  13.646   4.285 -0.1230  0.0911  0.1189
12366W        W30570   4.595   4.458  14.459 -0.0705  0.0659 -0.0973
12367W        W30571   9.722   9.939  13.949  0.0701  0.1853  0.2530
12368W        W30572   8.029   0.076  15.333  0.1232 -0.1727  0.1684
12369W        W30573  17.325   3.949  10.286 -0.3408  0.0497  0.0185
12370W        W30574   8.990  14.722   2.819  0.0535  0.1102  0.0343
12371W        W30575   9.574  12.248   0.322 -0.1752 -0.1859  0.1569
12372W        W30576  14.202   1.778   2.554  0.1187  0.3416  0.1600
12373W        W30577   0.800   4.930  12.442 -0.0613 -0.0838 -0.2167
12374W        W30578   0.453  10.373   3.611  0.2066 -0.1213 -0.2022
12375W        W30579  17.977   2.564  10.842  0.0517 -0.1054 -0.0711
12376W        W30580  18.469   8.655   2.532  0.1782  0.1165  0.0739
12377W        W30581  11.209  16.981  11.668 -0.1339  0.1190 -0.1672
12378W        W30582  17.532   1.920   1.857  0.3091  0.1715  0.3502
12379W        W30583   1.748  12.351  11.904  0.0010  0.1320 -0.3933
12380W        W30584  10.949   3.576  15.336  0.2952  0.0441  0.0352
12381W        W30585   3.899   3.350  14.998 -0.0974  0.0366 -0.0799
12382W        W30586   3.885  11.851  11.214 -0.0021 -0.2033 -0.2711
12383W        W30587  11.406   1.728   2.333  0.1628 -0.1447 -0.0916
12384W        W30588  15.481  15.607  13.054 -0.0943  0.1449  0.0556
12385W        W30589  17.492   4.048   2.356  0.0828  0.1842  0.1644
12386W        W30590   3.003  17.670   3.162  0.0222 -0.0811 -0.1284
12387W        W30591   4.977   7.094   1.814  0.2452 -0.1363  0.2369
12388W        W30592  17.366   6.556   0.082  0.0353 -0.0443  0.1516
12389W        W30593   5.534  15.062   1.869 -0.0182  0.0743  0.1193
12390W        W30594  13.124   8.684  14.763 -0.2275 -0.1471 -0.3577
12391W        W30595   4.264  18.379  13.202  0.0011 -0.0072 -0.1127
12392W        W30596   5.479   4.673   1.599  0.0396  0.4050 -0.1075
12393W        W30597  17.248   1.901   0.034  0.2117  0.0753 -0.1934
12394W        W30598  13.522  11.047  15.323  0.0554  0.0337  0.3495
12395W        W30599   5.689  14.413   1.143  0.0649 -0.0126  0.1091
12396W        W30600   3.671   5.661  13.324  0.0076  0.1438  0.2217
12397W        W30601   6.181   2.058  12.603  0.1064  0.1277  0.2428
12398W        W30602   0.615  13.590   0.348 -0.2528  0.2973  0.4308
12399W        W30603   2.269  11.062  11.412 -0.0496  0.1272  0.0953
12400W        W30604   9.111  15.351   5.090  0.5120  0.0804  0.1616
12401W        W30605  17.901   8.688   2.905  0.2017 -0.0368  0.4183
12402W        W30606   1.295   8.002   1.368 -0.0495  0.0124 -0.2098
12403W        W30607  16.317   0.972   0.905 -0.1223 -0.0517  0.3305
12404W        W30608   0.226  10.125   0.949 -0.2210  0.1519 -0.1345
12405W        W30609  11.356   9.696   1.064 -0.1737 -0.0463  0.1896
12406W        W30610   9.156  11.456  11.058 -0.0842 -0.0048 -0.2131
12407W        W30611  16.417   2.597   0.223  0.0386 -0.1402  0.0134
12408W        W30612  16.296   4.965   4.030 -0.1089 -0.1466  0.0238
12409W        W30613   4.272   3.664   1.257 -0.3007  0.1387  0.0712
12410W        W30614  14.574   2.398   0.545  0.1381 -0.2518 -0.3892
12411W        W30615  12.860   0.851   4.919  0.0813 -0.0323 -0.5200
12412W        W30616  14.025   4.228  12.177 -0.1012  0.2685  0.0221
12413W        W30617  17.997  14.039   1.067  0.3530 -0.0749  0.1472
12414W        W30618   7.908  12.717   3.701  0.0182  0.0101  0.0148
12415W        W30619   3.137  11.930   0.680 -0.1478  0.0386  0.2490
12416W        W30620  15.010   9.007  13.576  0.1390 -0.3441 -0.0198
12417W        W30621   5.795  18.402   2.303  0.0449 -0.1471 -0.3996
12418W        W30622   7.886  17.052   0.632  0.0078 -0.1670  0.1707
12419W        W30623  10.532  13.157  13.078 -0.2096 -0.0918 -0.0250
12420W        W30624  12.912  17.096   4.817  0.1013 -0.2731  0.1991
12421W        W30625   4.517   3.860   3.967 -0.0014  0.2123  0.4243
12422W        W30626   4.690  11.747   0.095  0.0079 -0.1122  0.1113
12423W        W30627   9.819   1.815  10.080  0.1654 -0.2245  0.1568
12424W        W30628   7.932  12.572   4.853 -0.2906 -0.1855  0.1291
12425W        W30629   8.390   9.087   3.769  0.1745 -0.0594  0.1388
12426W        W30630   4.435   3.008  12.021 -0.0178 -0.1354 -0.1822
12427W        W30631   1.744  15.836  12.718  0.0317 -0.1802  0.1070
12428W        W30632  18.402   1.131  13.669  0.5381  0.2094 -0.0423
12429W        W30633  13.765   5.161   0.696  0.1279 -0.1123  0.1809
12430W        W30634   3.189  13.090  12.361  0.0890  0.1027 -0.1660
12431W        W30635  18.202   3.618  10.439  0.1141 -0.3732 -0.2390
12432W        W30636  11.880   2.214  14.905 -0.1331 -0.1087  0.0947
12433W        W30637  11.182  17.451   2.080  0.0061  0.3492 -0.1483
12434W        W30638  16.253  14.673   4.486  0.3709  0.1388 -0.0819
12435W        W30639  13.450   6.197  11.269 -0.0424  0.3005 -0.3517
12436W        W30640   5.715   4.368  15.030  0.0187 -0.1413 -0.0787
12437W        W30641  13.820  16.570  14.185 -0.0903 -0.3688 -0.1287
12438W        W30642  10.248   6.588   3.344 -0.5078 -0.0682 -0.1981
12439W        W30643   9.343   3.173  14.157 -0.2647  0.0227  0.1941
12440W        W30644   0.676  15.779  13.618  0.0052  0.2843 -0.0612
12441W        W30645  17.169   5.434  15.120  0.0539  0.3517 -0.0227
12442W        W30646   0.256   0.298  15.316 -0.2728 -0.1069 -0.2408
12443W        W30647  16.242   3.317   3.342 -0.0151 -0.0271  0.6956
12444W        W30648   7.674   6.004  14.373  0.2753 -0.1366 -0.1885
12445W        W30649   9.088   5.565  10.607 -0.1144  0.2790 -0.2175
12446W        W30650  12.939   4.758  12.122 -0.0575  0.0483  0.1504
12447W        W30651  11.157   6.544   4.385  0.1427 -0.1971 -0.0929
12448W        W30652   0.987   2.379   3.430  0.0288 -0.1094 -0.0902
12449W        W30653   2.535   8.245  11.642 -0.1314 -0.2606 -0.0502
12450W        W30654   2.259  10.873   0.970 -0.0184 -0.0699  0.1142
12451W        W30655  15.821   6.193  10.541  0.2033 -0.1380  0.0194
12452W        W30656  15.348  18.252  11.023  0.0734  0.1653 -0.0514
12453W        W30657   0.378  16.116  13.849 -0.0031  0.0091 -0.2797
12454W        W30658  15.819   7.323  12.920  0.0084  0.2704 -0.1580
12455W        W30659   5.607  10.046   3.323 -0.0340  0.2501 -0.3007
12456W        W30660  14.532   3.356   2.416 -0.0881 -0.0623 -0.2226
12457W        W30661  16.202   1.222   9.847 -0.0973 -0.0932 -0.1299
12458W        W30662   7.336  14.864   4.253 -0.3683 -0.1541  0.1576
12459W        W30663   6.972  15.834  12.113  0.1779 -0.0202 -0.0222
12460W        W30664  10.500   7.042  14.165  0.3168 -0.0299 -0.0296
12461W        W30665  14.709  16.816  13.694  0.0252 -0.1257  0.0918
12462W        W30666  16.799  12.383   1.738  0.1494 -0.2124  0.0249
12463W        W30667   6.618   8.292  13.205  0.0300 -0.1581 -0.0013
12464W        W30668   2.111   7.297   0.924 -0.0295 -0.0191  0.0585
12465W        W30669   4.570   5.755   0.153 -0.1671  0.1444 -0.1023
12466W        W30670   9.546  13.669   5.173  0.0070  0.0203 -0.0371
12467W        W30671   9.603   5.610   0.305 -0.2107  0.0143 -0.0368
12468W        W30672   2.050  14.936  11.061  0.2754  0.0058 -0.1758
12469W        W30673  13.992   3.494  11.571 -0.0015  0.1157  0.0925
12470W        W30674  13.357  15.023   0.292  0.2303 -0.0200 -0.0839
12471W        W30675   2.613   7.043   3.041 -0.2816 -0.2663 -0.0635
12472W        W30676   4.216  10.120  15.395  0.5109 -0.1961 -0.3464
12473W        W30677  11.720   6.342  14.881  0.1408 -0.0935 -0.0686
12474W        W30678   5.547   2.060   3.752  0.2641  0.2268  0.1588
12475W        W30679   1.623   5.845  13.380 -0.2584  0.1306 -0.0893
12476W        W30680  14.178  11.156  13.719  0.2623  0.0089 -0.3049
12477W        W30681   3.238  11.991   1.256  0.0339 -0.0464  0.1122
12478W        W30682  17.801   6.092  12.566 -0.2583 -0.0177 -0.0870
12479W        W30683   8.214   7.165  15.430  0.1847 -0.1652 -0.3222
12480W        W30684  12.366  18.483   4.971 -0.1192 -0.1967  0.1054
12481W        W30685   0.799  13.854   4.848  0.1313 -0.0281 -0.0806
12482W        W30686   5.547   6.776   3.736 -0.2347 -0.0868  0.2770
12483W        W30687  11.761  10.326   4.172  0.3544  0.0915 -0.2697
12484W        W30688   4.649   8.067   3.368 -0.0856  0.1164 -0.0918
12485W        W30689   7.218  18.580   2.640  0.1198  0.0600  0.3236
12486W        W30690   2.571   2.428   0.531  0.1732  0.0880 -0.3430
12487W        W30691  16.542   9.710   0.664 -0.0180 -0.0790  0.0412
12488W        W30692  12.126   0.970  11.710  0.1322  0.1652  0.0491
12489W        W30693   0.327  17.904   1.376  0.1562 -0.0934  0.2325
12490W        W30694  11.952  14.818   1.772  0.1671  0.2999 -0.3923
12491W        W30695   6.476   6.677   4.061  0.2660 -0.0270 -0.0490
12492W        W30696   7.517  10.178  11.431 -0.0472 -0.2265 -0.0332
12493W        W30697  15.080  12.729   1.275 -0.3508 -0.0468  0.0171
12494W        W30698  15.725   6.318  14.501 -0.3053  0.3639  0.2094
12495W        W30699  13.142   9.399   3.584  0.1479 -0.1614 -0.2406
12496W        W30700  18.151   1.382  11.792 -0.0065  0.2032 -0.1487
12497W        W30701  15.849   4.155   2.807  0.2519  0.0817  0.2041
12498W        W30702  11.250   9.857  14.125  0.1298  0.1510  0.2016
12499W        W30703   0.934  13.298   2.239 -0.1127 -0.2534  0.0692
12500W        W30704   6.899  16.403  11.919  0.3451 -0.0703 -0.3262
12501W        W30705   8.351   8.064  15.302 -0.0076 -0.1281 -0.0648
12502W        W30706  14.413  16.410   3.400 -0.1198 -0.1414  0.2043
12503W        W30707   6.415  12.517  15.391 -0.0974  0.1364 -0.1535
12504W        W30708  15.155   0.975   1.890 -0.1189 -0.2774  0.1937
12505W        W30709  10.688   0.838   2.926  0.0569 -0.2773 -0.1977
12506W        W30710  16.159   2.809   3.211 -0.0242  0.1434  0.0377
12507W        W30711   5.817   8.958  15.097 -0.2432  0.1396 -0.0599
12508W        W30712   0.161  18.046   3.524 -0.2574 -0.0128 -0.0508
12509W        W30713  15.399   7.205   1.142  0.1203  0.2322 -0.1337
12510W        W30714  12.873   7.518   5.150 -0.1336  0.0642  0.0908
12511W        W30715  10.580  15.128   3.885  0.2794 -0.2194  0.0656
12512W        W30716   2.588  17.669  12.865  0.3401 -0.2928 -0.0378
12513W        W30717  15.694  14.536  14.022  0.3181 -0.1993  0.1232
12514W        W30718   2.928   8.481  10.942  0.1725 -0.3706  0.0158
12515W        W30719  16.918  18.083  13.066 -0.3257 -0.0957  0.1375
12516W        W30720   3.125   2.489   0.615 -0.0340 -0.4918  0.2731
12517W        W30721   7.009  18.330   1.408  0.0716 -0.0522 -0.0082
12518W        W30722  13.624   6.577  11.003  0.0483 -0.1086  0.1469
12519W        W30723  10.618  13.655   2.906 -0.0960 -0.0934 -0.1186
12520W        W30724   3.138   5.322   4.979  0.0728  0.2933 -0.0553
12521W        W30725   5.628  18.556  12.727 -0.2027 -0.3636 -0.1691
12522W        W30726   6.167  14.460   3.975  0.0900 -0.0483  0.0948
12523W        W30727   5.381   9.567   0.254  0.0468 -0.2809 -0.0915
12524W        W30728   0.168  17.022   0.021  0.1325 -0.2034  0.4049
12525W        W30729  14.722  11.744  14.260 -0.0981 -0.1033 -0.0018
12526W        W30730   2.804  12.181   2.312 -0.0849  0.0183 -0.0598
12527W        W30731   6.193  14.936  13.526 -0.0308  0.3613  0.4511
12528W        W30732   8.747   6.213   1.643  0.1994  0.6112 -0.2881
12529W        W30733  14.874   7.097  13.088  0.0797 -0.0276 -0.2060
12530W        W30734  15.343   3.942  10.521 -0.2331 -0.0172 -0.2655
12531W        W30735   6.031   0.657  14.049 -0.1833  0.0293 -0.0685
12532W        W30736   8.281   9.085   2.195  0.2051  0.1784 -0.0947
12533W        W30737   5.949   6.967   0.239 -0.2084 -0.1288  0.1381
12534W        W30738   6.079   6.622   3.746 -0.0930 -0.2570  0.2099
12535W        W30739   2.204   8.072   1.418  0.2276 -0.0681 -0.1350
12536W        W30740  13.327   6.806   2.659  0.3828 -0.0946  0.0123
12537W        W30741   1.129  10.823   3.606  0.3605  0.1629  0.2250
12538W        W30742  15.679   9.604   4.296 -0.2432 -0.2807 -0.4259
12539W        W30743   3.207   8.873   5.057 -0.2213 -0.0412 -0.2504
12540W        W30744   8.033  11.023  11.975 -0.1506 -0.1969  0.3168
12541W        W30745  15.582   5.182  10.604 -0.1929 -0.1097 -0.0958
12542W        W30746  14.816  11.970   1.345  0.4495 -0.1458  0.2579
12543W        W30747  15.314  12.927   0.809  0.3525 -0.1661  0.1742
12544W        W30748  18.250  13.690   4.590 -0.0971  0.0858  0.0408
12545W        W30749   5.512  18.407  13.942  0.1713  0.0287 -0.0776
12546W        W30750  10.337  10.987  10.762  0.0581  0.0260  0.0360
12547W        W30751   1.926   3.170  13.446  0.1521 -0.0302 -0.1576
12548W        W30752   1.069   3.894  14.895 -0.3769  0.0956 -0.0374
12549W        W30753  14.906  15.806  10.732  0.0791  0.1453 -0.0214
12550W        W30754   4.138   0.460  12.060  0.0852  0.0416 -0.1607
12551W        W30755   9.517   4.686  11.442  0.1435  0.1711  0.3853
12552W        W30756   6.799  15.817  12.977  0.0158 -0.0226 -0.1362
12553W        W30757   2.829   4.405   2.661  0.1429  0.0717  0.1646
12554W        W30758   7.686  12.693  14.076 -0.1266  0.1833  0.1358
12555W        W30759  11.162   8.786  13.401  0.1255  0.2514 -0.0686
12556W        W30760   1.704   5.166   2.753  0.1149  0.2014 -0.2075
12557W        W30761   2.060   2.369  14.446 -0.0894 -0.2122 -0.0962
12558W        W30762   2.183   5.132   0.025  0.1304  0.1047 -0.0986
12559W        W30763  12.287   0.219  11.285 -0.2097 -0.0768 -0.3132
12560W        W30764  17.967  12.436   4.492 -0.2291 -0.0021  0.5018
12561W        W30765   3.708  16.450  14.320 -0.0036 -0.0705  0.4553
12562W        W30766   1.276   1.431   3.027  0.2149  0.1391 -0.0114
12563W        W30767  14.321  14.883  13.973 -0.2418  0.1207  0.1842
12564W        W30768   6.597  17.542   0.157  0.1970 -0.1111  0.0817
12565W        W30769   6.926  10.363  14.911 -0.3991  0.0058  0.1960
12566W        W30770  10.813   3.414   0.315  0.0388 -0.2415 -0.1333
12567W        W30771   4.644  14.467  12.237  0.1659  0.0729  0.1936
12568W        W30772   9.497   6.938  14.702 -0.1884  0.0254  0.5175
12569W        W30773   8.252   0.605  11.351  0.0009  0.1696 -0.1026
12570W        W30774  16.115   4.428   1.327  0.2662  0.0610  0.0619
12571W        W30775  18.295  15.349  12.340  0.1639 -0.0571  0.3166
12572W        W30776   6.369  11.028   1.946  0.0034 -0.2604 -0.2320
12573W        W30777  14.301  12.418  11.382  0.3652  0.1041  0.2127
12574W        W30778  12.503   5.968   4.879  0.2291  0.0517 -0.1921
12575W        W30779  10.591  14.376  14.847  0.2587 -0.2687 -0.0921
12576W        W30780   0.445   2.876   0.052  0.1017  0.1521 -0.2439
12577W        W30781  12.038  17.552   1.672  0.2180  0.1693 -0.0455
12578W        W30782  13.769   9.216   4.098 -0.2806 -0.0876  0.0828
12579W        W30783   6.013  18.159   3.071 -0.0733 -0.0075 -0.2760
12580W        W30784   5.047   8.325   3.550  0.2735  0.0320 -0.1526
12581W        W30785  16.864  14.257   3.086 -0.0453 -0.1104 -0.1846
12582W        W30786   9.479  14.021   1.344 -0.0779 -0.1818 -0.1003
12583W        W30787   4.111   9.062  15.171 -0.2901  0.3331  0.0923
12584W        W30788   4.678   9.192  11.054  0.3938 -0.1150  0.2890
12585W        W30789  10.395   8.276  11.115 -0.0993 -0.1376 -0.1423
12586W        W30790   2.199   0.809   0.284 -0.0458  0.1758 -0.0737
12587W        W30791   2.848  10.682   0.191  0.1135 -0.2840 -0.0337
12588W        W30792   9.525   7.811   1.691 -0.1620 -0.2922  0.1513
12589W        W30793   2.306   8.753  11.618  0.1519  0.1955  0.0319
12590W        W30794  14.561  17.132   0.118  0.3729 -0.0269 -0.0598
12591W        W30795   9.905   5.809   1.228  0.3980  0.1014  0.2957
12592W        W30796   9.221   0.008  13.979 -0.2487 -0.3415  0.1035
12593W        W30797   9.168  17.489  15.286 -0.2013  0.1263  0.0082
12594W        W30798   6.463   5.113   4.158  0.2977  0.0237  0.2552
12595W        W30799   5.088  18.049   4.858  0.0618  0.0192  0.3307
12596W        W30800   2.675   0.368   2.168  0.0011  0.0345  0.2278
12597W        W30801   5.269   9.547  14.745  0.2821  0.1715 -0.2452
12598W        W30802   1.345  13.785  11.188 -0.1290  0.1628 -0.0586
12599W        W30803   4.855   1.964   1.061  0.3658  0.0182 -0.1063
12600W        W30804   1.213   1.381   0.952 -0.2912  0.3722  0.0027
12601W        W30805   0.704  16.783   4.125  0.0277 -0.0283 -0.1483
12602W        W30806   2.912   1.424  14.993 -0.3398  0.0327 -0.0750
12603W        W30807  13.481  12.633  14.357  0.1184 -0.0224 -0.0003
12604W        W30808  16.869  17.949   0.838 -0.2125 -0.1091 -0.2950
12605W        W30809   8.160  10.992  13.712  0.1223 -0.1336  0.2166
12606W        W30810  12.699   6.285   3.686 -0.1566  0.0583 -0.0817
12607W        W30811   8.308   1.595  11.514 -0.2642 -0.0813  0.0265
12608W        W30812   6.784   1.653   2.710  0.0723  0.3928  0.3724
12609W        W30813   6.239   0.128  11.308 -0.1085 -0.0551 -0.0190
12610W        W30814  17.751  18.135   4.362  0.0156  0.0376  0.1003
12611W        W30815   7.362  10.635   0.563  0.0572 -0.0939 -0.1691
12612W        W30816   7.995  10.528  12.193  0.0036  0.0741  0.6483
12613W        W30817   8.399  15.860  14.610  0.2508 -0.0488 -0.2051
12614W        W30818   7.284  18.569   0.831  0.0575  0.3540  0.3638
12615W        W30819   3.625   5.876  15.397  0.0479 -0.1238  0.0530
12616W        W30820  13.858  17.308  10.726  0.3119  0.0730 -0.0776
12617W        W30821   4.033  11.185   0.606 -0.0210 -0.0180 -0.1029
12618W        W30822   4.806  14.850  10.250  0.0185 -0.0617  0.1038
12619W        W30823   1.864  11.527   0.492  0.0169  0.0848  0.0197
12620W        W30824  11.306  16.715  12.372  0.1635  0.2501 -0.2382
12621W        W30825  13.003  18.428   5.557  0.0328  0.0328 -0.1970
12622W        W30826   0.561  14.166   3.134  0.0293 -0.2022  0.0063
12623W        W30827   9.217  15.454  14.249  0.2248  0.1707 -0.0387
12624W        W30828  15.074  16.364   1.055  0.1436  0.1913 -0.2081
12625W        W30829   6.682   6.471   2.531  0.0445 -0.0722  0.0490
12626W        W30830  16.226  14.668   1.788  0.1514 -0.0359 -0.0546
12627W        W30831   8.377  14.074   2.623 -0.0587  0.0398  0.1601
12628W        W30832   8.750  18.406  14.007 -0.0897  0.1924  0.1146
12629W        W30833   7.461   4.839  14.693  0.0080  0.1587  0.3824
12630W        W30834  13.950   9.952   4.330  0.2212 -0.1122  0.0966
12631W        W30835  15.908   7.098   0.440 -0.0145 -0.0198 -0.1913
12632W        W30836   8.581  11.903  11.852 -0.3267  0.2577 -0.0076
12633W        W30837   4.376   6.735  12.089  0.4692  0.2550 -0.1575
12634W        W30838  17.439  17.698   4.409 -0.1904  0.0216 -0.0472
12635W        W30839  16.536   2.925  11.064 -0.0923  0.0253 -0.2665
12636W        W30840   4.852   8.936  15.395 -0.0069 -0.3765 -0.0623
12637W        W30841   4.313  15.173   2.422  0.0785 -0.0629  0.0949
12638W        W30842  12.843  12.031   2.304  0.3771  0.2915  0.2700
12639W        W30843  10.743   4.329   1.930 -0.2427 -0.0803  0.0302
12640W        W30844  10.683   4.809   2.280  0.1005  0.2295  0.0214
12641W        W30845  17.531  13.503  10.208  0.0599  0.0926  0.0428
12642W        W30846   5.421   2.604   1.987  0.0630 -0.4015 -0.1348
12643W        W30847  12.828   5.750   1.473 -0.0012  0.3431 -0.3164
12644W        W30848  11.155   9.359  15.302  0.2329  0.1411  0.1190
12645W        W30849   3.423   6.923  14.707 -0.1829 -0.0996 -0.2792
12646W        W30850   1.250   8.615   2.980  0.0213 -0.0344 -0.0679
12647W        W30851  14.065   7.437   1.155  0.0516 -0.2000  0.0915
12648W        W30852   0.407   5.802   0.232 -0.0226  0.2003  0.1774
12649W        W30853   0.950  12.234  10.904  0.2124  0.1278 -0.0167
12650W        W30854   8.666   8.159  12.875 -0.0463  0.0482 -0.0270
12651W        W30855   0.337   3.183   1.112  0.1891 -0.1355  0.2287
12652W        W30856   1.629   9.764   0.338  0.1026 -0.0048  0.1386
12653W        W30857   0.749   2.206   2.064  0.1769  0.1956 -0.0662
12654W        W30858   8.116  14.475  11.616 -0.2077 -0.0834  0.2471
12655W        W30859   9.351  16.513  14.061 -0.1642  0.0315  0.1652
12656W        W30860   7.701   0.866  12.224  0.3042 -0.0491 -0.0382
12657W        W30861   0.033   0.840  11.631 -0.2344 -0.0726 -0.2227
12658W        W30862   7.185  10.660   4.785  0.2465  0.1596  0.1682
12659W        W30863  15.829   9.882  13.384 -0.1727 -0.1842  0.0947
12660W        W30864  11.016  18.242   4.297  0.1435 -0.2200 -0.2292
12661W        W30865  15.791   5.257  11.651 -0.0342  0.1223  0.1035
12662W        W30866  12.346  15.543   3.207 -0.0901  0.1252  0.1766
12663W        W30867   6.096   8.065   3.280  0.0953 -0.2054 -0.2037
12664W        W30868   8.962   1.043  14.088 -0.0870  0.0461  0.0769
12665W        W30869  16.798   0.637   3.959  0.3199 -0.2076  0.1413
12666W        W30870   0.597   6.214   3.448  0.0687  0.0283  0.1515
12667W        W30871  16.856  10.999   4.371  0.1360 -0.0123 -0.0272
12668W        W30872   6.623   6.095   2.971 -0.2646  0.0558 -0.0824
12669W        W30873  15.079   6.587  12.088  0.1086 -0.2417  0.0471
12670W        W30874   7.823   6.016   4.494  0.0229 -0.0391  0.0593
12671W        W30875   1.028  16.439  11.823  0.0854 -0.0318 -0.1444
12672W        W30876  18.288  10.106   3.306  0.0199 -0.0518  0.1426
12673W        W30877   1.197   7.602   0.078 -0.2156 -0.2758 -0.0355
12674W        W30878   4.402  15.273   1.144  0.1083 -0.3592  0.2565
12675W        W30879   3.259  16.634   1.939  0.2263 -0.1267 -0.5267
12676W        W30880  13.506  12.079   3.637  0.1629 -0.0509  0.0319
12677W        W30881  14.326  18.301  14.791 -0.0855  0.2930 -0.1418
12678W        W30882  15.568  16.480  14.290 -0.5598  0.0584 -0.2428
12679W        W30883  11.526  14.814  13.831  0.1495  0.2130  0.1337
12680W        W30884   6.822   5.855   1.801  0.0209 -0.0381 -0.1324
12681W        W30885   0.180  18.302  15.246  0.0665  0.0700  0.1489
12682W        W30886  17.165  18.557   3.318  0.3294  0.1087 -0.2776
12683W        W30887   5.288   1.873  11.713  0.0320  0.1050  0.0473
12684W        W30888  15.866   1.697  15.303  0.1844 -0.0585 -0.1345
12685W        W30889  10.216   4.783  13.347  0.2408 -0.0677  0.2059
12686W        W30890   1.925  11.270   0.108 -0.0459 -0.2551 -0.0385
12687W        W30891   3.594   3.284   3.837 -0.1006 -0.1012  0.2016
12688W        W30892   0.234  12.018  14.641  0.2979  0.2397  0.1353
12689W        W30893   9.929  18.468  11.489 -0.1171 -0.0335 -0.0056
12690W        W30894   7.130   1.984   4.618  0.2314  0.1151  0.0763
12691W        W30895   0.308   4.793   3.970  0.1779  0.0400 -0.1271
12692W        W30896  14.503   2.280   3.728 -0.2543 -0.1451 -0.2648
12693W        W30897   3.264   6.804   1.249 -0.1927 -0.0636 -0.0194
12694W        W30898  12.620   4.679  14.680 -0.2391  0.1891  0.0807
12695W        W30899   9.622   8.890  11.800  0.0589  0.0182 -0.1704
12696W        W30900  13.224  13.278   4.234  0.0530  0.1353 -0.1692
12697W        W30901   6.107   8.453   1.727  0.1262  0.0475 -0.2730
12698W        W30902  12.911   9.839  14.263  0.2178 -0.1153  0.0248
12699W        W30903  14.438   3.664   1.462  0.1807 -0.2098  0.1739
12700W        W30904  12.411   3.304   0.592 -0.1082  0.1304  0.1579
12701W        W30905   1.731  17.824  12.216  0.1583  0.3783 -0.0807
12702W        W30906  11.786   3.000  11.204 -0.0429 -0.1719  0.1449
12703W        W30907  16.715  15.017   0.144  0.3069  0.0301 -0.4292
12704W        W30908   1.003   8.758  14.876  0.0880  0.1837 -0.1001
12705W        W30909   0.861  12.406  12.627  0.0799 -0.1801 -0.2818
12706W        W30910  11.596  16.955   1.229  0.0133  0.1453  0.0233
12707W        W30911   9.565   0.460  12.260 -0.0678 -0.3200 -0.1480
12708W        W30912  11.689   1.778   4.332  0.0811  0.1822 -0.0575
12709W        W30913  11.652   1.321   0.010  0.0119 -0.0392  0.0240
12710W        W30914  17.973  12.483   0.065 -0.0944 -0.1500  0.0185
12711W        W30915   7.512   5.421  10.179  0.0616 -0.1743 -0.0876
12712W        W30916  11.455   3.285   0.656  0.0172  0.1198  0.1991
12713W        W30917  15.173  13.391  11.316 -0.3227  0.0528  0.1173
12714W        W30918   7.754   8.718  12.250  0.4774 -0.1469 -0.1976
12715W        W30919  12.742  14.558  15.219 -0.1178 -0.2186 -0.2082
12716W        W30920   1.263  14.537   2.091 -0.1423 -0.1984  0.0794
12717W        W30921   9.019  14.465   2.103 -0.0548 -0.2924 -0.0855
12718W        W30922  17.156  12.960  15.430 -0.3555 -0.1103 -0.0740
12719W        W30923   2.824   2.314   1.499  0.1716  0.1735 -0.1196
12720W        W30924  12.855   7.974   0.039 -0.0370  0.0984 -0.4025
12721W        W30925   0.386   9.246  14.912 -0.2240  0.1266  0.3153
12722W        W30926  10.711  15.930  11.110 -0.0063  0.2065 -0.1530
12723W        W30927  16.018  10.387  15.346  0.1420  0.0613  0.0669
12724W        W30928   3.114  14.437   3.959 -0.1616 -0.0804 -0.0766
12725W        W30929   4.481  15.660   4.662 -0.1967 -0.1369 -0.1882
12726W        W30930  16.127   6.121   5.549  0.3189  0.0974  0.1093
12727W        W30931   3.632   8.152  15.346 -0.0912  0.0726  0.1589
12728W        W30932   8.316   6.941   3.714  0.2165 -0.0276  0.4451
12729W        W30933  14.934   7.694   2.361  0.1836  0.0674  0.0514
12730W        W30934  10.636  17.941  14.396  0.0155  0.1284  0.1023
12731W        W30935  16.286   4.881   0.727 -0.0887 -0.2078 -0.1859
12732W        W30936  14.054  16.984   3.879  0.0094  0.1739 -0.2528
12733W        W30937  17.613  14.823   4.372 -0.2354 -0.1116  0.2978
12734W        W30938  17.255   4.776  12.644 -0.2554 -0.0600  0.2382
12735W        W30939   9.819   7.705  12.216 -0.0350 -0.3735 -0.1608
12736W        W30940   3.044   5.284   1.075  0.2248 -0.1167  0.2229
12737W        W30941  16.054   1.537   4.024 -0.0044  0.0134 -0.1752
12738W        W30942   9.315  13.110   2.634  0.1177  0.1358 -0.1541
12739W        W30943   2.074  15.178   3.216  0.0099 -0.1992  0.1644
12740W        W30944  15.782  14.836   4.626  0.2223 -0.0245  0.2760
12741W        W30945   3.258   7.095   1.685 -0.2985  0.2977  0.0869
12742W        W30946   9.743   8.576   2.316  0.1340  0.2617 -0.0940
12743W        W30947  15.510   4.778  11.072  0.0031  0.0761 -0.1429
12744W        W30948  15.797  16.008   3.719  0.0318 -0.0242 -0.1326
12745W        W30949  16.953   7.660   3.497 -0.0967 -0.1423  0.0776
12746W        W30950  16.539   5.310   1.484  0.0508 -0.3100 -0.2412
12747W        W30951   5.216  10.893   5.501 -0.0525  0.1449  0.2821
12748W        W30952   1.632   3.449   1.171  0.1528  0.0795 -0.0297
12749W        W30953   5.633   3.759   3.413 -0.1053  0.0543 -0.1410
12750W        W30954   6.443  15.435   0.211 -0.0952  0.1340  0.1164
12751W        W30955  15.208  17.196   3.284  0.0358 -0.1696  0.0862
12752W        W30956   7.790   3.079  15.285  0.1902 -0.2570 -0.0492
12753W        W30957  10.432  10.979  13.036 -0.0684  0.0339 -0.1606
12754W        W30958  12.554   1.985   1.280  0.0631  0.0587  0.4135
12755W        W30959  14.401   0.303  14.191 -0.0238  0.1422  0.3694
12756W        W30960  10.701   3.892  14.745 -0.0709  0.1387  0.2372
12757W        W30961   6.406   8.343  11.501  0.0173 -0.3048 -0.1223
12758W        W30962  13.419   4.686   3.692  0.1307  0.2490 -0.0622
12759W        W30963  11.453   3.019   3.967  0.3229 -0.0640  0.2186
12760W        W30964  16.428   4.956  12.345  0.1132 -0.1434 -0.2345
12761W        W30965   7.437   0.426   1.106 -0.0093 -0.0076 -0.0912
12762W        W30966  13.191   7.175  15.171  0.0436 -0.0794 -0.2503
12763W        W30967   0.822  14.848   4.428 -0.0801 -0.1533 -0.2848
12764W        W30968   5.063  11.148   2.774 -0.0647 -0.2611 -0.0827
12765W        W30969   4.364   3.129   5.251  0.1334 -0.3588  0.2964
12766W        W30970   8.451   4.463  13.356 -0.2149 -0.2307 -0.1006
12767W        W30971  15.775  16.584  11.353 -0.1080  0.0544 -0.1148
12768W        W30972  11.168   4.150  10.983  0.1573  0.3241 -0.0476
12769W        W30973   6.896   8.185  10.230  0.0098  0.0171 -0.0022
12770W        W30974  12.213  10.630  15.404 -0.2198 -0.0517 -0.1306
12771W        W30975   5.667   9.972  13.669 -0.0126  0.1967 -0.1535
12772W        W30976   9.614  10.154   2.483  0.0592  0.1634 -0.2475
12773W        W30977   3.657   9.667   3.812  0.1481  0.1648  0.0275
12774W        W30978  18.539  15.329   0.384 -0.1228  0.1604 -0.0576
12775W        W30979  12.125   5.445  14.210 -0.0231  0.2480 -0.0978
12776W        W30980  18.112  14.002   4.170  0.1071 -0.1648 -0.0922
12777W        W30981  15.676   6.159  12.396  0.0300 -0.2315  0.1291
12778W        W30982  14.549  12.825   2.196 -0.2799 -0.2714 -0.3110
12779W        W30983   4.746  17.395  14.103 -0.1120 -0.0636 -0.2033
12780W        W30984  17.800  11.408   1.153  0.0871 -0.0958  0.0816
12781W        W30985  12.479  14.490   4.024  0.1489 -0.0742  0.2658
12782W        W30986   2.414  12.249   0.484 -0.0884 -0.0104 -0.0696
12783W        W30987  16.421   5.778   1.360 -0.1287 -0.1021  0.1426
12784W        W30988   6.048   1.814  14.427  0.3092  0.1255 -0.0355
12785W        W30989  14.963  12.464  12.887 -0.3162  0.2110 -0.0095
12786W        W30990  15.491   2.875   1.034  0.1403  0.0890  0.3450
12787W        W30991   8.799  15.034  12.161  0.0167 -0.1478  0.3544
12788W        W30992   4.339   8.559  14.768 -0.0459 -0.1702 -0.3001
12789W        W30993  17.284  11.375  10.479  0.0582  0.0115 -0.1547
12790W        W30994  17.828   1.706   9.994 -0.0661 -0.0880 -0.1793
12791W        W30995   5.472  13.004  13.503 -0.0500 -0.0952  0.0019
12792W        W30996  12.544   6.770   0.262 -0.1276  0.1167 -0.0817
12793W        W30997   6.539  18.527   1.576  0.0358 -0.0510 -0.2090
12794W        W30998  14.120   8.040   4.889 -0.0291  0.0508 -0.1911
12795W        W30999   6.884   2.556  12.103  0.0106  0.0452  0.1871
12796W        W31000  16.101   7.759   4.138  0.3347  0.1771  0.0893
12797W        W31001  11.655   6.618  14.447 -0.0074 -0.0480  0.0924
12798W        W31002  10.626  11.535   1.930  0.0088 -0.1130  0.0911
12799W        W31003   1.200   2.511  11.186  0.1460  0.1308  0.0935
12800W        W31004   1.637   4.323  10.949  0.0118  0.3310  0.2086
12801W        W31005  16.737   7.106  14.665 -0.0018  0.0872  0.3196
12802W        W31006   2.807  17.310  14.889  0.0252 -0.3567 -0.3534
12803W        W31007  13.187   8.103   0.830  0.0077  0.5406 -0.0596
12804W        W31008   2.211  16.997   3.789  0.2118  0.1718 -0.0837
12805W        W31009   0.785   0.120   0.557 -0.1145 -0.0804  0.0237
12806W        W31010  12.637  12.118   0.094  0.0942  0.1761  0.1480
12807W        W31011   9.366  15.052   1.160 -0.2820  0.0505  0.0883
12808W        W31012   1.660   0.642  14.314 -0.0069 -0.2981  0.0991
12809W        W31013   9.871   7.290   3.202  0.2155 -0.2194 -0.1269
12810W        W31014  14.162   3.651   2.378  0.2594  0.0190  0.0264
12811W        W31015  15.853   1.251   0.044 -0.2567 -0.0403 -0.2662
12812W        W31016  12.806   0.645   5.427  0.2218 -0.0606  0.1739
12813W        W31017   8.357  12.472   3.640  0.1781 -0.0053  0.1313
12814W        W31018  14.191  11.806  11.139  0.2191 -0.0616  0.0847
12815W        W31019   6.356   7.660   4.359  0.0962  0.1712  0.0971
12816W        W31020   2.784   3.039  12.320  0.3635 -0.0583 -0.0368
12817W        W31021  18.195  16.136   5.588 -0.0912  0.0002 -0.0062
12818W        W31022   5.655  17.766  11.727 -0.0716 -0.1067  0.1638
12819W        W31023  14.002  12.169  13.806  0.0642  0.0877  0.0958
12820W        W31024   4.185   8.494   9.851 -0.2170 -0.2367  0.0001
12821W        W31025  17.253   8.982   2.748  0.4174  0.0331  0.0379
12822W        W31026   5.717  11.416   2.439 -0.0085  0.0854  0.0929
12823W        W31027  10.252   0.844   4.022  0.0962 -0.1249 -0.2230
12824W        W31028   5.658   2.563   0.245 -0.0195 -0.0116  0.1224
12825W        W31029   6.315  14.597   0.623  0.1130 -0.0816 -0.1456
12826W        W31030  12.317  14.303   3.251  0.1729 -0.2025  0.1321
12827W        W31031   8.513   9.766  11.268 -0.0261  0.2739  0.0796
12828W        W31032   9.212   4.742   2.444  0.0647  0.1167  0.0588
12829W        W31033  11.949  16.255  12.560 -0.4539 -0.1106 -0.1704
12830W        W31034   5.918  13.377  10.440 -0.1524  0.3479  0.0202
12831W        W31035   7.447  17.249  14.369 -0.1625 -0.2121 -0.3041
12832W        W31036   2.963  12.269  13.248 -0.0770  0.2261  0.1812
12833W        W31037  14.385   2.241  15.023 -0.2915 -0.0659  0.0802
12834W        W31038  13.693   1.887   3.376  0.2683 -0.1733 -0.0353
12835W        W31039   0.785  17.380  13.960 -0.1010 -0.0849  0.2655
12836W        W31040   7.901  18.144  11.850 -0.0964  0.2841 -0.2331
12837W        W31041   0.213  17.137   4.460 -0.2290  0.1983  0.1390
12838W        W31042  15.649   2.720   1.764 -0.0381  0.0832  0.0157
12839W        W31043  10.880  16.346   0.998  0.0141  0.0545  0.0898
12840W        W31044  10.542   6.590   0.094  0.1292 -0.0999  0.1442
12841W        W31045  15.417  14.466   4.466  0.1834 -0.2897 -0.1864
12842W        W31046   3.858   4.050  11.514  0.3814 -0.3816  0.0737
12843W        W31047  13.768  13.851  12.801  0.0891  0.1023  0.2107
12844W        W31048  10.593   5.710  12.363 -0.1190 -0.0069  0.3000
12845W        W31049  13.945   8.592  14.493 -0.1399 -0.0000  0.1190
12846W        W31050   7.193  17.115   2.699  0.0464  0.0034  0.1162
12847W        W31051   4.156  11.896  12.593 -0.0564 -0.2504  0.1427
12848W        W31052  16.949   7.988  10.951  0.1221 -0.1244  0.0372
12849W        W31053  14.876   8.768   1.353  0.3002 -0.2425  0.2743
12850W        W31054  11.769   8.250   3.890 -0.1396  0.1576  0.0348
12851W        W31055  16.002  16.980   1.913  0.0412  0.4068  0.0544
12852W        W31056  13.630  13.915  10.726 -0.0294  0.0224  0.1659
12853W        W31057   9.766   3.489  11.333 -0.2263  0.2121  0.0272
12854W        W31058  14.975   9.992  14.285  0.1305 -0.1799 -0.1039
12855W        W31059   9.321  16.188   0.042 -0.0319  0.3645 -0.1379
12856W        W31060   8.445  16.649   2.963 -0.0776  0.0206 -0.0896
12857W        W31061   1.886  11.150  11.769  0.2073 -0.1014  0.1840
12858W        W31062   4.771   7.740  11.967 -0.2595 -0.0884  0.2698
12859W        W31063  18.410  15.764  14.378  0.1866  0.2512  0.0068
12860W        W31064  10.792   6.539  13.930  0.1205  0.0297  0.0626
12861W        W31065  17.553   9.707   0.283  0.1527 -0.1838  0.2972
12862W        W31066  18.467   5.408  13.538  0.1264  0.1839  0.1959
12863W        W31067  12.692   7.192   0.935 -0.0107 -0.0563 -0.1798
12864W        W31068  16.136  16.396   3.751 -0.0746 -0.0919  0.0296
12865W        W31069   7.341   0.797   1.445 -0.1211 -0.3345  0.0555
12866W        W31070  15.816  10.230   2.558 -0.1875  0.0131 -0.3114
12867W        W31071   3.695   8.164  14.856 -0.0939  0.1240 -0.2183
12868W        W31072   9.027   9.596  12.725  0.0527  0.0999  0.1443
12869W        W31073   0.278   4.401   5.523  0.3576 -0.1928 -0.1036
12870W        W31074  12.356  10.764   1.883 -0.0260 -0.4170 -0.1654
12871W        W31075   2.336  10.600  14.348 -0.2205  0.2356  0.0779
12872W        W31076  16.780   0.660  14.953  0.2710  0.0912  0.0391
12873W        W31077  12.943   5.710  12.540  0.1842 -0.0412  0.2292
12874W        W31078   5.823   7.183   3.425 -0.0398 -0.0506 -0.1719
12875W        W31079  14.273  14.254   4.577  0.1411 -0.1024 -0.2178
12876W        W31080   0.547   3.705   2.476 -0.1795 -0.0987  0.0575
12877W        W31081  16.404  15.839   2.412  0.0390  0.3253 -0.3042
12878W        W31082  12.500   3.303  11.835 -0.0106 -0.1175 -0.0742
12879W        W31083   0.963   4.395   2.298 -0.0157 -0.0124 -0.1742
12880W        W31084   7.845   0.788   2.293  0.3384 -0.2099 -0.3980
12881W        W31085  18.463  10.349   1.106 -0.2293  0.1354 -0.2163
12882W        W31086   9.896  10.935  13.736 -0.4041  0.1845 -0.2259
12883W        W31087   7.282  10.684  13.637  0.1932  0.0038  0.0340
12884W        W31088  10.342  15.910  12.022 -0.0040  0.0057  0.2633
12885W        W31089  14.757   8.482  12.607 -0.0051  0.1994 -0.1776
12886W        W31090   9.945  16.435  14.086  0.1043  0.0247 -0.3835
12887W        W31091  17.356   7.763   0.450  0.0694  0.3046 -0.1613
12888W        W31092   3.379   0.788   3.730  0.2537 -0.1242  0.0351
12889W        W31093   9.547   1.773   2.094 -0.0005  0.0259  0.1594
12890W        W31094   3.168   2.755   3.017  0.0002  0.3034  0.1265
12891W        W31095  11.861   4.593   0.410 -0.2005  0.0423 -0.0390
12892W        W31096  18.377  10.798   0.061  0.0349 -0.1793  0.1737
12893W        W31097  11.845   9.160  11.617  0.0623 -0.1645 -0.0170
12894W        W31098   1.249   7.785  12.611 -0.0459 -0.1520 -0.3161
12895W        W31099   7.287  16.081  14.119  0.1721  0.0090 -0.1169
12896W        W31100   8.176   1.181   0.620  0.2655 -0.3501  0.1160
12897W        W31101   1.991   1.076   2.371  0.0705  0.2010  0.2013
12898W        W31102   9.342   8.462  13.102  0.0670  0.0651  0.0697
12899W        W31103  16.201  11.070  11.500  0.1767  0.0904 -0.4425
12900W        W31104  15.670  10.395   3.800  0.1546 -0.2026  0.0420
12901W        W31105  16.653   0.784  11.056  0.0829 -0.0042  0.0643
12902W        W31106   0.072   7.075  13.862  0.0717 -0.2018 -0.1541
12903W        W31107   8.112   9.454  13.140  0.0871  0.1070 -0.0923
12904W        W31108   3.688  14.347   4.608 -0.1371 -0.0876  0.0963
12905W        W31109   5.926  14.905   4.253  0.0854  0.1170 -0.0591
12906W        W31110  13.171  18.410   1.423 -0.1373  0.1524 -0.0807
12907W        W31111   1.296  13.360  14.285  0.3156  0.0130 -0.1715
12908W        W31112  18.455   4.265  13.005 -0.1569  0.2597  0.0547
12909W        W31113  15.809   8.632   3.010  0.0104  0.1850  0.0378
12910W        W31114  16.734  13.389   3.799 -0.1368 -0.0622  0.0887
12911W        W31115  11.686   9.935   1.902 -0.0631  0.0376  0.0463
12912W        W31116  17.566   2.563   0.946  0.0042 -0.1652  0.1654
12913W        W31117  18.185  13.266  12.055  0.0545  0.1140 -0.0244
12914W        W31118  17.698  16.829   5.094 -0.1024  0.0565  0.0188
12915W        W31119   7.871   5.000   0.646  0.1197 -0.0210 -0.2202
12916W        W31120   8.260   7.977   3.308 -0.1199 -0.0183 -0.0109
12917W        W31121   8.113   7.952  12.113  0.1638 -0.1235 -0.3021
12918W        W31122   2.034  16.390   1.216 -0.2607 -0.1880 -0.0729
12919W        W31123  12.122   4.196  11.866  0.0744 -0.2494  0.0227
12920W        W31124   2.615   9.905   0.887 -0.1858 -0.1463  0.0602
12921W        W31125   4.767   0.476  15.173  0.0691 -0.3492  0.0715
12922W        W31126  16.587  12.067  14.259  0.0595 -0.0267  0.0127
12923W        W31127   5.269   6.102   3.056 -0.1624 -0.0543  0.0038
12924W        W31128   5.969  12.790   4.344  0.0117  0.0538  0.1769
12925W        W31129  16.661  14.063   1.128  0.2188  0.0069 -0.1785
12926W        W31130  17.879   3.949  12.396 -0.2933  0.1160 -0.1155
12927W        W31131   0.916  15.835  12.270  0.0349 -0.4495  0.3690
12928W        W31132   3.917   2.588   1.850  0.0096 -0.2098 -0.1565
12929W        W31133  12.943  11.279  13.305  0.1133 -0.2883 -0.1213
12930W        W31134   4.961  15.654   1.043 -0.1959 -0.2912 -0.3213
12931W        W31135  12.303   8.143  15.446 -0.3139  0.0660 -0.0431
12932W        W31136  11.828   5.168   1.765 -0.0045 -0.1767 -0.0058
12933W        W31137  18.132   7.118  10.753  0.2677 -0.0404  0.0087
12934W        W31138  11.561  18.342  13.512  0.1624 -0.0318  0.1187
12935W        W31139  13.031  12.161  14.948 -0.0682 -0.1546  0.3014
12936W        W31140   4.344   3.424  12.925 -0.0047  0.0380  0.0680
12937W        W31141   7.038   1.062  11.969 -0.0421 -0.1705  0.3878
12938W        W31142   7.592   8.720   0.819 -0.0245  0.2469  0.1497
12939W        W31143   6.129   1.620   5.910 -0.0629  0.2060  0.0810
12940W        W31144   6.347  16.460   2.423 -0.0313  0.0313  0.2295
12941W        W31145  12.920   0.293  14.016 -0.2416 -0.1306  0.1430
12942W        W31146   9.555   0.358  10.774 -0.0126 -0.2031  0.3348
12943W        W31147   6.510   5.596   2.360 -0.1505 -0.2283  0.1302
12944W        W31148   2.581  13.613   3.910 -0.6218 -0.1950  0.0858
12945W        W31149  10.379  16.031  11.526  0.6701 -0.1149  0.0370
12946W        W31150   0.658   3.395  11.298 -0.0520  0.2420 -0.0089
12947W        W31151   5.605   7.086  11.716  0.0816  0.0095  0.0559
12948W        W31152   8.121  15.514   2.524  0.1383  0.0560  0.2307
12949W        W31153  18.281   1.793   3.614 -0.2784  0.2711 -0.1298
12950W        W31154   1.054   5.803  14.586  0.0903 -0.1030  0.1539
12951W        W31155  13.161  11.146   3.361 -0.0225  0.0387 -0.0167
12952W        W31156  17.711   9.835  14.734 -0.1043  0.1009  0.3018
12953W        W31157  16.630  11.585  12.889  0.0222 -0.0973  0.0784
12954W        W31158   3.080  13.315   1.432 -0.1170  0.2610 -0.3238
12955W        W31159   7.409   0.276  11.564 -0.3185 -0.2995 -0.4104
12956W        W31160  15.070  14.509   0.111  0.1407 -0.4518 -0.2350
12957W        W31161   1.422  15.108  11.646 -0.0798 -0.0296 -0.3717
12958W        W31162   4.944  13.290  12.361  0.0454  0.1003  0.0431
12959W        W31163   5.600   3.851  13.285  0.1537 -0.2704  0.4430
12960W        W31164   8.526  15.155  14.910  0.3112  0.3166 -0.0519
12961W        W31165  12.034   6.690  14.059  0.0287  0.1330 -0.0083
12962W        W31166   0.287  14.534   1.891 -0.0295 -0.0368  0.3132
12963W        W31167  15.338   0.517   0.720  0.1605 -0.2509  0.1580
12964W        W31168   9.507  13.669   3.317  0.0403  0.1683 -0.0281
12965W        W31169  10.445   5.459   3.319 -0.1144  0.4298  0.0607
12966W        W31170   5.229   2.379   3.343  0.0466  0.1959 -0.0518
12967W        W31171  14.632   4.964   0.482  0.2743 -0.0296  0.0163
12968W        W31172  15.853   3.669   2.873  0.3864  0.0142 -0.4559
12969W        W31173  11.143   8.645  13.937  0.0973 -0.4480  0.3216
12970W        W31174  13.476   9.496   2.229  0.1760  0.1234  0.1209
12971W        W31175   7.104   2.519  14.657 -0.1565 -0.0678  0.1744
12972W        W31176  16.986   2.886   1.945 -0.1277 -0.0290 -0.1413
12973W        W31177  16.006   6.377   4.445  0.0367  0.0387 -0.0071
12974W        W31178   5.408   4.189  14.248 -0.1584 -0.0809 -0.0512
12975W        W31179   3.590  14.020   2.525  0.0760  0.0323  0.0651
12976W        W31180   8.156   9.968   0.550  0.1243 -0.0944  0.2963
12977W        W31181  10.421  11.469   0.541 -0.0533  0.1800 -0.1476
12978W        W31182   8.364   0.261   4.025 -0.0352  0.0144 -0.0566
12979W        W31183   1.551   2.597   0.430 -0.0594 -0.0685 -0.0530
12980W        W31184   9.723   9.073  15.130  0.1359 -0.0295 -0.0620
12981W        W31185  10.656  13.227  13.615 -0.0221  0.1859 -0.1804
12982W        W31186   8.436   0.715   3.803 -0.1244 -0.0424 -0.0184
12983W        W31187   0.159  17.827   0.683 -0.5155  0.0426  0.0344
12984W        W31188   0.315   6.479   0.033  0.2893 -0.3033  0.2069
12985W        W31189  18.438   6.946  12.788  0.1022  0.2269  0.3767
12986W        W31190  15.160   5.654   3.537 -0.0573 -0.0128  0.1056
12987W        W31191  17.675   6.863  12.434 -0.0206  0.2573  0.0211
12988W        W31192   3.138   2.431  13.451 -0.2494  0.0286 -0.1262
12989W        W31193  14.220  12.268  10.365  0.1568  0.1324 -0.0010
12990W        W31194  17.795  15.844   1.466  0.0528  0.3249  0.2668
12991W        W31195   1.032  15.352  12.455 -0.6122  0.1736 -0.1116
12992W        W31196  12.433  16.909   4.715 -0.0498 -0.1423  0.2552
12993W        W31197   8.624  14.712  14.185  0.1167 -0.1173 -0.1826
12994W        W31198  15.464  14.761  14.859  0.1894 -0.0951 -0.2073
12995W        W31199   2.316  17.894   4.246 -0.1895 -0.1190 -0.1844
12996W        W31200  16.805   3.286  14.925 -0.0994 -0.0773  0.2734
12997W        W31201  17.278  10.763   4.302 -0.3620  0.0029  0.1438
12998W        W31202  11.010   4.877   5.278  0.0284  0.0222  0.1604
12999W        W31203   9.056  10.532   3.485 -0.2738 -0.0320 -0.3579
13000W        W31204  14.948  17.324  10.611 -0.2975  0.3362 -0.1223
13001W        W31205  14.613   4.908   0.995 -0.2869 -0.1969  0.1169
13002W        W31206  16.930   4.189   3.865 -0.2112 -0.0607  0.0033
13003W        W31207   4.850  15.633   2.953  0.0164 -0.1457 -0.0392
13004W        W31208   9.444  15.885  13.199 -0.3654  0.1209 -0.0332
13005W        W31209  13.234   0.427  10.943 -0.0808 -0.0526 -0.0738
13006W        W31210   9.322   4.659   0.711  0.2140  0.2514 -0.1402
13007W        W31211   9.283  11.832  13.685  0.0838  0.1707  0.0172
13008W        W31212  12.791   4.784  15.450  0.3440  0.2694  0.0692
13009W        W31213   3.891   1.352   1.814 -0.1684 -0.1709 -0.1375
13010W        W31214   8.696  13.374  11.191 -0.1338  0.0304 -0.1075
13011W        W31215   3.155   2.980   1.939  0.3536  0.0146  0.2332
13012W        W31216   0.953  15.507  14.771 -0.1105 -0.2274  0.1464
13013W        W31217  12.951   4.365  11.360 -0.3095  0.1215  0.1020
13014W        W31218   0.924   7.196   0.188  0.0880 -0.1581 -0.1278
13015W        W31219  15.761  17.840   4.241 -0.0756 -0.2028  0.0514
13016W        W31220   7.613  14.863  12.238  0.0385  0.1990  0.0351
13017W        W31221   1.333  11.502  11.252 -0.0626  0.3355 -0.2893
13018W        W31222  11.815  15.165  14.658 -0.3735 -0.1247 -0.1284
13019W        W31223   3.081   2.071   1.892 -0.3007  0.1386 -0.0230
13020W        W31224   7.998   8.918   3.482  0.1037  0.0758 -0.4425
13021W        W31225   2.757   8.284   1.377 -0.1865 -0.2334  0.0719
13022W        W31226   7.232  15.854  11.464  0.5212 -0.0439  0.0052
13023W        W31227   5.358   3.036  11.077 -0.1738  0.1181  0.0257
13024W        W31228   6.741  16.570  14.637  0.1021 -0.0926  0.0610
13025W        W31229   8.126   2.343  11.004  0.4384 -0.1327  0.1217
13026W        W31230  16.291  16.189  13.568  0.2894 -0.2154 -0.4702
13027W        W31231  10.042   8.656   2.733  0.1870 -0.1222 -0.3016
13028W        W31232  15.119   7.187   3.477 -0.2198  0.1169  0.1224
13029W        W31233  13.702  16.177   4.199 -0.0136 -0.1855  0.0551
13030W        W31234  12.619   1.341   4.159  0.2911  0.4774  0.0311
13031W        W31235   3.729  15.861  12.952  0.0304 -0.0098  0.1221
13032W        W31236  17.779   2.957   3.460  0.0318  0.1215 -0.1330
13033W        W31237  17.629   4.515  14.946  0.1205  0.1719 -0.1572
13034W        W31238  17.892  14.855   2.272 -0.2720  0.1542 -0.1454
13035W        W31239  16.549   6.308   1.273  0.1767  0.0814  0.0422
13036W        W31240  17.539   8.932   1.782  0.0902 -0.2353  0.0606
13037W        W31241   6.265   7.072   3.776 -0.1904 -0.0566 -0.1453
13038W        W31242   9.820  12.288   4.238  0.0751  0.1922  0.1383
13039W        W31243   6.301  13.673  14.986 -0.1953  0.0713  0.1114
13040W        W31244   2.515   6.984  10.475 -0.1186  0.0124 -0.0948
13041W        W31245   8.846   1.823  14.446  0.1729 -0.1347  0.0302
13042W        W31246  17.796   3.872   3.593 -0.4622 -0.0667  0.3182
13043W        W31247  12.570   6.453  15.208  0.0819 -0.1693  0.1882
13044W        W31248  13.827  15.131  12.677 -0.0077 -0.2678 -0.2137
13045W        W31249   4.876  12.736   0.307 -0.0341 -0.2233  0.0275
13046W        W31250  11.237   0.119  14.356 -0.2067  0.0293 -0.0593
13047W        W31251   0.160  10.020   3.658 -0.0056 -0.1782  0.3179
13048W        W31252   0.402  17.571  13.623  0.2431 -0.0912  0.0747
13049W        W31253  10.624  17.169   3.341 -0.1473  0.4460  0.0882
13050W        W31254  12.234   6.749  14.487  0.2371 -0.1742 -0.2117
13051W        W31255  14.121   5.085   4.672  0.2199 -0.5038  0.2623
13052W        W31256  15.906   3.254  11.794  0.0989  0.1948 -0.0562
13053W        W31257   1.424   0.516   2.094  0.1889 -0.0472 -0.0507
13054W        W31258  12.997  14.165  15.212  0.3030 -0.1173 -0.1665
13055W        W31259   6.808  12.650   1.187 -0.0975  0.0631 -0.3253
13056W        W31260   6.814  15.250   1.172  0.0982 -0.0120  0.4173
13057W        W31261   9.461   1.184   0.583  0.0447  0.0250 -0.2142
13058W        W31262  18.238  13.960   2.420  0.0005 -0.1254 -0.0043
13059W        W31263   4.076   5.954   3.074  0.3212 -0.3400 -0.0704
13060W        W31264  10.342  11.530  14.896 -0.2682 -0.0382 -0.1652
13061W        W31265   6.679   8.610   9.390  0.0071 -0.0935  0.1086
13062W        W31266   9.801   9.064   3.353 -0.0364  0.2081  0.0015
13063W        W31267   4.800   4.014   4.616  0.1247  0.0204  0.2135
13064W        W31268  13.491  18.098   1.910  0.1782  0.0587 -0.1733
13065W        W31269   1.753  10.788   3.778  0.1785  0.0922 -0.0128
13066W        W31270   9.211  11.737   2.309  0.1124  0.0691  0.4673
13067W        W31271  17.531   8.130   0.078 -0.0090  0.0215 -0.2290
13068W        W31272   4.607  16.346  13.442 -0.1338  0.1173  0.2951
13069W        W31273   0.533   4.273  11.674 -0.2161 -0.0112 -0.2070
13070W        W31274  13.264   9.073   1.806 -0.0701  0.1581 -0.0629
13071W        W31275  11.408   6.209   1.177  0.2703  0.2103  0.0357
13072W        W31276   0.494  11.703  12.565  0.0807 -0.0008  0.1568
13073W        W31277   4.771   1.781  11.636 -0.0802  0.1960 -0.0140
13074W        W31278   0.038  16.942  14.941  0.1234 -0.1541 -0.0404
13075W        W31279  11.712  10.722  13.523 -0.2494 -0.1132 -0.1821
13076W        W31280  11.995  11.584  11.560 -0.1463 -0.0705 -0.2833
13077W        W31281   5.714  15.844   0.355 -0.0554 -0.0855 -0.2336
13078W        W31282  17.139   3.576  11.196 -0.0764 -0.3210 -0.0147
13079W        W31283   7.283   9.228   2.123 -0.0877 -0.1989  0.0573
13080W        W31284   8.396   4.291  14.481  0.3617 -0.2571 -0.1580
13081W        W31285  17.812   2.152   0.005  0.0793  0.2783 -0.0530
13082W        W31286   3.576   9.674  13.416  0.0273  0.1736  0.0495
13083W        W31287   4.559  17.564  15.240 -0.0845  0.0898  0.5881
13084W        W31288   4.932  12.288  12.940  0.1374  0.0667  0.1765
13085W        W31289   6.479   2.386  12.319 -0.0086 -0.0567  0.2089
13086W        W31290  12.646   6.357   3.078 -0.0543 -0.2695  0.2191
13087W        W31291   2.364   4.104   0.348 -0.0432  0.2878 -0.3118
13088W        W31292  12.181  14.494  13.840  0.0155 -0.2323 -0.1423
13089W        W31293  15.208  10.240   9.889 -0.2059 -0.0699  0.2981
13090W        W31294   2.386   8.646   1.331  0.0198 -0.3577  0.0314
13091W        W31295   0.034  13.596   1.499 -0.1410  0.1777  0.0765
13092W        W31296  11.731   6.589   1.251 -0.1155  0.0525 -0.1638
13093W        W31297  17.621   2.299   4.387 -0.2035  0.0059  0.0799
13094W        W31298  17.391   6.177  12.948 -0.0374  0.1312  0.1180
13095W        W31299   3.576  17.907   0.443 -0.0879  0.1316  0.0806
13096W        W31300  14.095   3.581   1.042  0.0162 -0.2427 -0.0360
13097W        W31301  13.985  10.779  14.684 -0.0644  0.0271  0.0923
13098W        W31302   4.800   0.286   3.599 -0.0879  0.1762  0.0768
13099W        W31303   7.877   1.797  15.441  0.2005 -0.1274 -0.0602
13100W        W31304   0.556  14.949  14.253 -0.3794 -0.0564 -0.0837
13101W        W31305  14.064  14.399   2.500 -0.2289  0.0215 -0.0932
13102W        W31306   5.551   6.015  11.238 -0.1204  0.0041  0.2460
13103W        W31307  15.821   1.748   4.976  0.0026  0.3288 -0.0107
13104W        W31308   4.044  15.520  12.804  0.1325  0.2017 -0.1145
13105W        W31309  13.395  13.843  15.045 -0.1065 -0.0208  0.0688
13106W        W31310   3.893   6.149  14.274  0.4801 -0.0763  0.0001
13107W        W31311  11.902   4.283   4.383 -0.1464  0.1061 -0.2259
13108W        W31312  17.679  15.202  15.144  0.1912 -0.0427  0.1176
13109W        W31313  18.251  14.928  11.026  0.1039  0.0273 -0.0010
13110W        W31314   5.633  13.780   0.067  0.0077 -0.1022 -0.3080
13111W        W31315   4.050   0.276   2.068  0.2433 -0.1042  0.0657
13112W        W31316   5.408  14.259  11.592  0.4182  0.1891 -0.0618
13113W        W31317  17.572   0.607  12.221  0.2368 -0.1759  0.1077
13114W        W31318   5.156  15.426  12.234  0.3443  0.4171 -0.0183
13115W        W31319   4.289  11.025  10.571 -0.0437  0.3613 -0.2140
13116W        W31320  10.170  18.182   0.006  0.2683  0.1764  0.1522
13117W        W31321   9.427   9.709  14.266  0.2299 -0.1731 -0.3070
13118W        W31322   2.074   0.208   2.571 -0.2002 -0.0780 -0.1122
13119W        W31323   3.650   8.204   3.818 -0.2603 -0.2178 -0.2558
13120W        W31324   1.051   9.866  13.185  0.0848  0.1457  0.1552
13121W        W31325  16.623  14.504   0.871  0.0620 -0.0281 -0.1529
13122W        W31326  15.323  16.770  15.224  0.0354 -0.4302 -0.1702
13123W        W31327  14.599  13.463  13.155 -0.1190 -0.0004  0.1270
13124W        W31328   9.983   9.917  12.009 -0.0501  0.1080 -0.2645
13125W        W31329   3.753   6.729   3.902  0.3318 -0.2327  0.0407
13126W        W31330   5.237  13.688  12.281 -0.1038  0.5382 -0.2099
13127W        W31331  14.065  13.775  13.787 -0.1763  0.0075  0.0600
13128W        W31332  18.135   7.821  15.323 -0.0170 -0.2515  0.0656
13129W        W31333   4.449   8.274  13.323  0.1290  0.2513 -0.0364
13130W        W31334  15.708   5.921   1.115 -0.1325  0.1495  0.1216
13131W        W31335  14.606   3.807   2.593 -0.1343  0.0937 -0.2509
13132W        W31336   2.202   2.843  13.010 -0.0691  0.1554 -0.1113
13133W        W31337   3.981   2.405  12.703  0.2043 -0.0124 -0.2420
13134W        W31338  11.037   2.780  13.481  0.0213  0.1563  0.1466
13135W        W31339  10.421   9.057   1.893 -0.0627  0.1259  0.2423
13136W        W31340   7.836   9.260   4.522 -0.5155  0.2144 -0.2707
13137W        W31341   1.944   1.792  12.054 -0.1049 -0.1485 -0.1306
13138W        W31342  16.925  12.983   3.591  0.0948  0.0613  0.1611
13139W        W31343  14.055   3.270   3.279 -0.2025 -0.0762  0.0205
13140W        W31344   6.254   2.252   1.391  0.0699 -0.1421  0.0188
13141W        W31345   8.476   2.803   3.094 -0.1434 -0.2008  0.0389
13142W        W31346   8.335   1.429  12.416  0.0598 -0.0586 -0.2639
13143W        W31347  17.780   9.793  11.227 -0.1082  0.3432 -0.1785
13144W        W31348   8.987  11.052  13.080  0.0242 -0.3377 -0.0770
13145W        W31349   5.171   8.519  14.532  0.1307 -0.0353  0.3021
13146W        W31350   8.765   1.864  12.699  0.1487  0.1782  0.0919
13147W        W31351  10.789  14.822   0.840 -0.1031  0.1079  0.0326
13148W        W31352  10.967   8.367   2.263  0.3766  0.1836 -0.0657
13149W        W31353   6.519   3.976   4.791  0.1316 -0.0060 -0.0913
13150W        W31354   2.681  17.245  14.405  0.1398 -0.2329 -0.0023
13151W        W31355  15.291  12.499  13.264  0.0581  0.0662  0.1902
13152W        W31356   3.277   3.544  14.162 -0.1121 -0.0866 -0.0582
13153W        W31357   4.105   2.932   3.863 -0.0042  0.0426 -0.1280
13154W        W31358  12.106   9.128  13.436  0.1975  0.2271  0.0840
13155W        W31359  13.730   8.736   3.343 -0.1186 -0.0102  0.0801
13156W        W31360  10.118  13.508   5.224 -0.1102 -0.2420 -0.0409
13157W        W31361  11.100  12.745  13.153  0.0914  0.1358 -0.1801
13158W        W31362   5.909   8.487  12.763  0.1582  0.1341 -0.1924
13159W        W31363   1.737  17.097  10.542  0.0208 -0.0942 -0.2169
13160W        W31364  17.058  14.817  10.849 -0.1885 -0.1992 -0.2085
13161W        W31365  17.287   5.416  14.109  0.3141  0.3708 -0.0448
13162W        W31366  12.739   6.733   0.724 -0.0038 -0.1830 -0.2166
13163W        W31367  17.621   0.391  14.341 -0.4375  0.2545  0.0972
13164W        W31368   5.429   7.051   2.098 -0.2103  0.1342  0.0873
13165W        W31369  11.715  17.803  10.511  0.0470  0.1693  0.2199
13166W        W31370   4.702  16.297  12.156 -0.2699  0.1710 -0.2529
13167W        W31371  18.474   6.414  14.627 -0.0445 -0.0582 -0.1489
13168W        W31372   8.563   1.139   0.078  0.2433  0.1754  0.0715
13169W        W31373   7.504   7.552   2.978 -0.1957 -0.2533 -0.1748
13170W        W31374  17.089   8.307   2.955  0.1604 -0.1346 -0.2142
13171W        W31375   2.267   5.336  11.195 -0.0635  0.3452 -0.0269
13172W        W31376   1.313  11.987   1.245 -0.0065  0.0744  0.1486
13173W        W31377  14.624  15.533   4.771 -0.0085  0.2916 -0.2082
13174W        W31378   4.966   3.487  14.236  0.1180 -0.0880 -0.1635
13175W        W31379   9.532   0.775   4.963 -0.2582 -0.2194 -0.1709
13176W        W31380   8.956  18.386  13.482  0.0786  0.0883  0.4239
13177W        W31381  15.355  18.031  13.028 -0.1614  0.0668 -0.0783
13178W        W31382   2.186   1.062   3.167  0.1139  0.2255 -0.1096
13179W        W31383  15.813  17.648   1.314 -0.0573  0.0116  0.1365
13180W        W31384   2.384   6.661  12.341  0.1774  0.1810  0.2426
13181W        W31385  12.552   2.396   2.813  0.1175 -0.1881 -0.0573
13182W        W31386   6.746   7.463  15.212  0.4608  0.0178  0.4402
13183W        W31387  18.589   6.851   3.423  0.0192  0.1574 -0.0172
13184W        W31388  18.274   1.710  12.833 -0.0043  0.1312  0.0547
13185W        W31389   1.832   7.780   3.109 -0.0135  0.1283 -0.1014
13186W        W31390   2.656   4.530   3.860  0.0434  0.0119 -0.0578
13187W        W31391   7.678   7.773  13.420  0.1324  0.2046  0.1317
13188W        W31392   0.449  14.062  10.518  0.0259 -0.1524  0.0630
13189W        W31393   8.303  12.044   4.934  0.1158 -0.0410  0.2087
13190W        W31394   4.656   3.618   2.032  0.0946  0.0580 -0.0047
13191W        W31395   1.973  14.266   4.459  0.0824 -0.1037 -0.1261
13192W        W31396  10.232   9.083   3.080 -0.1373  0.1180 -0.4999
13193W        W31397   2.237  11.224   1.379 -0.0355 -0.2633 -0.0015
13194W        W31398   3.642  13.121  14.272  0.3299 -0.0938 -0.1149
13195W        W31399  18.234  17.264  13.260  0.3336 -0.0891 -0.4004
13196W        W31400   3.054   7.354   3.108 -0.0055  0.0739  0.3046
13197W        W31401   5.058   8.093   4.095  0.2198 -0.2640  0.1627
13198W        W31402  17.641   6.921  10.081  0.1920 -0.1050 -0.1317
13199W        W31403  17.312  13.518  14.005 -0.1916  0.3141 -0.1429
13200W        W31404  13.137   6.398   3.890 -0.1845 -0.0306  0.0789
13201W        W31405  16.618   3.790   3.590  0.0876  0.0433 -0.3881
13202W        W31406  10.273   2.680  12.725  0.1445 -0.1919 -0.0876
13203W        W31407  17.111  16.187   4.560 -0.2705  0.0888 -0.3793
13204W        W31408   7.382   6.941   3.942  0.1862  0.0455 -0.0618
13205W        W31409   3.921   3.112   3.447 -0.0881 -0.0609 -0.4430
13206W        W31410  12.379   7.203  12.873 -0.1387 -0.0591  0.0800
13207W        W31411  10.224  16.147   1.348 -0.1315  0.2463  0.1686
13208W        W31412  11.664   3.377   1.618 -0.0832  0.3346  0.2850
13209W        W31413   3.248   9.584   3.560 -0.3270 -0.0005  0.2224
13210W        W31414   9.811   5.752   1.916  0.0340 -0.2411  0.1988
13211W        W31415   8.898   2.936  13.092 -0.0887  0.0044 -0.3907
13212W        W31416   4.054  11.573   4.230 -0.0827  0.2426  0.1035
13213W        W31417  18.556   0.470  11.309  0.0373  0.0685  0.0517
13214W        W31418  15.210   2.734  13.269  0.2282 -0.3044  0.0167
13215W        W31419  12.168  10.755  12.239  0.0735 -0.0513 -0.4284
13216W        W31420   8.544   6.203   0.408  0.0621 -0.0798 -0.0247
13217W        W31421   4.646   2.354   4.309 -0.3330 -0.1328  0.1036
13218W        W31422   1.594   3.683   3.563 -0.1346 -0.2609 -0.3052
13219W        W31423   2.117   6.345  14.325  0.0712  0.1763  0.0848
13220W        W31424  10.325   7.364  10.093 -0.1635  0.0122  0.1447
13221W        W31425  11.897   5.797   1.123 -0.0012  0.1096  0.0802
13222W        W31426   0.950  11.123   1.504  0.2932  0.0643 -0.0729
13223W        W31427  13.817   1.368  10.955  0.2972 -0.4974  0.1739
13224W        W31428   2.816  16.294   0.065 -0.0474 -0.0553 -0.1214
13225W        W31429   3.695  15.252  11.177  0.0121 -0.2191  0.0138
13226W        W31430   8.544  12.326   2.305 -0.2637 -0.1723 -0.0486
13227W        W31431  16.091  15.441  15.100 -0.0447  0.1629  0.3372
13228W        W31432  17.661  15.554   2.062  0.0786  0.0257  0.3774
13229W        W31433   1.071   4.777  11.991 -0.1457 -0.0897  0.3241
13230W        W31434   9.433   3.630   1.552  0.1476 -0.3619 -0.2107
13231W        W31435  10.944  13.564   0.296 -0.0404 -0.1084  0.1372
13232W        W31436   8.159  16.335  14.435  0.2268 -0.0829 -0.0104
13233W        W31437   0.444  16.491   3.754 -0.0251  0.1864 -0.0377
13234W        W31438  18.534   5.921   1.024 -0.0548 -0.3033 -0.0220
13235W        W31439   4.284   1.087   0.307  0.1462  0.1004  0.0661
13236W        W31440   1.684   2.730  12.984 -0.0432  0.2063 -0.2257
13237W        W31441  14.590  15.006   1.992 -0.2431  0.0141  0.3609
13238W        W31442   2.900  13.853  12.784  0.2180 -0.0120 -0.0119
13239W        W31443   3.529  15.813  14.358  0.1693  0.1744  0.0001
13240W        W31444   0.880   5.660   0.982 -0.0112  0.0212  0.3303
13241W        W31445   8.351   2.244  14.073  0.0775 -0.0605 -0.0312
13242W        W31446   3.489   8.573   0.216  0.0837  0.3888 -0.0539
13243W        W31447   1.278   1.107  14.852  0.0616  0.1421 -0.1755
13244W        W31448  11.392  17.663  13.895 -0.1994  0.1827  0.1694
13245W        W31449   7.654   4.976   2.044  0.1879  0.0204  0.4132
13246W        W31450  16.452   4.783  13.983  0.1768 -0.0388  0.1959
13247W        W31451   3.390   6.339   2.269  0.1193  0.2608  0.0157
13248W        W31452   7.961   8.161  13.550 -0.0503  0.2409  0.1911
13249W        W31453  12.031   2.792   4.973  0.1674 -0.0218  0.0964
13250W        W31454  17.159   5.261  13.621  0.1850  0.1771 -0.1099
13251W        W31455   3.055  18.015  12.397 -0.0292 -0.0516 -0.2676
13252W        W31456   5.346  10.014  11.503 -0.2352 -0.0340  0.0170
13253W        W31457  14.680   7.916   5.006 -0.0958 -0.2288  0.2407
13254W        W31458  10.385   9.478  13.236  0.0183  0.0431 -0.1258
13255W        W31459   9.421   9.649   3.904  0.0302 -0.0285 -0.1514
13256W        W31460  13.357   1.525   4.590 -0.0394 -0.1175 -0.1279
13257W        W31461   6.194   5.861  14.659 -0.2924 -0.0833  0.0744
13258W        W31462   1.710  11.542   2.548  0.0894 -0.0063 -0.2287
13259W        W31463  14.774  14.478   1.556  0.0561  0.2300  0.1236
13260W        W31464   1.357  12.592  12.765  0.1978 -0.2104 -0.4188
13261W        W31465   1.171  10.562   1.711  0.1707 -0.3874  0.4029
13262W        W31466  10.410  16.115  13.040 -0.2085  0.0186 -0.1274
13263W        W31467  17.147   4.374  12.237  0.0899 -0.1202  0.0609
13264W        W31468  11.623   6.528   0.737  0.1148 -0.4593  0.2316
13265W        W31469   2.025  11.706  14.611  0.0521 -0.0489 -0.1599
13266W        W31470   9.233  12.335  12.809 -0.0807  0.1565 -0.0889
13267W        W31471   6.389   9.158  15.116  0.3408  0.0254  0.1105
13268W        W31472   3.030  12.409   1.433  0.0015 -0.0570 -0.0955
13269W        W31473   2.042   1.827   0.960  0.1913  0.0491  0.0649
13270W        W31474   4.728   7.231  13.883 -0.2500 -0.3279 -0.0491
13271W        W31475   7.982   1.222   2.565  0.2252 -0.0245 -0.0289
13272W        W31476   9.599  12.894   1.045  0.3444  0.7367  0.0688
13273W        W31477   6.970   5.505   1.491  0.0889 -0.3055 -0.1934
13274W        W31478  10.184   6.675  11.012  0.1990  0.1702  0.1245
13275W        W31479   2.837   1.720  12.210 -0.2738  0.0958  0.0677
13276W        W31480   0.034   5.662  11.666 -0.3090  0.3510  0.4407
13277W        W31481   5.950  16.421  14.015 -0.1066 -0.0671  0.1319
13278W        W31482   4.603   4.645   2.120 -0.0442  0.2330  0.2059
13279W        W31483  12.818   5.420   3.430  0.1404  0.0705 -0.0974
13280W        W31484   0.503  11.134  11.106  0.1695 -0.0137  0.0868
13281W        W31485   5.059  16.755  11.746 -0.2134 -0.0329  0.0640
13282W        W31486   1.430   7.009  14.360  0.1141  0.0657 -0.0513
13283W        W31487   4.735  17.882  11.770  0.3334 -0.0635  0.1969
13284W        W31488   8.373   0.849   3.288 -0.0096 -0.2476 -0.0481
13285W        W31489  13.584  15.671   3.381 -0.0309  0.2072 -0.0800
13286W        W31490  16.039  11.732  15.137 -0.2293  0.3654  0.0695
13287W        W31491   5.407  16.737   2.289 -0.0134 -0.3434 -0.0258
13288W        W31492   4.001   9.344  14.232 -0.2612  0.0671  0.2115
13289W        W31493   8.478   9.148  15.438 -0.3599  0.0493  0.1413
13290W        W31494  16.126  18.166  15.073  0.2043  0.1518 -0.1533
13291W        W31495   4.079  10.345  12.023 -0.1443 -0.0826 -0.2611
13292W        W31496   5.603   1.514  14.480  0.4131  0.0602 -0.0140
13293W        W31497   1.752  14.878   0.790 -0.2324  0.1019 -0.1527
13294W        W31498   8.151   4.893   2.028  0.0794  0.2324 -0.0580
13295W        W31499   1.404   4.286  13.176  0.1155  0.0590  0.1642
13296W        W31500   7.000  13.349  11.125 -0.2062  0.0145  0.1273
13297W        W31501   9.005   9.392  14.170 -0.0980 -0.0256  0.2644
13298W        W31502   3.040   2.963   0.095 -0.0634  0.2813  0.0218
13299W        W31503  12.121  11.686   4.925  0.0688  0.2014  0.0873
13300W        W31504   8.145  10.618  10.655  0.5391  0.2308 -0.2736
13301W        W31505  17.427  12.216  13.905 -0.1600  0.2025 -0.0052
13302W        W31506   8.233   4.220   1.152  0.0473  0.1722  0.2798
13303W        W31507  13.372   9.564  15.245 -0.2034 -0.3457 -0.0746
13304W        W31508   8.120   1.385  11.932 -0.1105 -0.0441  0.0806
13305W        W31509  12.277  16.251  12.976  0.2690 -0.1688 -0.4083
13306W        W31510  13.386   4.674  11.409 -0.1120  0.0922  0.0024
13307W        W31511   8.250  16.034   1.690 -0.0492 -0.1613  0.0357
13308W        W31512  13.481   1.403   0.167 -0.0679  0.2002 -0.0419
13309W        W31513  18.053   6.987  14.030 -0.1445 -0.2002 -0.2485
13310W        W31514  16.381   2.997   2.806  0.4891  0.1405  0.1042
13311W        W31515  16.518  11.047   0.745 -0.2605  0.2545 -0.0196
13312W        W31516  15.795   0.799   0.747 -0.1729 -0.1565  0.0335
13313W        W31517  18.406   1.711   2.517 -0.0287  0.0155 -0.1933
13314W        W31518   7.517   5.505   3.301  0.1933 -0.0874 -0.2918
13315W        W31519   3.268   2.032  13.973  0.0784 -0.1798 -0.0984
13316W        W31520  15.472   4.684   1.973  0.3156 -0.1287  0.4535
13317W        W31521  10.365  15.023  13.157 -0.1340 -0.1369  0.0565
13318W        W31522   9.047  13.775  12.172 -0.0633  0.3414 -0.3554
13319W        W31523   8.582   5.112  11.308 -0.3157 -0.1661 -0.1035
13320W        W31524   4.530  16.603  13.058 -0.2730 -0.1317  0.0014
13321W        W31525   8.825   5.398   1.661  0.2093 -0.0068 -0.1431
13322W        W31526   2.322  18.352  14.328 -0.1194  0.2289 -0.0601
13323W        W31527   5.028  10.838   1.471 -0.2182  0.3464  0.0189
13324W        W31528  15.148  15.507   0.111 -0.0535 -0.0532 -0.1481
13325W        W31529  18.106   1.687  11.369 -0.0988 -0.3960  0.2240
13326W        W31530   6.694  15.317   2.557  0.0215  0.0044  0.1648
13327W        W31531  17.354   3.290  12.955  0.0322  0.1271  0.0240
13328W        W31532   8.104  10.988   2.151 -0.1877 -0.1543  0.0279
13329W        W31533  12.243   1.899  14.249 -0.0965  0.0760  0.1612
13330W        W31534  13.922   5.143  14.697 -0.2660  0.2116  0.0979
13331W        W31535   5.816   6.379   3.294  0.4233  0.1110  0.2589
13332W        W31536   8.841   6.377   3.396 -0.4756 -0.0366 -0.1683
13333W        W31537  12.947  14.836   2.719 -0.1257  0.0475 -0.0177
13334W        W31538  14.357   6.923  13.237 -0.2700  0.2763  0.3134
13335W        W31539  12.060   0.282   0.718 -0.0947  0.0348 -0.3498
13336W        W31540   7.905  18.285   3.172 -0.1157 -0.1079  0.0328
13337W        W31541  16.984   0.816   2.618 -0.2434  0.1246 -0.0901
13338W        W31542  10.080  10.901  11.192  0.0782  0.2697 -0.3198
13339W        W31543   9.221   8.305  10.643 -0.2548 -0.2224 -0.0588
13340W        W31544  11.114   3.213   1.923  0.0289 -0.1597  0.2398
13341W        W31545   9.674   2.033  11.681  0.1183  0.1145  0.1084
13342W        W31546  18.620  16.530   0.679 -0.3190 -0.0907  0.1101
13343W        W31547   7.626  11.585   4.604  0.2682  0.2639 -0.3195
13344W        W31548   3.147  12.801   0.653  0.3081 -0.1920 -0.0003
13345W        W31549   4.565  17.846   2.745 -0.1143 -0.1032 -0.1348
13346W        W31550   4.570  13.002   2.904 -0.2079  0.0694 -0.0869
13347W        W31551   8.073  16.349   3.233  0.0371  0.0470 -0.1157
13348W        W31552  13.414   5.230  14.454  0.0098  0.0914  0.1515
13349W        W31553   7.275  16.295  14.774  0.3747  0.0046 -0.0316
13350W        W31554  13.765   0.777   2.547  0.1355 -0.0242 -0.2016
13351W        W31555  15.601  15.440  14.011  0.0112 -0.0070 -0.3651
13352W        W31556  10.874   4.438  14.738 -0.2635 -0.0405 -0.0122
13353W        W31557   9.930   6.139   1.568  0.2303  0.0558 -0.0016
13354W        W31558   7.793   7.146   0.845 -0.2184 -0.0621  0.0685
13355W        W31559   9.230  11.054   4.700 -0.0960 -0.1240  0.0647
13356W        W31560   4.493   4.425   3.212  0.1713  0.2047  0.0350
13357W        W31561   1.254   2.205   1.364  0.0543 -0.0661  0.1381
13358W        W31562   6.743  14.838  14.367 -0.2625  0.1539 -0.0180
13359W        W31563   7.946   7.613   3.292  0.1041  0.0567  0.1433
13360W        W31564   5.762   9.769  12.566 -0.2727  0.2742  0.0963
13361W        W31565  15.718  15.020  12.403 -0.2072 -0.0709  0.0661
13362W        W31566  13.975   0.371  12.190  0.2673 -0.2833 -0.0309
13363W        W31567  14.685   2.523   2.324 -0.0827  0.0577  0.2062
13364W        W31568   1.179  12.170  14.496  0.0265 -0.0388 -0.1543
13365W        W31569   4.012  16.718  14.645  0.0058  0.0284  0.1050
13366W        W31570  10.684   3.226  13.435  0.0660 -0.1387  0.0049
13367W        W31571   8.191   4.673  14.177  0.3526 -0.1084 -0.1851
13368W        W31572   7.050  11.200   2.243 -0.0362  0.1712 -0.0161
13369W        W31573   1.003   5.833  10.646  0.1850 -0.1691  0.0969
13370W        W31574  14.147  15.356  11.011 -0.1745  0.0076 -0.1218
13371W        W31575   0.241  14.453  12.399 -0.0126  0.0147  0.3634
13372W        W31576  18.456   1.460   0.855 -0.1267 -0.0629 -0.3098
13373W        W31577   3.774  17.456   0.520 -0.2748  0.4367  0.0152
13374W        W31578  14.427  14.662   3.787  0.1811  0.0348  0.0634
13375W        W31579   4.596  13.830  11.568  0.1168 -0.0776 -0.0803
13376W        W31580   0.102   0.066  10.433  0.1291 -0.0386 -0.1049
13377W        W31581   0.280  14.639  13.823  0.1769 -0.1368  0.2864
13378W        W31582  11.876  11.966  13.785  0.0991 -0.2619 -0.2644
13379W        W31583   3.559  13.305   0.678 -0.0372  0.0226  0.2550
13380W        W31584   9.247  12.596   1.867  0.3083  0.1172 -0.0232
13381W        W31585   7.898   4.849  15.050  0.1385  0.2309 -0.0243
13382W        W31586   8.661   3.119  14.953  0.1193 -0.0594 -0.0165
13383W        W31587   8.832   0.209  14.323  0.1508  0.3816  0.0544
13384W        W31588  14.127  17.510   3.002  0.1400  0.0569  0.1020
13385W        W31589   5.834  14.719   0.427  0.0975 -0.0147  0.2371
13386W        W31590  11.767   5.763   0.187 -0.0515  0.1153 -0.1724
13387W        W31591  13.668  10.804  13.295 -0.1116  0.1547  0.1087
13388W        W31592   5.601   2.068   0.298  0.0650 -0.1118  0.0788
13389W        W31593   1.402  16.328   0.445  0.2451  0.1324  0.0291
13390W        W31594   3.540   8.649   1.912  0.0259  0.2927  0.2045
13391W        W31595   8.896  15.793  13.226  0.2212 -0.0695 -0.1916
13392W        W31596  17.163   1.870   3.759  0.1688 -0.0704  0.0049
13393W        W31597  15.780  16.869  13.633 -0.4265 -0.4534 -0.2662
13394W        W31598   5.035  11.280   5.722  0.1543 -0.3205 -0.0269
13395W        W31599   8.450   5.817   2.284 -0.1847  0.1493 -0.0260
13396W        W31600   2.298   5.542   1.533  0.0546 -0.1467 -0.0317
13397W        W31601   9.958  15.989  14.333  0.2892  0.0302 -0.0054
13398W        W31602  11.252   2.094  10.239  0.2433 -0.0473 -0.1875
13399W        W31603   3.304  10.040   3.778  0.3875  0.0574 -0.2637
13400W        W31604   1.541  16.871  12.337 -0.1376 -0.0318  0.1549
13401W        W31605   7.021  11.362  12.782  0.0444  0.1431  0.1041
13402W        W31606  11.501  15.666   2.204  0.1981  0.2654 -0.1944
13403W        W31607   3.282   6.988  12.420 -0.0526  0.0004 -0.1208
13404W        W31608   6.470  14.540   2.483 -0.1226 -0.3304  0.0680
13405W        W31609   7.525   5.962   4.070 -0.3566  0.2478 -0.0665
13406W        W31610   7.104   9.348   1.247  0.0962  0.1235  0.0636
13407W        W31611  11.253   0.935  14.019  0.0563 -0.1334 -0.3651
13408W        W31612  14.149   2.609   0.906 -0.0950  0.1652  0.1475
13409W        W31613  12.589   3.335   1.984  0.0658  0.0192 -0.2425
13410W        W31614   8.778  13.345  15.290  0.1585  0.2898 -0.0110
13411W        W31615   8.289  12.236   0.671 -0.1297  0.1092  0.0621
13412W        W31616   7.410   3.997   1.040  0.0582 -0.4351 -0.0558
13413W        W31617  17.902  16.915  13.474  0.1873  0.1975  0.3815
13414W        W31618  15.308  18.603  13.793  0.2118  0.1632  0.2004
13415W        W31619   3.442  10.773  14.616  0.0769 -0.2319  0.1434
13416W        W31620  10.331  16.864  14.250 -0.1465  0.2005  0.0817
13417W        W31621   9.690  10.089   3.918  0.1544 -0.3196 -0.0886
13418W        W31622  18.499  14.304  13.852 -0.1148  0.2890 -0.2691
13419W        W31623   8.221  11.339  13.388  0.0467  0.0911 -0.1562
13420W        W31624  17.077   0.257  14.941  0.1409  0.0295  0.3177
13421W        W31625  13.280  10.871  13.584 -0.0974 -0.1632  0.0467
13422W        W31626  11.831   8.141  14.413  0.1647  0.0705 -0.3133
13423W        W31627  15.900   0.463  12.727 -0.0325  0.1491 -0.3326
13424W        W31628  11.963  16.029  12.062 -0.1462  0.0316  0.2260
13425W        W31629  15.041   4.516   2.280  0.2241 -0.2953 -0.1219
13426W        W31630   1.826   9.258  14.589  0.1799 -0.0803 -0.0670
13427W        W31631   0.999   7.973  10.505  0.1601 -0.0424  0.1675
13428W        W31632  13.268   4.673   9.980  0.3484 -0.0145 -0.0344
13429W        W31633   4.123   0.780   5.448 -0.2634 -0.3009  0.0243
13430W        W31634   3.067   7.566   2.635 -0.0172 -0.0384  0.3232
13431W        W31635  17.059   1.853   0.514 -0.3766 -0.1303 -0.1206
13432W        W31636   7.235   9.004  10.810  0.2827  0.2165  0.0531
13433W        W31637  12.706  11.443  12.398  0.0931 -0.0322  0.1487
13434W        W31638  10.685  18.371   2.639  0.1032  0.3052 -0.3447
13435W        W31639   9.056  13.585  14.376 -0.1358 -0.1517  0.0347
13436W        W31640   2.405  17.825  11.846  0.0044  0.0298  0.0508
13437W        W31641  17.813  13.331  11.731 -0.0258  0.0953  0.3151
13438W        W31642  10.110   2.229  13.604  0.1174  0.1584 -0.1244
13439W        W31643  15.931   2.281   0.238 -0.0178 -0.0777 -0.0265
13440W        W31644  10.769   8.906  10.721 -0.1323  0.0997 -0.1436
13441W        W31645  15.226  13.566   2.359  0.1129  0.5276  0.0122
13442W        W31646   0.486   7.375   5.221  0.0265  0.3800 -0.2242
13443W        W31647  10.021  12.713  11.712  0.2283 -0.3070  0.1034
13444W        W31648  12.288  16.817  11.617 -0.0239 -0.1462 -0.1332
13445W        W31649   4.823   3.411   3.558 -0.0964 -0.1355  0.2253
13446W        W31650  16.589   8.805  13.590 -0.1553 -0.1114 -0.0370
13447W        W31651   3.157  15.621   0.786 -0.1982  0.0674 -0.0541
13448W        W31652   6.096  15.150   2.801 -0.3030 -0.0329 -0.2741
13449W        W31653  17.388   5.772  14.489 -0.0009  0.0840  0.1008
13450W        W31654   3.090   9.679   4.033  0.0847  0.2030 -0.2040
13451W        W31655  13.797  12.643   2.762 -0.0221 -0.0974  0.2414
13452W        W31656   6.919  16.160  14.444 -0.3474  0.3058  0.1756
13453W        W31657  14.406   0.866  13.130  0.0520  0.0870 -0.1318
13454W        W31658   9.380  15.624  11.720 -0.0601  0.1091 -0.3054
13455W        W31659  17.732  14.825   0.040 -0.0895  0.1745  0.1688
13456W        W31660  12.689   4.270  11.759 -0.0617  0.0169 -0.0716
13457W        W31661   3.345  16.258   3.725 -0.1184  0.0899  0.1063
13458W        W31662   0.850   2.672  12.523  0.2244 -0.1998 -0.2309
13459W        W31663   7.978  15.141  13.541  0.1430 -0.1438  0.0417
13460W        W31664  11.058   9.992  13.690  0.6447  0.0470  0.0198
13461W        W31665   2.132   3.239  11.361  0.0491  0.3541  0.0633
13462W        W31666   9.141   2.064  14.861 -0.2025  0.0919 -0.0014
13463W        W31667   5.504  14.655   3.998  0.1830 -0.1944  0.2434
13464W        W31668   8.416   2.670  11.360 -0.0385  0.4137  0.1985
13465W        W31669  11.150  11.680   2.829 -0.1776  0.1716 -0.0018
13466W        W31670   4.518  10.421   2.243 -0.1469 -0.1729  0.1039
13467W        W31671   9.739   6.921  12.861 -0.1772  0.0112  0.0168
13468W        W31672   1.142   3.396  14.954 -0.1291 -0.1478 -0.1477
13469W        W31673  11.954  10.534  13.129 -0.4262 -0.4049 -0.5857
13470W        W31674   9.915  16.640   1.229 -0.2395  0.0175  0.1226
13471W        W31675  10.405   0.670  13.435 -0.1678  0.1083  0.1701
13472W        W31676  11.764   0.489   2.195  0.0466 -0.1193  0.2541
13473W        W31677  10.041  14.271  11.441 -0.0109 -0.1668 -0.1600
13474W        W31678   8.361   0.231  14.012  0.2227 -0.0435  0.1396
13475W        W31679  11.309  12.647   5.233  0.0536  0.0674  0.2309
13476W        W31680  11.777   4.542  11.578 -0.0513  0.3209  0.3595
13477W        W31681   4.378  18.059   3.192  0.0996 -0.0612  0.0323
13478W        W31682   1.789   4.009   0.364  0.0098  0.0603  0.1201
13479W        W31683   4.248  15.052   3.329  0.0578 -0.0850 -0.0430
13480W        W31684   6.224   9.426   2.195 -0.2182 -0.2724  0.1669
13481W        W31685   6.289   7.996   1.293 -0.2671 -0.3320 -0.0013
13482W        W31686   9.640  10.635  15.215 -0.2479 -0.1632  0.0444
13483W        W31687   1.578  13.858  12.588  0.2300 -0.3745  0.4186
13484W        W31688  16.388  14.811  13.580 -0.1024  0.0223  0.2916
13485W        W31689   7.557   7.854   2.478  0.1387 -0.1290 -0.2352
13486W        W31690   0.255   4.762  10.955  0.1846 -0.1255 -0.2179
13487W        W31691  13.341   8.942   4.075  0.3371  0.0484 -0.2736
13488W        W31692   2.086  14.390   0.634 -0.2638  0.2685 -0.1905
13489W        W31693   6.225   8.505  13.377  0.0763 -0.0847 -0.2486
13490W        W31694   6.607   7.077   0.999 -0.0879 -0.1136 -0.1950
13491W        W31695  17.454  16.412   2.186 -0.2146 -0.0927 -0.2022
13492W        W31696   2.322  13.460   3.020 -0.0532 -0.0406  0.1626
13493W        W31697   3.964  18.118  12.921 -0.0666  0.1125  0.1168
13494W        W31698   0.520  18.061  14.439 -0.0137 -0.0461 -0.2047
13495W        W31699   8.236   0.279   0.346 -0.2349  0.0451  0.1236
13496W        W31700   3.527   7.845   0.912 -0.0795  0.1157 -0.1754
13497W        W31701   4.114   2.916  14.252  0.0646  0.0002 -0.1616
13498W        W31702   1.070  18.074  14.036  0.1127  0.1998 -0.1192
13499W        W31703   3.042  16.721   3.812  0.0169 -0.0640  0.3403
13500W        W31704   1.724   9.101   3.538 -0.0797 -0.0065  0.1703
13501W        W31705  11.625  11.395   1.854  0.0307  0.0941  0.4151
13502W        W31706  15.561   7.892  15.023  0.0518 -0.2715 -0.4210
13503W        W31707   0.674   4.813  10.722  0.1281  0.3467 -0.0113
13504W        W31708  11.911   2.818  15.057 -0.0680 -0.4030  0.1353
13505W        W31709  18.381  12.713   2.410 -0.0256 -0.0865 -0.0545
13506W        W31710  17.062  10.424   0.802 -0.1347  0.0709  0.2387
13507W        W31711   0.227   2.997  12.878 -0.1281 -0.0260 -0.2964
13508W        W31712   2.334  15.096  14.833  0.0176 -0.2168  0.0954
13509W        W31713  16.065  11.269   0.945  0.1393  0.1199  0.5118
13510W        W31714  14.364  14.231   3.397  0.0172  0.0258  0.1319
13511W        W31715  14.411   4.191   3.054 -0.4069 -0.3351  0.0136
13512W        W31716   2.369   1.549   1.215 -0.3303  0.1249 -0.0020
13513W        W31717   3.546  10.216  13.259  0.0284 -0.0703  0.3776
13514W        W31718   6.132   0.110  12.626 -0.0998  0.2551 -0.3602
13515W        W31719  14.145   5.957   9.860 -0.0465  0.0429  0.1244
13516W        W31720   8.618  14.580   4.029  0.2134 -0.1713  0.0295
13517W        W31721  16.290  15.645   4.839 -0.3451  0.2816  0.0191
13518W        W31722   3.140   3.351   1.572 -0.2066 -0.1908  0.0695
13519W        W31723  12.111  15.026   0.416  0.2764  0.1387  0.1216
13520W        W31724  18.127   0.081   3.016 -0.0354 -0.0966 -0.0253
13521W        W31725   1.266  10.808  12.108 -0.0090  0.0890 -0.1227
13522W        W31726   1.138   2.409  15.378 -0.0141 -0.1256 -0.2693
13523W        W31727   4.314   2.997  14.793  0.3307  0.1584 -0.3969
13524W        W31728  15.533  12.965  11.509  0.0115  0.0838  0.0145
13525W        W31729   1.303   6.125  11.627  0.2849  0.1561 -0.0419
13526W        W31730  13.652   3.141  13.435  0.2485 -0.2125  0.0537
13527W        W31731   5.738   5.009   0.412  0.0398 -0.1600  0.0154
13528W        W31732  16.425   0.706   2.380  0.0406 -0.1313 -0.0400
13529W        W31733   2.610   4.612   1.631 -0.3538 -0.3693 -0.2346
13530W        W31734  11.002   9.121  11.115  0.0030  0.4026 -0.3804
13531W        W31735   6.725  10.874   2.423  0.2340  0.0075  0.0439
13532W        W31736   8.890   9.109   0.367 -0.1117  0.0045 -0.0619
13533W        W31737   9.841  10.672   0.734 -0.1438  0.0204 -0.0763
13534W        W31738   1.431   0.750   2.963  0.0160 -0.2289  0.0453
13535W        W31739  15.746   4.650   4.800  0.0429  0.0293  0.2875
13536W        W31740   0.665   3.719  13.043 -0.0446  0.1233  0.3212
13537W        W31741  13.432   4.916  14.090  0.0836 -0.0909  0.1161
13538W        W31742  12.044  10.123   3.850  0.1140  0.0515 -0.3890
13539W        W31743  14.598  10.742  11.893  0.1590  0.0639  0.3571
13540W        W31744   7.607   1.736   0.424 -0.1541 -0.1585 -0.0945
13541W        W31745  13.281   4.800   3.091 -0.0082  0.2070 -0.0617
13542W        W31746  10.680   6.135  14.404  0.1241 -0.1384 -0.0529
13543W        W31747   1.241   0.560  12.203  0.2020 -0.1442  0.0781
13544W        W31748  14.000   2.340   3.712 -0.0921 -0.0421 -0.0452
13545W        W31749   0.761  10.792  11.937 -0.2009  0.0019 -0.2003
13546W        W31750  18.568   2.141   2.310 -0.1772 -0.0112 -0.0838
13547W        W31751  14.543   7.134   1.680  0.3131 -0.0668  0.0261
13548W        W31752  18.396   7.322  13.118 -0.1105 -0.2264  0.0534
13549W        W31753   7.908   4.220  14.266 -0.0469 -0.0089 -0.1012
13550W        W31754  15.008  12.264  15.328  0.1892  0.0365  0.5288
13551W        W31755   2.678  16.278  14.483  0.0080 -0.1374 -0.1572
13552W        W31756   6.446   0.411   3.377 -0.0390  0.0674 -0.1120
13553W        W31757   2.449  14.234  11.685  0.2999  0.0029  0.1809
13554W        W31758  11.395  14.284   2.874  0.0195  0.1606  0.2971
13555W        W31759  16.247   7.390  14.283 -0.2726  0.0886  0.0744
13556W        W31760   4.320  16.235   0.271 -0.2696 -0.1945  0.0164
13557W        W31761  13.400   6.667   3.618 -0.2975 -0.0315  0.0995
13558W        W31762  11.184   2.465  12.370  0.0811 -0.1757 -0.0786
13559W        W31763  10.180  18.175   3.093  0.0378  0.1258  0.1468
13560W        W31764   8.476  12.541  12.667  0.1065 -0.3182  0.2155
13561W        W31765   9.074   7.414  10.610  0.2772  0.0703 -0.0461
13562W        W31766   2.976   9.731   0.611  0.0715  0.0162  0.2188
13563W        W31767   0.552   3.492   4.034  0.0223 -0.0223 -0.1298
13564W        W31768   9.929   4.033   2.116 -0.2803  0.2987  0.0843
13565W        W31769   2.538  17.172  12.389  0.0884  0.1280 -0.2734
13566W        W31770   6.888   9.605  13.736 -0.1877 -0.0423  0.2844
13567W        W31771   9.463  14.493  14.285 -0.1428  0.0142  0.0413
13568W        W31772   8.404  12.072  13.385  0.1639  0.0270 -0.1553
13569W        W31773   1.826   1.546  13.920  0.0648 -0.0607 -0.2439
13570W        W31774   0.172   2.813  12.065 -0.1161 -0.3228  0.0955
13571W        W31775  14.691   7.020  11.024 -0.2740 -0.1627  0.2536
13572W        W31776   8.010   0.146  14.488 -0.2797  0.2853  0.1568
13573W        W31777  14.917   8.766   0.560 -0.0259 -0.0530  0.0257
13574W        W31778   4.044   1.603   2.706 -0.0286 -0.1806 -0.3410
13575W        W31779  15.588   5.879  14.876  0.0277 -0.2818 -0.0421
13576W        W31780   4.171   1.725   3.314  0.5859 -0.2961  0.2509
13577W        W31781   9.961  12.886  13.059 -0.1865  0.4235 -0.0314
13578W        W31782   5.774   3.477   0.006  0.1208 -0.1326 -0.1681
13579W        W31783  16.843   1.200  12.819 -0.2133 -0.0279 -0.0756
13580W        W31784  10.589   8.266  14.786  0.1712 -0.0473  0.0983
13581W        W31785   7.613   3.288   3.524 -0.0553  0.1752 -0.0771
13582W        W31786   0.116   6.093  14.332  0.1166  0.0761 -0.2493
13583W        W31787  10.424  18.415   1.115  0.0574 -0.2099 -0.0743
13584W        W31788   9.924  10.413  13.912  0.1601  0.1952  0.0569
13585W        W31789   1.376  15.262  14.606  0.0632  0.2609  0.2944
13586W        W31790  13.170   7.506   1.679 -0.1518 -0.1188 -0.3327
13587W        W31791   0.143  16.837   1.572 -0.3876  0.1162 -0.0436
13588W        W31792   8.023  18.465  13.906 -0.1640 -0.1331 -0.0157
13589W        W31793   9.331   9.359  12.411  0.2556 -0.1543  0.1489
13590W        W31794  18.373   8.866   0.691  0.1725  0.1159  0.1094
13591W        W31795   2.404   8.581   3.056  0.3510 -0.0321  0.1836
13592W        W31796  10.502  16.060   1.783  0.0315 -0.0389 -0.1145
13593W        W31797   6.677  10.149   0.321 -0.0532 -0.2583  0.0035
13594W        W31798   6.331   2.529   2.573  0.1912  0.1081  0.0964
13595W        W31799  10.392  15.726  13.566  0.1047 -0.1027 -0.0942
13596W        W31800   4.450  14.851  14.035 -0.3520 -0.1729  0.0800
13597W        W31801   6.105   0.860  12.013  0.0473 -0.0117  0.1636
13598W        W31802  14.640  13.622  15.405 -0.1435 -0.1953  0.2505
13599W        W31803   4.364   5.544   3.464 -0.1461  0.1279 -0.0031
13600W        W31804   1.840   4.241  14.928 -0.0592 -0.0140 -0.1818
13601W        W31805  12.221  18.132  13.847 -0.0834 -0.4304  0.2806
13602W        W31806  16.790   9.561   1.981 -0.1899 -0.1077 -0.0298
13603W        W31807   2.638   7.182  10.916 -0.2257 -0.2138 -0.0513
13604W        W31808  11.036  17.067   0.286  0.1907  0.4468 -0.0408
13605W        W31809   8.477  17.809  12.971  0.0935  0.3547  0.1308
13606W        W31810   8.653  13.394  12.229 -0.1249 -0.2945 -0.0275
13607W        W31811   3.204  16.591  12.885 -0.2839  0.1932  0.0751
13608W        W31812  13.075   7.335   3.094  0.3731 -0.0442  0.3172
13609W        W31813   7.376   7.534   1.584  0.2289 -0.0856  0.1970
13610W        W31814  12.426   0.573   3.297  0.1174 -0.0134 -0.2221
13611W        W31815   9.282  11.340   1.057 -0.0179  0.1449  0.2601
13612W        W31816  15.067   2.726  12.163  0.1764  0.0367  0.1270
13613W        W31817   7.095  16.888   3.863  0.2145 -0.1085 -0.2464
13614W        W31818  12.681  16.588  12.856  0.0681 -0.0667 -0.2937
13615W        W31819   3.531   7.707  13.500 -0.2243 -0.0166  0.4291
13616W        W31820   0.655  15.563   2.633 -0.0758  0.2462  0.3086
13617W        W31821  11.243   7.385   1.812 -0.0650 -0.1214 -0.0993
13618W        W31822   6.877   9.634  14.256  0.2688  0.1187 -0.2296
13619W        W31823   7.715   3.185  13.865 -0.0760  0.0346 -0.1317
13620W        W31824   4.975   8.955   1.138 -0.1349  0.1528 -0.2098
13621W        W31825   1.702   5.102   2.253 -0.2597  0.0855  0.2111
13622W        W31826  12.954  13.376   3.174  0.1704  0.1717  0.4324
13623W        W31827  16.611  17.711  11.221 -0.0859  0.0421 -0.0659
13624W        W31828   9.127  11.775   0.737 -0.0655  0.2102  0.0054
13625W        W31829  14.618   8.047   2.160  0.0943 -0.1749  0.2038
13626W        W31830   1.603   6.317   2.672  0.1114  0.4117 -0.0517
13627W        W31831  16.567  10.259  11.839 -0.0400 -0.0584  0.1854
13628W        W31832  16.494  12.810  10.875  0.0794  0.4266 -0.1794
13629W        W31833  16.266  10.178   2.286  0.2740  0.0051  0.0858
13630W        W31834   6.980   2.238  14.267  0.0992 -0.1253  0.0809
13631W        W31835   6.020   0.784  13.153  0.3651  0.1574 -0.1451
13632W        W31836  15.961  12.210   0.607  0.1492  0.0987 -0.0015
13633W        W31837   0.571   7.829  13.749  0.0147  0.0923  0.0821
13634W        W31838   3.945   0.656  14.871  0.0501  0.2111 -0.1633
13635W        W31839   0.720   4.588  12.754 -0.2848  0.3696  0.2673
13636W        W31840   1.240  18.026   3.940  0.0597 -0.1295 -0.2238
13637W        W31841  13.182   8.605   4.991 -0.2730 -0.0963 -0.2247
13638W        W31842  17.662  12.005   0.223 -0.1849 -0.2370 -0.0390
13639W        W31843  10.995  18.130  13.423 -0.1428  0.0578  0.0148
13640W        W31844   1.567  15.110  11.135  0.1231 -0.0523  0.0833
13641W        W31845  11.050  10.637   0.560  0.0456  0.2414 -0.1658
13642W        W31846   7.643  11.814  12.934 -0.2671 -0.0295 -0.0494
13643W        W31847   2.544   8.160  12.190  0.0792  0.1969 -0.2260
13644W        W31848  13.960  13.770   1.595 -0.4453 -0.0419  0.2554
13645W        W31849  11.099   3.144  14.437  0.0001 -0.0919 -0.1409
13646W        W31850   1.571   8.901  12.801  0.1277  0.2106 -0.0302
13647W        W31851   3.180  10.987   1.084  0.0329  0.4108  0.1361
13648W        W31852   0.436   5.692   3.315 -0.1548  0.1900 -0.1220
13649W        W31853  17.204  14.395  15.386 -0.1685 -0.2572  0.0640
13650W        W31854   6.593  12.670  11.906  0.0751 -0.3068 -0.0743
13651W        W31855  14.329  13.745  11.166 -0.1002 -0.0047  0.0934
13652W        W31856   4.952  10.192   3.773  0.3326 -0.0535 -0.1084
13653W        W31857  15.682  17.524  11.637 -0.3475 -0.3412 -0.0147
13654W        W31858   3.301   9.034  10.895 -0.0045  0.1338 -0.2208
13655W        W31859   9.499   7.338   3.855  0.2318 -0.2332  0.1019
13656W        W31860  18.135   7.653  10.323  0.3203 -0.1219  0.0337
13657W        W31861  10.496   9.648   3.918 -0.0001 -0.1434  0.0182
13658W        W31862  10.943   2.794   3.378 -0.0144 -0.1751 -0.3375
13659W        W31863   7.566   7.711   0.010  0.0243  0.1440  0.2776
13660W        W31864   5.397  12.013  11.332 -0.3491  0.2774  0.0279
13661W        W31865   3.810   9.549  11.421  0.0646 -0.0802 -0.0801
13662W        W31866  13.579  14.218   2.534  0.2683  0.1694  0.0969
13663W        W31867   1.668  18.271   0.472 -0.0737  0.2069  0.3339
13664W        W31868  11.111   3.921  15.029  0.1823 -0.3715  0.0819
13665W        W31869  12.490   1.771  12.086  0.0913  0.1142  0.0964
13666W        W31870  16.791   0.295  12.488 -0.0223  0.1933  0.1889
13667W        W31871   7.699   9.221   1.024 -0.1763  0.0505 -0.1428
13668W        W31872  12.159   9.115   4.419 -0.0386 -0.0443 -0.0775
13669W        W31873   0.301  10.972   1.344  0.0307  0.2056  0.0842
13670W        W31874   2.410  11.919  14.798  0.1493 -0.1014  0.0306
13671W        W31875  18.475   5.518  12.492  0.0875 -0.1482  0.1367
13672W        W31876  17.854  17.193  14.363 -0.0315  0.0993 -0.1625
13673W        W31877   8.009   3.238   2.299  0.3361  0.0726 -0.2534
13674W        W31878   8.405   8.483  13.644 -0.0583 -0.0899  0.1341
13675W        W31879  10.038  12.745   3.587  0.2677  0.1372  0.2982
13676W        W31880   0.541  10.581  15.195  0.1014 -0.1072 -0.0224
13677W        W31881  17.806   6.963   0.345 -0.1251  0.1160 -0.1863
13678W        W31882  12.412  14.032  13.387 -0.2836  0.0130 -0.0663
13679W        W31883  15.990   8.819   5.406  0.0093  0.1352 -0.2731
13680W        W31884   5.982   7.012   2.187  0.0374  0.2369  0.1816
13681W        W31885   1.837   1.732  11.048  0.1708  0.0632  0.1146
13682W        W31886   1.323  13.252  15.281  0.1181  0.2017  0.1466
13683W        W31887  11.174  17.864  14.383 -0.3661  0.1746  0.1536
13684W        W31888  13.833   1.347   4.847  0.1049 -0.1677  0.0565
13685W        W31889   4.659  14.206   2.154  0.2797 -0.1476  0.1176
13686W        W31890  12.380  12.908   3.892 -0.0065  0.1889  0.0094
13687W        W31891   5.302  11.113   2.319  0.3537 -0.1352 -0.1192
13688W        W31892  16.683  13.656   5.656  0.0105 -0.0592 -0.1970
13689W        W31893   3.291   4.042   2.565 -0.0249 -0.2655 -0.1772
13690W        W31894   3.624  17.051   3.029  0.0582  0.2682 -0.2353
13691W        W31895  14.882  14.887  12.361 -0.0515  0.1433 -0.1561
13692W        W31896   0.250   0.298  13.828  0.0978  0.3217 -0.1008
13693W        W31897   0.228   3.522  14.959 -0.3310 -0.3409  0.3176
13694W        W31898   7.484   3.763  11.598 -0.0926 -0.0130 -0.0067
13695W        W31899  14.304  18.238   0.679 -0.0914  0.3842  0.0623
13696W        W31900  18.101   9.943   2.518 -0.1822 -0.0690  0.1012
13697W        W31901   2.599   2.897   4.688  0.0476 -0.1179 -0.0881
13698W        W31902  10.617   5.308   0.809  0.1372 -0.1444 -0.4846
13699W        W31903   3.033   5.760  13.339 -0.3258 -0.3748 -0.0462
13700W        W31904  18.498  15.309  14.553 -0.0332  0.2977  0.0411
13701W        W31905  10.616   6.708  11.270  0.0829 -0.1281 -0.0445
13702W        W31906   6.601  16.946   4.604  0.2381 -0.0556  0.3479
13703W        W31907  17.121   2.314  10.726 -0.3577  0.0760  0.1142
13704W        W31908  18.367  14.201  12.372 -0.0217 -0.3065  0.3412
13705W        W31909   7.054   8.766   2.104 -0.0545 -0.1696 -0.1717
13706W        W31910  11.043  13.227   2.131 -0.0878 -0.2281 -0.0718
13707W        W31911   2.435  15.471   1.222  0.0910  0.0956  0.0190
13708W        W31912   6.492   1.766   1.443  0.3840 -0.0101  0.1534
13709W        W31913   4.168  11.451   2.883 -0.1082 -0.1653 -0.0019
13710W        W31914  12.246  12.297  12.401 -0.4732 -0.1285 -0.0129
13711W        W31915   1.176   4.147   1.833  0.1129 -0.0559  0.0568
13712W        W31916  10.193  16.618   0.070  0.3780  0.0814 -0.0501
13713W        W31917   3.649  12.535   1.065  0.0591 -0.0429  0.0051
13714W        W31918   0.960   2.918  14.946 -0.0232 -0.0758 -0.1129
13715W        W31919   1.978   0.301   1.765  0.1018 -0.1695  0.0512
13716W        W31920   9.217   3.661   1.067 -0.2454  0.3108 -0.0517
13717W        W31921  12.748   7.252   0.380 -0.0486 -0.1905 -0.3921
13718W        W31922   4.058   1.592  15.146  0.5771  0.2981  0.0559
13719W        W31923   5.430  10.009  12.293 -0.1325 -0.0176 -0.1338
13720W        W31924   1.840  14.653   0.314 -0.1616  0.0187 -0.2606
13721W        W31925  12.387  11.959  14.080 -0.1002 -0.0462  0.2342
13722W        W31926   7.604   5.880   2.352  0.0459 -0.0245  0.1946
13723W        W31927  13.504   3.351  14.941  0.0514 -0.2387 -0.0375
13724W        W31928   2.800  14.811   1.118  0.2228 -0.4490 -0.0477
13725W        W31929  14.775   9.582   2.882  0.3344 -0.1528 -0.4263
13726W        W31930   0.843  10.905   2.947  0.0101 -0.0351  0.0303
13727W        W31931   9.765   6.968   2.738  0.0337 -0.1581 -0.1392
13728W        W31932   7.620   7.732   4.663  0.0596 -0.1540  0.1093
13729W        W31933  17.074   0.002   2.314  0.2043  0.1490 -0.3760
13730W        W31934  10.092   1.153  14.382 -0.1008 -0.0519  0.1122
13731W        W31935  13.089   8.023  13.225 -0.1001  0.4023 -0.0355
13732W        W31936  12.733  12.720  10.420  0.2522  0.1219  0.1998
13733W        W31937  17.759   7.965  15.070  0.4508 -0.1804  0.1884
13734W        W31938   4.123   6.365   2.334 -0.1235 -0.1291  0.2068
13735W        W31939   2.736  17.374   0.416 -0.2758  0.0761  0.3555
13736W        W31940   2.197  15.609  14.372  0.0038 -0.1651  0.1763
13737W        W31941   1.315  11.232  12.605  0.1042  0.0997 -0.0188
13738W        W31942  13.735  15.234   4.267 -0.1200  0.1313 -0.0128
13739W        W31943  16.477  15.773   0.503  0.0880  0.2023  0.2638
13740W        W31944   5.938   3.216  13.797 -0.1626 -0.0180  0.1122
13741W        W31945   1.756  13.154   2.453  0.1521  0.1212 -0.0345
13742W        W31946  13.556   0.664  13.909 -0.1027 -0.0341 -0.0845
13743W        W31947   8.008   6.238  12.562  0.0317  0.0386  0.0147
13744W        W31948   4.053  13.417   1.919  0.0826  0.1574 -0.1677
13745W        W31949   4.434  14.608   3.961 -0.0374  0.0182 -0.0906
13746W        W31950   6.672   5.941   3.511  0.2091  0.0960 -0.2605
13747W        W31951   6.717   8.161   3.483  0.2834  0.3089  0.3076
13748W        W31952  13.948   2.313  11.179 -0.3917 -0.0465 -0.0345
13749W        W31953   8.722   4.724  15.437  0.1345  0.0268 -0.1586
13750W        W31954   4.434   4.818  12.383  0.3050 -0.2118 -0.1777
13751W        W31955   3.292  12.382   2.596  0.0771  0.0831  0.0016
13752W        W31956  18.543  15.988  13.306  0.1586  0.1005 -0.5271
13753W        W31957  13.530   4.189  11.359  0.2628 -0.1979  0.3570
13754W        W31958   2.412   9.061  15.256  0.1737  0.0933  0.0906
13755W        W31959  18.094   9.747   1.566  0.3285 -0.0074  0.0561
13756W        W31960   2.878  10.830  12.845  0.0437  0.0058  0.2387
13757W        W31961  11.102  11.493  11.917  0.2640  0.3111 -0.0027
13758W        W31962   9.875   1.934   1.711  0.0474 -0.4241  0.0286
13759W        W31963  10.240  13.060   2.470 -0.2211  0.0786  0.0532
13760W        W31964   9.170   2.064   2.299  0.1755 -0.0641 -0.0361
13761W        W31965   7.111   5.244  13.890  0.1029 -0.1357  0.2295
13762W        W31966   7.397  14.516   0.992 -0.0560  0.0273  0.0307
13763W        W31967  14.824  12.693  14.856  0.0942  0.3925 -0.0333
13764W        W31968  18.098  18.367   2.602  0.0205  0.2652  0.1548
13765W        W31969   5.926   3.564  14.840  0.0772  0.3624 -0.1047
13766W        W31970   5.024  12.295  14.290  0.0574 -0.0765  0.1297
13767W        W31971   9.353   2.840   4.655  0.0753  0.0245 -0.1710
13768W        W31972   1.710  10.376   4.846  0.1297 -0.2877 -0.3610
13769W        W31973  11.615  13.053  13.494  0.0832 -0.0001  0.0397
13770W        W31974  14.354   3.206   1.970  0.2571  0.0819  0.0674
13771W        W31975  18.493  15.460  11.717 -0.0603  0.0665  0.1261
13772W        W31976   5.960  11.209   1.652 -0.1836 -0.0686  0.0973
13773W        W31977  11.752   4.356   1.380 -0.1974  0.2152  0.0932
13774W        W31978   9.389  12.006   3.956 -0.0522 -0.0926 -0.2187
13775W        W31979   8.320   5.352   4.218 -0.2003  0.1092 -0.0349
13776W        W31980  17.712   4.780   0.866 -0.1937 -0.0529  0.1543
13777W        W31981  11.133  16.614   3.841 -0.1424 -0.1328 -0.1088
13778W        W31982   8.415   3.235   2.812 -0.1158  0.1579 -0.0787
13779W        W31983   3.652  16.018   0.259 -0.0264  0.0559  0.0461
13780W        W31984  16.740   2.927   2.382 -0.2442 -0.2201 -0.0205
13781W        W31985  10.645   1.558   3.640 -0.2533 -0.0952 -0.0445
13782W        W31986   0.261   1.258   3.010 -0.0320 -0.2085 -0.0474
13783W        W31987   5.708   3.865  11.077 -0.1045 -0.1044  0.1035
13784W        W31988   2.979   2.620  11.718  0.0390  0.1043 -0.1916
13785W        W31989   8.133  15.906  13.001  0.1044 -0.0770 -0.1334
13786W        W31990  14.425   4.588  15.063  0.2057  0.0980 -0.0415
13787W        W31991   7.673  11.971   2.552  0.1079  0.2427  0.1254
13788W        W31992  11.889  17.304  14.871  0.1039 -0.0678  0.1282
13789W        W31993   7.101  17.595   4.605  0.1830  0.1921 -0.2160
13790W        W31994  15.258   8.066   2.592  0.1735  0.1383  0.0401
13791W        W31995   2.977   6.126  14.223 -0.2906 -0.1951  0.1515
13792W        W31996   0.720  11.683   1.552  0.0334 -0.1883 -0.0303
13793W        W31997   1.985   0.777   1.658 -0.2057 -0.0375 -0.1987
13794W        W31998  16.894   7.024   1.541  0.2650  0.0644  0.1271
13795W        W31999  10.795   4.849   3.497 -0.0372  0.1001 -0.0944
13796W        W32000   6.017  18.263  12.591  0.1375 -0.3588 -0.2112
13797W        W32001   4.985  14.212   3.418 -0.1270 -0.1075  0.1077
13798W        W32002   2.737   5.597   4.057  0.0191 -0.2570 -0.0819
13799W        W32003   0.256  15.081   2.708 -0.1438 -0.0745 -0.1082
13800W        W32004   8.698   3.777   3.373  0.2719 -0.2683 -0.1161
13801W        W32005  13.199   5.010   1.454  0.2211  0.1053  0.2230
13802W        W32006   3.321  15.971   2.622 -0.0619  0.0590  0.1725
13803W        W32007  16.393   1.467   1.772 -0.5245  0.0224 -0.1112
13804W        W32008  16.364  14.103   2.601 -0.4512 -0.0592 -0.0610
13805W        W32009  10.819  14.309   5.134  0.1906  0.2241 -0.0599
13806W        W32010  17.969   9.041  11.664  0.0445  0.0260 -0.1010
13807W        W32011   7.878  14.038   4.143  0.0175 -0.2346 -0.0606
13808W        W32012   2.926   6.301   3.105  0.1063  0.0291  0.1026
13809W        W32013   3.747   0.229  15.274  0.3652 -0.0377 -0.0890
13810W        W32014   5.544  16.370   1.987 -0.2869  0.0158  0.2136
13811W        W32015   7.700   8.427   1.691 -0.1349 -0.0005  0.1775
13812W        W32016  15.356   8.488  10.603  0.2189 -0.1220  0.0095
13813W        W32017  17.460  17.880   3.935 -0.0106  0.0070  0.0959
13814W        W32018  17.482   5.570   3.968  0.0892 -0.0949 -0.1011
13815W        W32019   7.414  18.145   1.089  0.2375  0.0097 -0.1600
13816W        W32020  10.292  12.869  12.123  0.4430 -0.0991 -0.2211
13817W        W32021  11.956   6.798  11.997  0.0313 -0.3394 -0.0241
13818W        W32022  16.179  12.562   5.352  0.0380 -0.0109 -0.2902
13819W        W32023  16.611  17.833   2.249  0.4868  0.0734  0.0247
13820W        W32024   7.089  15.199   0.307  0.1100 -0.0595  0.2327
13821W        W32025   3.136  16.991   2.987 -0.1374 -0.0373 -0.0651
13822W        W32026  17.031  14.870   4.900  0.0120 -0.2195 -0.4724
13823W        W32027  13.886  15.017  13.460 -0.2572  0.1567 -0.0739
13824W        W32028   2.883   8.830  13.785 -0.1364  0.0841  0.3183
13825W        W32029   3.922  11.343  12.673 -0.0463 -0.0856 -0.1861
13826W        W32030   2.583  10.218  14.622 -0.0637  0.2033  0.1368
13827W        W32031  13.143   3.173   4.199 -0.1568  0.0511  0.1803
13828W        W32032  14.471   8.644  14.300 -0.0155 -0.0573  0.0410
13829W        W32033  16.918  11.189  14.313  0.0131  0.2706 -0.0053
13830W        W32034  13.814  11.293   1.522  0.0062 -0.0937 -0.0285
13831W        W32035  12.732  11.840   1.114 -0.0132  0.1151 -0.3708
13832W        W32036  17.092  15.711  11.333  0.0706 -0.2882 -0.1318
13833W        W32037   2.389  13.182   0.627 -0.2292  0.2678  0.0259
13834W        W32038  15.733   6.832   1.199 -0.2392 -0.1112  0.1654
13835W        W32039   5.270   8.693  11.322 -0.2957  0.1295 -0.4036
13836W        W32040   5.155   5.412   1.182 -0.0061  0.2253  0.1511
13837W        W32041   3.101  12.975  14.049 -0.1788  0.1571 -0.0800
13838W        W32042   5.916   5.444   2.543  0.0472  0.0222 -0.0274
13839W        W32043  11.050   4.943   1.907 -0.0084  0.0442  0.0943
13840W        W32044  14.044   7.986  10.768  0.1224 -0.0115 -0.0646
13841W        W32045   7.870   4.508   3.070 -0.1150  0.1773 -0.1524
13842W        W32046   9.748  11.744   2.299  0.2310 -0.1264  0.0664
13843W        W32047   1.085   7.476  14.549 -0.0438 -0.1187 -0.3114
13844W        W32048  10.909   0.737  10.967  0.1426  0.1850  0.0241
13845W        W32049  13.716  11.264  13.729  0.2677 -0.0489 -0.0164
13846W        W32050   4.444   0.002   2.257 -0.3528  0.0115  0.2242
13847W        W32051   8.767  12.416  15.315 -0.1741  0.2667  0.5528
13848W        W32052  11.075  14.844   1.264 -0.0146 -0.0312  0.0078
13849W        W32053   1.945   1.609  14.425 -0.1732  0.1091 -0.1065
13850W        W32054   5.118  12.320   0.823  0.1140  0.1683  0.0133
13851W        W32055   6.319  11.827  14.670 -0.1300  0.2626 -0.2241
13852W        W32056   2.274  10.550  12.270  0.0954  0.1486 -0.2096
13853W        W32057   7.667  12.269   2.096 -0.0273 -0.0439  0.2048
13854W        W32058  11.571   2.875  10.284  0.0674 -0.2870  0.2725
13855W        W32059   5.109   5.473  10.451 -0.1092 -0.2711 -0.2639
13856W        W32060   4.275  17.543  12.698  0.1520  0.1464  0.0536
13857W        W32061  15.480  14.345  12.698 -0.1471 -0.0562  0.1072
13858W        W32062  15.833  18.446   3.145 -0.1732  0.1862  0.0363
13859W        W32063  17.144   4.108   3.428 -0.0838 -0.0244  0.0485
13860W        W32064   4.400  16.592   3.281 -0.3879 -0.0210 -0.1258
13861W        W32065   2.507   5.924   1.991  0.2479 -0.1630 -0.2688
13862W        W32066   6.610   7.469  12.677  0.1227 -0.1117  0.2291
13863W        W32067  16.245   9.193   4.150  0.0352  0.1758  0.0210
13864W        W32068  12.593   6.197  14.537 -0.0926 -0.0929  0.0604
13865W        W32069   4.165  16.548  10.715  0.0476 -0.0114  0.2666
13866W        W32070   4.889   8.141   0.612 -0.0433 -0.0229 -0.1596
13867W        W32071   6.214   0.587   1.940 -0.2083  0.2354  0.0955
13868W        W32072  10.714   7.549  14.069  0.0922  0.2003 -0.2040
13869W        W32073  15.302   9.309   4.390  0.0018 -0.1119  0.1840
13870W        W32074   3.309   7.439  13.830 -0.1501 -0.0369  0.0052
13871W        W32075   8.517   0.037  13.582  0.0356 -0.1162  0.0340
13872W        W32076   4.232   3.539   1.762  0.1745 -0.1134 -0.0770
13873W        W32077   6.834   0.747  15.124  0.1643 -0.0692 -0.1934
13874W        W32078  10.954  13.354   0.766  0.2640  0.1187 -0.1074
13875W        W32079  15.376   4.264   4.903  0.1863  0.1522  0.1558
13876W        W32080   4.629  18.518  12.333 -0.0855  0.1609 -0.1426
13877W        W32081  12.443   6.257   0.313 -0.2638 -0.2033 -0.0325
13878W        W32082   9.645  10.980   1.068  0.1357  0.0847 -0.0211
13879W        W32083   2.740  10.142   2.090  0.0821 -0.3670  0.3061
13880W        W32084  13.298   3.511   0.503  0.2656 -0.0476 -0.1435
13881W        W32085   0.631   0.909  11.151 -0.2066  0.0721 -0.0987
13882W        W32086   5.621  17.115  12.502  0.1015  0.2452  0.2780
13883W        W32087   6.997   8.702  13.872  0.1108  0.1651 -0.2101
13884W        W32088  17.212   7.984   2.580 -0.0836  0.0814  0.0995
13885W        W32089   4.065   2.454  14.698  0.1648 -0.3039  0.0326
13886W        W32090  10.331   9.856  14.410 -0.0324 -0.1791 -0.0245
13887W        W32091  15.558   1.031  13.988  0.2373 -0.1181 -0.0098
13888W        W32092   8.518   0.538  13.522 -0.2398  0.2050 -0.0371
13889W        W32093   8.317  18.366  11.921 -0.3604 -0.1166  0.1741
13890W        W32094   1.542   7.415  12.947 -0.3186  0.3303  0.0860
13891W        W32095  13.794   2.714   2.385  0.2989  0.2521  0.0046
13892W        W32096  12.984   3.388   1.726 -0.3175  0.1063  0.0983
13893W        W32097   7.321   6.039  13.704  0.1529 -0.3700 -0.0077
13894W        W32098   0.674  15.346  12.071 -0.2158  0.1704 -0.1980
13895W        W32099   0.569   6.153   2.208  0.0216  0.2706  0.0183
13896W        W32100   4.916  13.806   2.107  0.1051  0.4144 -0.3117
13897W        W32101   7.430   0.199  12.937  0.1156  0.0825  0.1122
13898W        W32102   2.996  16.058   2.114  0.1421  0.2620 -0.0178
13899W        W32103  11.369   4.434   2.593 -0.1466  0.0130  0.4374
13900W        W32104  16.336  15.328  13.388 -0.1959  0.2016  0.6626
13901W        W32105  10.108   1.778  15.125  0.3768  0.0159 -0.1379
13902W        W32106   8.894  17.790   3.628  0.0537 -0.2239 -0.1277
13903W        W32107  16.104   1.529   5.265 -0.2546  0.1715 -0.3462
13904W        W32108   3.622  14.005  12.098 -0.1397 -0.1383  0.0157
13905W        W32109   4.644  10.423  13.300 -0.0774  0.1737 -0.2579
13906W        W32110  10.006  16.429   3.215  0.1337  0.0161 -0.2922
13907W        W32111  16.169   2.969  11.454 -0.1317  0.1742 -0.0590
13908W        W32112   4.336  13.895  12.994  0.0609  0.1975  0.0399
13909W        W32113  15.318   7.590   2.667  0.2744 -0.2117 -0.0751
13910W        W32114   6.812   6.591  14.346  0.0165  0.0246 -0.5235
13911W        W32115  15.132   5.098  15.373  0.0754  0.1022 -0.0823
13912W        W32116  11.252   6.808   2.571 -0.0817 -0.0147  0.2546
13913W        W32117  10.616   3.716   4.123  0.2535 -0.1959 -0.0932
13914W        W32118  18.418  13.122  14.453 -0.2012  0.1760 -0.1803
13915W        W32119   6.166  16.257   2.895  0.0752 -0.0702  0.0393
13916W        W32120  12.801   3.757  14.298 -0.1073  0.1863 -0.0431
13917W        W32121   7.065  10.247   4.273 -0.0654  0.0044  0.0882
13918W        W32122  16.151  18.622  11.008 -0.0707 -0.1060 -0.1869
13919W        W32123  16.229   0.334  12.411  0.0825  0.0840 -0.2823
13920W        W32124  13.430   9.311   9.762 -0.0140  0.0320  0.0568
13921W        W32125  17.542  17.469   2.558 -0.1156  0.0644 -0.0789
13922W        W32126   3.152   7.059  10.698 -0.0592 -0.2103  0.2006
13923W        W32127  17.295  10.009   1.960  0.1451  0.0426 -0.0335
13924W        W32128   1.988   5.603   0.002  0.0261  0.1925 -0.3724
13925W        W32129   3.802   7.130   1.861 -0.0136 -0.0987 -0.2131
13926W        W32130  15.857  15.071   0.343 -0.2998  0.1469  0.4208
13927W        W32131  13.858  17.463   3.982 -0.1409  0.1675 -0.0786
13928W        W32132   7.040   0.900   2.921  0.4707 -0.4408 -0.0576
13929W        W32133   7.500  10.772   0.121 -0.1011 -0.2299  0.1588
13930W        W32134  11.096  13.776  13.206  0.0351  0.0509 -0.0146
13931W        W32135  10.854   2.930   1.528  0.0876 -0.0425  0.5612
13932W        W32136  10.493   2.042  15.277  0.2257 -0.1549 -0.4128
13933W        W32137   1.514  15.271   0.605 -0.0785  0.1883  0.0243
13934W        W32138  15.746   7.146   2.393  0.0566 -0.2964  0.0664
13935W        W32139   7.774   6.887   2.610 -0.0946 -0.3880  0.3675
13936W        W32140  16.426   9.029  11.811 -0.2139  0.2905  0.3388
13937W        W32141  10.150  17.709   2.822 -0.0597 -0.0338 -0.1514
13938W        W32142  17.801  12.409  13.600 -0.0961 -0.4018 -0.0006
13939W        W32143  18.363   6.450   4.670 -0.0666 -0.4684 -0.2886
13940W        W32144   8.260   0.815   1.671 -0.0810 -0.1905 -0.0072
13941W        W32145   4.915   1.186  10.094 -0.0649 -0.2667  0.2388
13942W        W32146   5.766   8.698   2.674 -0.0316 -0.1224  0.1967
13943W        W32147   5.769  13.126   3.603  0.1819  0.1566  0.3392
13944W        W32148   5.926  11.698   3.466  0.1338  0.3526  0.0228
13945W        W32149  13.566  10.728  12.811  0.1138 -0.1271 -0.0673
13946W        W32150   9.383   2.673   2.038 -0.3256  0.0668  0.2552
13947W        W32151   8.864   3.806  12.901  0.1880 -0.1362  0.0928
13948W        W32152   5.708   5.725   3.857 -0.3302 -0.2295  0.0719
13949W        W32153  10.062   7.902   0.213  0.0210  0.1038 -0.0945
13950W        W32154   2.608   2.747  13.984 -0.1721  0.0592 -0.1371
13951W        W32155   9.356   0.642   3.941  0.1513 -0.0195 -0.2012
13952W        W32156  15.363  13.372   4.750 -0.2610 -0.1672  0.1805
13953W        W32157   7.378  13.552  11.456 -0.0248 -0.1428  0.1583
13954W        W32158  12.577  16.700  10.655 -0.1775  0.0458 -0.0140
13955W        W32159   3.121  16.902  13.309  0.1559  0.0218  0.1896
13956W        W32160  18.194  10.001  11.722 -0.0975 -0.2689 -0.3127
13957W        W32161   4.412  13.926   0.788 -0.1058  0.0669  0.2020
13958W        W32162  14.723  13.920   3.710 -0.0962  0.0825  0.1229
13959W        W32163  15.468  12.826  13.615 -0.1319 -0.1797 -0.0781
13960W        W32164   5.348  18.133  12.035 -0.1886 -0.0998 -0.0466
13961W        W32165   0.017   2.672   3.364  0.0400  0.1984 -0.1808
13962W        W32166  11.602   7.210  11.704  0.0014 -0.3458 -0.0592
13963W        W32167   8.851  18.332   2.723  0.0392 -0.1583  0.0011
13964W        W32168  15.858  17.901  13.034 -0.2428 -0.2637  0.0914
13965W        W32169   7.403   5.478   3.964  0.0039  0.0496  0.1284
13966W        W32170   5.905  17.691  13.535  0.0264  0.0859 -0.1042
13967W        W32171   0.378  13.586  12.980 -0.0836  0.0745  0.1664
13968W        W32172   7.238   3.655  14.294 -0.1406  0.0943  0.0081
13969W        W32173   4.608   8.204   3.864  0.2860 -0.0857 -0.0208
13970W        W32174   5.379  18.056   4.038 -0.0659  0.1092  0.2530
13971W        W32175   1.975  10.423   2.517  0.0229  0.3209  0.3426
13972W        W32176  15.433   6.403  14.937  0.0412 -0.0410 -0.0997
13973W        W32177   2.959   1.352  11.687 -0.2422 -0.1200  0.0654
13974W        W32178   4.830   5.324  15.437  0.1207 -0.0953  0.4365
13975W        W32179   5.977  14.191  14.689 -0.1627  0.0142 -0.1223
13976W        W32180   2.778  10.609  12.319  0.0820  0.1437 -0.0249
13977W        W32181  15.701   2.912  12.858  0.0128  0.2353  0.1421
13978W        W32182   1.409  16.087  13.160  0.2731  0.1544  0.3459
13979W        W32183   0.954   9.541  11.013  0.1504  0.4534  0.1010
13980W        W32184  18.356  13.719   0.453 -0.0937 -0.3038 -0.0763
13981W        W32185  12.346   6.059  11.643 -0.0334  0.1372 -0.0429
13982W        W32186  15.075   0.901  14.382  0.0769  0.3207 -0.1281
13983W        W32187  14.244   5.249   1.691 -0.2986  0.0417  0.0196
13984W        W32188   4.894   2.461   2.325 -0.0953  0.0075  0.0356
13985W        W32189   5.159  17.457  10.203  0.4466  0.0235 -0.0012
13986W        W32190  13.873  17.444   2.002  0.3113  0.0142 -0.3537
13987W        W32191   5.012  17.754  14.342 -0.2631 -0.0309  0.0230
13988W        W32192   8.353  12.857   2.075  0.2353  0.0991 -0.0425
13989W        W32193   0.484  18.247   0.599 -0.0760  0.0299  0.0805
13990W        W32194  14.935  13.490  14.995  0.1144 -0.0026  0.1708
13991W        W32195  17.570   2.310  10.503 -0.3059 -0.1489 -0.1903
13992W        W32196   4.285   6.672  12.655  0.1550  0.0339 -0.0876
13993W        W32197   8.631   1.056  13.606 -0.2496 -0.1123 -0.1571
13994W        W32198  10.576  16.992  13.834  0.0209 -0.1203  0.0918
13995W        W32199   6.295  11.504  15.144  0.1983  0.2331 -0.1143
13996W        W32200   7.823   0.974   1.826 -0.1739  0.0159 -0.0278
13997W        W32201   3.432   3.460  15.157 -0.2162 -0.0306 -0.0868
13998W        W32202  17.661   5.090   1.911  0.0131 -0.1526 -0.0283
13999W        W32203   8.829   1.920  13.942 -0.1683  0.0467  0.0029
14000W        W32204  18.453  12.875  11.006 -0.2368  0.0021  0.0252
14001W        W32205  16.054   6.345   1.203 -0.1898 -0.2722 -0.0105
14002W        W32206  16.746   5.976  15.449 -0.0181  0.0512  0.0968
14003W        W32207  17.299  15.702   0.084 -0.1640  0.0821  0.0343
14004W        W32208  14.206   6.639   3.196 -0.2794 -0.2779 -0.2298
14005W        W32209   5.959   3.723   2.960  0.1315 -0.0246 -0.0079
14006W        W32210   2.160   8.407  13.311  0.1822 -0.1374  0.0029
14007W        W32211   6.664   6.054  10.858  0.1147  0.0441 -0.0089
14008W        W32212  14.176  13.900  14.591 -0.0400 -0.0727 -0.1054
14009W        W32213  11.217  14.479  13.560  0.2929 -0.1566 -0.2624
14010W        W32214   0.530  11.127   0.491 -0.0935 -0.0935 -0.0640
14011W        W32215   4.373  12.378   3.073 -0.5002 -0.1666  0.1661
14012W        W32216  11.181   6.287   0.713  0.0894 -0.1235 -0.0152
14013W        W32217   2.038   2.655  13.545 -0.0465 -0.5839 -0.0021
14014W        W32218  15.655  18.131   2.172  0.0666  0.0298  0.0366
14015W        W32219  17.097   3.116   0.180 -0.2695 -0.0225 -0.1620
14016W        W32220   2.643  15.837  13.500  0.0419 -0.1031 -0.0821
14017W        W32221  17.065   1.272   3.810 -0.2673 -0.3199  0.3338
14018W        W32222   2.379   7.662   1.877  0.1265 -0.1062  0.0624
14019W        W32223  17.073   1.205  14.816  0.0681  0.1823  0.0752
14020W        W32224  14.681   7.467  15.225 -0.2818  0.0940  0.0289
14021W        W32225  12.561  14.136  14.946 -0.0308 -0.0969 -0.0851
14022W        W32226   9.147  16.197   1.458 -0.1167 -0.0113  0.3121
14023W        W32227   2.860  17.612   1.299 -0.0429  0.1406  0.0676
14024W        W32228  15.419   8.827  10.276 -0.0147  0.3283 -0.2031
14025W        W32229  16.496  11.096   2.645  0.0673  0.1469  0.4259
14026W        W32230  17.880  10.150   0.608  0.6515 -0.0306 -0.1592
14027W        W32231   8.593  12.758   3.153  0.0055 -0.0025  0.2632
14028W        W32232   9.156  16.674  12.552  0.1699  0.2332  0.1058
14029W        W32233  15.222  12.587   0.456  0.1306 -0.1116  0.0183
14030W        W32234   0.502  12.256  15.117  0.1978  0.1695  0.0608
14031W        W32235   3.255  14.833  11.898  0.0679  0.0358  0.2441
14032W        W32236   8.942  18.564  12.506 -0.0267  0.1374 -0.2834
14033W        W32237  12.453   4.318  12.639  0.2057  0.1535  0.0996
14034W        W32238  10.041   1.067  12.891 -0.0620  0.3936  0.0188
14035W        W32239   5.780  17.619   3.109 -0.1516 -0.2207 -0.1699
14036W        W32240   9.166  13.509   2.961 -0.0886  0.0118 -0.0984
14037W        W32241   6.201  16.680  11.660 -0.1112 -0.0671  0.0270
14038W        W32242  18.273  18.216   1.706 -0.2000 -0.2291 -0.2745
14039W        W32243   2.189   4.539  14.630 -0.3286 -0.2968 -0.1742
14040W        W32244   2.076  14.790  14.164 -0.2790 -0.0828  0.2216
14041W        W32245  14.748  16.024  12.891 -0.1544 -0.1512  0.0323
14042W        W32246   3.659  17.048  11.729 -0.1967  0.2751 -0.2071
14043W        W32247  17.676   1.425   1.701 -0.4262  0.3624  0.0486
14044W        W32248  18.016  10.395   2.978 -0.3554 -0.1945 -0.3266
14045W        W32249   8.727  15.539   4.747 -0.0457 -0.0305 -0.0209
14046W        W32250   1.025   0.563   2.541  0.1345 -0.0503 -0.0098
14047W        W32251  12.748  17.780   2.383  0.0478 -0.2614 -0.0882
14048W        W32252   9.869  10.134  15.265  0.3000  0.1764  0.0005
14049W        W32253   3.061  11.515   0.240 -0.0250 -0.3729 -0.3927
14050W        W32254   7.351   8.494  11.027 -0.0931 -0.0578 -0.2925
14051W        W32255   5.487   4.898   2.346  0.0102  0.1063  0.2534
14052W        W32256   9.209  13.610   1.577  0.0397 -0.2948 -0.1081
14053W        W32257  11.266  17.221  12.551 -0.4030 -0.1649  0.2919
14054W        W32258   1.227  13.431   3.052 -0.2114  0.0695 -0.0571
14055W        W32259   0.020   5.328   2.127  0.0385 -0.5175  0.3512
14056W        W32260   2.911  13.712   1.791 -0.3188 -0.1553  0.2865
14057W        W32261   9.253  15.636  15.026 -0.1133  0.0722  0.1044
14058W        W32262   2.357   6.269   0.480 -0.0893  0.1488  0.1714
14059W        W32263  15.879   8.187   3.229  0.0597  0.1459 -0.4286
14060W        W32264  15.801  13.017   0.810 -0.2856 -0.2340 -0.1513
14061W        W32265   7.197  18.413  11.826 -0.0606  0.0063  0.1672
14062W        W32266  17.198  11.319   1.928  0.0697  0.1957  0.4197
14063W        W32267  10.066   0.915   4.485  0.0006 -0.0475 -0.0274
14064W        W32268   7.391  13.940   0.974  0.1160 -0.1815 -0.2989
14065W        W32269   0.723   5.375  14.530  0.0166  0.1905 -0.0105
14066W        W32270  17.607  12.890  11.403 -0.2772 -0.0692  0.2863
14067W        W32271  14.145  14.151   2.022  0.1431  0.0327  0.1676
14068W        W32272   6.321  15.755   1.814 -0.1725  0.2011  0.2205
14069W        W32273   5.430   4.069  11.507  0.1760 -0.0233  0.4028
14070W        W32274   6.940   5.790   1.084  0.0859  0.0274  0.0046
14071W        W32275   9.279  17.418  14.454 -0.1343  0.2056  0.2478
14072W        W32276   6.646  16.907   4.070 -0.0657  0.0483  0.1901
14073W        W32277  17.462  16.126  15.200  0.1166 -0.0573 -0.0995
14074W        W32278  14.420  17.054   0.812 -0.2072  0.0635  0.0757
14075W        W32279   4.615  12.790  11.432  0.2073  0.1757 -0.1886
14076W        W32280   7.429   9.301  11.107 -0.1432  0.0200 -0.1098
14077W        W32281   0.672   1.002  14.635  0.3133 -0.1808 -0.1100
14078W        W32282   9.966  11.181  14.623 -0.1616  0.2450 -0.0644
14079W        W32283   2.559   7.467   2.757 -0.0011 -0.4011 -0.2308
14080W        W32284   1.487  11.492  13.778 -0.1848  0.3617  0.1934
14081W        W32285  12.966  15.454   0.360  0.3526 -0.0231 -0.0512
14082W        W32286  14.260   2.119   4.629 -0.0878 -0.2211  0.0058
14083W        W32287  18.148  14.639   0.191 -0.1913  0.1878 -0.1139
14084W        W32288   7.114  16.586   3.470 -0.0083 -0.0118 -0.1474
14085W        W32289   9.398  10.260   2.056  0.1499 -0.0883 -0.0860
14086W        W32290  14.070  12.230  12.771  0.2362  0.3451  0.0294
14087W        W32291  13.274  17.169   0.407 -0.2776 -0.1446  0.1190
14088W        W32292   7.432   4.526  13.484 -0.1155 -0.1048 -0.0362
14089W        W32293   4.538   4.520   2.643 -0.2350 -0.0446  0.4211
14090W        W32294   7.400  18.253  15.163 -0.0213 -0.0724 -0.1847
14091W        W32295   2.838   9.956  14.976  0.1871 -0.0987  0.2735
14092W        W32296   0.194  16.654  12.045  0.4193 -0.1343 -0.2125
14093W        W32297   1.440   8.431   1.125  0.1489 -0.2774  0.0264
14094W        W32298   6.107   7.234  14.348 -0.3344  0.0402 -0.0564
14095W        W32299   9.197   8.760  12.303 -0.0476 -0.2411  0.0998
14096W        W32300   2.482   4.793   3.469  0.0083 -0.3221  0.3452
14097W        W32301   6.263  14.952   3.814  0.1119  0.1254  0.1093
14098W        W32302  13.770   0.553   3.226  0.1101  0.0763  0.1072
14099W        W32303  18.393   8.489  12.095  0.0053 -0.2209 -0.2042
14100W        W32304   5.950  12.660   3.436  0.1376 -0.1039  0.4144
14101W        W32305   2.669   2.603   3.836 -0.0643 -0.0535  0.1103
14102W        W32306   0.453  17.353   0.766  0.3701  0.2270 -0.0185
14103W        W32307  15.233  16.161   0.608 -0.3402  0.2218  0.0408
14104W        W32308   3.342  14.000  11.077  0.3095  0.2337  0.0276
14105W        W32309   2.945   0.727   1.480  0.0017  0.1030 -0.0345
14106W        W32310   1.501  10.144  13.517  0.1221 -0.2446  0.0863
14107W        W32311   7.822  17.292  12.153 -0.0738  0.2186 -0.1069
14108W        W32312  12.334  13.321   4.281 -0.0485 -0.0139 -0.0587
14109W        W32313  11.594  16.622   1.610  0.3189  0.1363 -0.0960
14110W        W32314   7.260  17.855  12.726  0.0551  0.0114  0.1527
14111W        W32315   9.727  11.910  13.873 -0.1562 -0.1696  0.1930
14112W        W32316  12.930  14.522  14.783  0.0266  0.0204  0.3093
14113W        W32317   0.633   8.083   2.446 -0.0903 -0.0970 -0.4238
14114W        W32318  12.019  15.024   4.681  0.3991 -0.0600  0.2467
14115W        W32319  17.660  12.017   0.722  0.0349 -0.1552  0.2353
14116W        W32320  15.527   0.119  14.246 -0.1886 -0.0464  0.0090
14117W        W32321   3.798   9.272  10.697  0.0453 -0.1473  0.0529
14118W        W32322  17.734   5.380   2.471  0.1142  0.0746 -0.3126
14119W        W32323   0.152   8.139  10.741  0.1227  0.1169  0.3823
14120W        W32324   0.171  10.941  13.753 -0.1359  0.0496  0.3229
14121W        W32325   3.134   0.607  15.359  0.2208  0.4872  0.1003
14122W        W32326  18.414   9.382  10.194  0.1069  0.0942 -0.2937
14123W        W32327  13.735   6.561   0.992  0.0867 -0.0915  0.2518
14124W        W32328   2.198   4.249   2.405 -0.0515  0.4284  0.0510
14125W        W32329  11.876   5.050  11.656 -0.0324  0.0962 -0.0938
14126W        W32330  14.053   0.112   1.952 -0.2261 -0.0596  0.2673
14127W        W32331   9.289   7.968  15.138  0.0996 -0.2038 -0.0255
14128W        W32332   7.260  13.817   0.050 -0.0029  0.0257  0.1468
14129W        W32333   9.490   9.610   0.688  0.1237  0.0557 -0.1374
14130W        W32334   8.045   9.305  15.202 -0.0484 -0.2763  0.0549
14131W        W32335   3.248  17.200   3.896 -0.1154 -0.3128  0.1235
14132W        W32336  13.618   4.799   2.355  0.0091  0.3878 -0.1626
14133W        W32337  10.278   6.010  14.130 -0.1159 -0.2072 -0.1280
14134W        W32338  12.280  12.605   1.620 -0.0945  0.1424 -0.2656
14135W        W32339  17.441  12.056   3.390  0.0968  0.0920  0.2603
14136W        W32340   4.767   6.923   4.293 -0.1019 -0.0008  0.1705
14137W        W32341  13.236  14.182   1.578  0.0619 -0.0256  0.0329
14138W        W32342  16.059   6.740  14.250 -0.0826 -0.1605  0.1271
14139W        W32343  14.840  11.615   1.814  0.1203  0.1291  0.1734
14140W        W32344   3.475  12.323   3.611 -0.2636 -0.2537  0.1745
14141W        W32345  17.441  17.372   3.788  0.0152  0.1607 -0.0547
14142W        W32346  10.760  12.322  15.295 -0.1233 -0.1351 -0.0582
14143W        W32347  12.372  11.923  12.849 -0.1686  0.0039  0.3396
14144W        W32348  13.589   8.115   4.146 -0.2393 -0.2242  0.1127
14145W        W32349   5.690   9.399  14.895  0.3268  0.2002  0.2777
14146W        W32350  13.411   5.400   4.266 -0.3362  0.1442  0.0792
14147W        W32351  18.059   8.299   2.523 -0.2834 -0.1695  0.0203
14148W        W32352  11.551  15.115   2.810 -0.0158  0.3411  0.0691
14149W        W32353   9.759  12.272   3.757  0.0648 -0.0842 -0.0907
14150W        W32354   3.226  14.076   0.076  0.3514 -0.3093  0.1318
14151W        W32355  16.461   1.513   4.410 -0.1421 -0.0069 -0.0809
14152W        W32356   7.306  12.400  10.766 -0.1566  0.3755 -0.0763
14153W        W32357  13.243  14.949   1.037  0.0690 -0.0162  0.0052
14154W        W32358   7.566   4.481   5.389 -0.0548  0.0666 -0.1055
14155W        W32359  10.544  17.446  11.233  0.0435  0.1242  0.1461
14156W        W32360   8.975   6.625   2.426 -0.1373  0.1592  0.0014
14157W        W32361  17.307  16.203  13.522 -0.1885  0.2228 -0.1437
14158W        W32362  12.729   3.315   2.555 -0.1989  0.0576 -0.1565
14159W        W32363  11.931  15.595   4.713  0.0439 -0.1114 -0.0544
14160W        W32364  13.237  16.718   2.326  0.0776 -0.1440 -0.0037
14161W        W32365  14.265   5.325   2.344 -0.3058 -0.0401 -0.1177
14162W        W32366   3.025   1.496   1.735  0.2028 -0.1224 -0.3068
14163W        W32367  13.981  18.248   4.675 -0.0449 -0.0149  0.2612
14164W        W32368  18.109   4.825  15.113 -0.2160 -0.1908  0.3360
14165W        W32369  17.038  13.483  14.486  0.2055  0.0819  0.2134
14166W        W32370   2.730  18.084   2.964  0.0665 -0.2555 -0.3529
14167W        W32371   4.364   8.818   0.633  0.3313  0.0441  0.3727
14168W        W32372   9.099   4.230  10.291 -0.1385 -0.3799  0.1620
14169W        W32373   6.436   3.706   3.414  0.0674 -0.1759  0.2675
14170W        W32374  11.524   2.705   4.620  0.2954  0.3589 -0.2038
14171W        W32375  10.169   8.303   3.738 -0.1292 -0.2070  0.0478
14172W        W32376  16.400  16.288  14.634 -0.1373 -0.0448  0.0708
14173W        W32377   4.368  17.118   5.690  0.1012 -0.0979  0.0043
14174W        W32378  15.050   7.549   3.102 -0.3399 -0.5139  0.1007
14175W        W32379  17.998  15.087   0.370 -0.2947  0.1371 -0.2326
14176W        W32380   4.940  13.300   0.862  0.4735  0.1682 -0.0553
14177W        W32381   7.305   2.290   3.872  0.0110  0.2724  0.0867
14178W        W32382  18.224  12.344  15.043  0.2259 -0.0837  0.0314
14179W        W32383  14.362  16.737  14.806  0.0245 -0.3823  0.0938
14180W        W32384   6.926   1.119  14.128  0.0696 -0.0182 -0.2029
14181W        W32385   0.636  15.767  11.167 -0.4460  0.2628 -0.0449
14182W        W32386  15.014   5.335   0.338  0.0495 -0.0268  0.0764
14183W        W32387   1.416   0.628   3.450 -0.0622  0.1594 -0.2120
14184W        W32388  15.470  18.082  13.897 -0.1730  0.0505 -0.0390
14185W        W32389   7.302   2.707  12.372 -0.1875 -0.1223 -0.2309
14186W        W32390   6.000  13.257   4.165 -0.0867 -0.1539 -0.0827
14187W        W32391  15.151  15.732   2.095  0.3301  0.0973  0.0964
14188W        W32392  12.908  15.132   0.721 -0.1937 -0.0451  0.0305
14189W        W32393  17.899   7.949  12.548 -0.0826  0.1034  0.0084
14190W        W32394  16.111  14.995   1.308  0.0926 -0.0806 -0.1270
14191W        W32395  16.192   7.088   2.601  0.1936 -0.3697  0.3607
14192W        W32396  16.108   7.825   1.055  0.5155 -0.0744 -0.2904
14193W        W32397  10.252   9.111   3.803 -0.0552 -0.3695 -0.2180
14194W        W32398  16.170  10.187  11.552 -0.1265 -0.4021  0.1798
14195W        W32399   7.577  12.617  13.018  0.1526  0.2983 -0.1800
14196W        W32400  13.993   5.909   3.604 -0.0857  0.0043  0.0113
14197W        W32401   8.094  15.664  15.111  0.4372 -0.2140  0.2085
14198W        W32402   0.643   7.400   0.959  0.3517 -0.0212  0.0890
14199W        W32403  12.311   0.124  10.792 -0.3925 -0.1451 -0.3067
14200W        W32404  12.530  18.421  11.934 -0.0560  0.1002 -0.0574
14201W        W32405   7.605  13.828   2.160  0.3589  0.0787 -0.0042
14202W        W32406  11.782  14.788  11.089  0.1384 -0.0292  0.0533
14203W        W32407   7.581  10.738   0.994  0.2231 -0.1759  0.2483
14204W        W32408  17.200   1.433   1.941  0.0969  0.0738 -0.1037
14205W        W32409  16.043   8.991   1.032  0.1773  0.2803  0.1518
14206W        W32410   6.416   9.783   3.572 -0.0865  0.1213 -0.4092
14207W        W32411   9.994  18.530   2.362 -0.2425 -0.2731 -0.0740
14208W        W32412   0.853  11.656  11.088  0.3022  0.0298 -0.1374
14209W        W32413  12.366  18.336   3.087 -0.1877  0.0754  0.0311
14210W        W32414   0.855   3.677  15.326 -0.2144  0.1450  0.0376
14211W        W32415  18.171   2.472   9.666  0.3789 -0.0105 -0.0633
14212W        W32416  10.171  17.288   0.143 -0.0091  0.3216 -0.4125
14213W        W32417   4.309   5.882   1.115  0.0200 -0.2871  0.0235
14214W        W32418   2.462  15.174  11.006 -0.2432  0.0897  0.0627
14215W        W32419   9.532  17.817  10.685 -0.0625 -0.2802  0.0799
14216W        W32420  12.901  11.905  14.175 -0.1297 -0.2858  0.1181
14217W        W32421  16.569   0.041   4.740 -0.0542  0.0171  0.3707
14218W        W32422   6.051  10.369   3.370 -0.0961 -0.5089 -0.2951
14219W        W32423   6.010   0.485  11.656  0.1226  0.2861 -0.0421
14220W        W32424   4.096  10.105   0.545 -0.1975  0.1363  0.1190
14221W        W32425  18.508   1.690   0.432 -0.0668 -0.4879 -0.0324
14222W        W32426   9.975   2.764  11.426  0.1509 -0.0078  0.1046
14223W        W32427   2.702  15.243  15.148 -0.1445  0.0354 -0.0326
14224W        W32428  16.720   9.507  11.868  0.3656 -0.1140  0.1943
14225W        W32429   4.149   3.560  13.392  0.1216  0.1314 -0.0299
14226W        W32430   9.362   8.376   2.567 -0.0907  0.0494 -0.1731
14227W        W32431  14.848   0.121   3.114 -0.1428  0.1911  0.0918
14228W        W32432  14.309   1.438   0.259 -0.1425 -0.0488  0.2943
14229W        W32433   7.049  17.700   0.778 -0.1526  0.1763  0.0028
14230W        W32434  14.885  14.301   2.975 -0.0175 -0.1354 -0.1433
14231W        W32435   2.232  11.662   3.289  0.0582  0.0935  0.2635
14232W        W32436  14.314  10.753  14.078  0.1127 -0.3275  0.3115
14233W        W32437  14.841   4.862   4.769  0.0887 -0.2338 -0.1947
14234W        W32438  12.224  13.181   1.562  0.0858 -0.2208 -0.2658
14235W        W32439   9.860   7.525   1.954 -0.3888 -0.2160  0.2814
14236W        W32440  13.989   2.501  10.723 -0.0485  0.2432  0.2894
14237W        W32441   9.633   9.479   1.584 -0.0545  0.0890 -0.1132
14238W        W32442   9.829  17.798  13.962  0.0512  0.0643  0.1107
14239W        W32443   8.187  12.646   1.321 -0.1097  0.0271  0.1860
14240W        W32444   0.941   7.131   2.049  0.0557  0.0938  0.0548
14241W        W32445   4.286  10.570   1.792 -0.0681 -0.0325  0.0808
14242W        W32446  17.961   5.318   4.046  0.2741  0.0987  0.4649
14243W        W32447  17.818  14.570   4.795 -0.2303 -0.0844 -0.3378
14244W        W32448   4.579   5.551  10.628 -0.3468  0.0722  0.0622
14245W        W32449   8.169   0.806  13.244  0.0903  0.4623 -0.3070
14246W        W32450   7.352  13.540  14.141 -0.2508 -0.4372  0.0600
14247W        W32451  12.057   1.111  13.413  0.0279  0.2217  0.1606
14248W        W32452  15.858   1.861  14.018  0.2488 -0.0705 -0.1403
14249W        W32453   5.113   1.861  13.378 -0.1277 -0.0175 -0.1435
14250W        W32454  16.028   4.935   3.123 -0.0828  0.0667  0.0982
14251W        W32455   1.399   3.454   5.072 -0.0232 -0.1779 -0.2558
14252W        W32456   5.508  11.822  14.132 -0.0016 -0.0409  0.3028
14253W        W32457   7.952   5.710   4.088  0.1090  0.0258 -0.0088
14254W        W32458  14.769  17.832   5.090  0.2412  0.1062 -0.2123
14255W        W32459  18.022   8.794  11.282 -0.0514  0.0302  0.0856
14256W        W32460  11.059   0.419   2.959  0.2234 -0.0548 -0.1032
14257W        W32461   5.419   3.642  10.804  0.2817  0.1081 -0.0335
14258W        W32462   4.197   2.135   1.998 -0.1211 -0.4356 -0.0877
14259W        W32463  14.554   0.235   3.502  0.1177  0.0048 -0.0900
14260W        W32464   2.820   6.555  13.976  0.1512  0.0912  0.1026
14261W        W32465   9.875   8.354  12.935  0.2771 -0.2194  0.0047
14262W        W32466   0.583   7.488  11.931 -0.1523  0.3396  0.2704
14263W        W32467   4.387   0.051   4.900  0.0101 -0.2463 -0.2391
14264W        W32468  11.581   0.038   4.388 -0.2099 -0.3101  0.1195
14265W        W32469  17.177  13.751  14.926 -0.2870 -0.0248 -0.2861
14266W        W32470   0.063   9.059   0.262  0.1278 -0.0955  0.1222
14267W        W32471   6.171   5.425   0.372  0.1564 -0.3670  0.2025
14268W        W32472  16.892  17.129   2.954 -0.2421 -0.2188  0.2339
14269W        W32473  15.681   5.669  11.076 -0.0774  0.0943 -0.0031
14270W        W32474  17.748   9.695   3.850 -0.0046 -0.1148 -0.3985
14271W        W32475  16.933  17.425  11.733 -0.0050  0.3496  0.2182
14272W        W32476  16.893  16.104  11.615  0.0483  0.3058  0.0615
14273W        W32477   8.153   6.224   0.058 -0.1696  0.7007 -0.0408
14274W        W32478  14.208  11.279  14.633 -0.3386 -0.0288 -0.0430
14275W        W32479   9.398   0.156  15.016  0.1415  0.0068  0.2416
14276W        W32480   5.016  11.487  10.488  0.0587 -0.1569  0.0488
14277W        W32481   7.328   4.090  14.004  0.3418 -0.2611 -0.0655
14278W        W32482  17.007  16.383   3.271 -0.2298  0.0124  0.2576
14279W        W32483   9.349  18.151  13.814 -0.2213 -0.1241  0.1114
14280W        W32484  11.460   8.127   0.638 -0.0714  0.0679  0.2478
14281W        W32485  13.371  14.885   4.381  0.1057  0.1674 -0.0016
14282W        W32486   7.782  11.168  11.134 -0.0206 -0.1239  0.3235
14283W        W32487   7.277   6.379  13.116  0.0028 -0.0611 -0.0530
14284W        W32488  15.813  10.775   2.451 -0.1741  0.2871 -0.0625
14285W        W32489   0.416  14.918  11.712 -0.0824  0.0053  0.3960
14286W        W32490  17.971  14.482  14.680  0.1669 -0.3466 -0.0529
14287W        W32491  16.026   4.471  14.784  0.0365  0.0904 -0.3855
14288W        W32492   4.541   7.214   2.921  0.0325 -0.0029  0.1549
14289W        W32493   8.690  10.903  12.689 -0.1214  0.0234 -0.1137
14290W        W32494   6.814   2.041  12.577 -0.2849  0.3345 -0.0295
14291W        W32495  12.009   5.621   1.984  0.2287  0.0054 -0.3477
14292W        W32496  11.890   6.343  11.874  0.2892 -0.2014  0.4500
14293W        W32497  16.802   4.432  14.262 -0.0373  0.0116 -0.0897
14294W        W32498  17.219  14.944   0.003 -0.1244 -0.2207  0.1636
14295W        W32499  13.397   4.245  13.604 -0.4293  0.1093  0.2491
14296W        W32500  12.741  16.639   3.751  0.2848  0.0280 -0.0346
14297W        W32501  11.931   3.673   0.721 -0.0198  0.0342  0.2935
14298W        W32502   3.432   1.316  11.535  0.0375  0.2346 -0.0520
14299W        W32503  15.409   7.509  11.154 -0.1026  0.2210 -0.2458
14300W        W32504  16.164  15.015  12.204  0.3818 -0.0690 -0.0989
14301W        W32505  18.027   9.459   3.383  0.0730  0.1440  0.2417
14302W        W32506  11.869   3.937   3.660 -0.1735  0.1868 -0.3354
14303W        W32507  10.238   2.442  13.163 -0.2303  0.1868 -0.2183
14304W        W32508  17.825   2.043   3.461  0.1134 -0.2518 -0.1477
14305W        W32509  11.630  17.035  15.185 -0.1239  0.4756  0.0276
14306W        W32510  15.721   4.158   3.958 -0.0493 -0.3777 -0.0497
14307W        W32511  18.503   0.949  10.074 -0.1375 -0.1719  0.1340
14308W        W32512  13.523   1.869  13.572 -0.2170 -0.2526  0.3562
14309W        W32513   2.627   4.223  12.829  0.0861  0.0319 -0.2552
14310W        W32514   5.715  13.799  10.720  0.2038 -0.3092  0.0892
14311W        W32515   3.081   5.236   4.401  0.0736  0.0508  0.1630
14312W        W32516  14.446   6.753  14.454  0.0596  0.0475 -0.0116
14313W        W32517  17.985   9.373  12.577 -0.3036  0.1882 -0.0803
14314W        W32518  10.434   0.056   2.355  0.2844 -0.5415 -0.2567
14315W        W32519  15.392  18.466  11.508 -0.2575 -0.1400  0.2014
14316W        W32520  16.803   4.744   0.466 -0.1171 -0.0662 -0.1050
14317W        W32521   2.243  11.830   0.196 -0.0290  0.0185  0.0014
14318W        W32522   4.539  12.885   1.476  0.1231 -0.0222  0.3310
14319W        W32523   1.212   8.620  11.415 -0.1033 -0.1591 -0.1312
14320W        W32524   5.980  11.243   2.905 -0.0083  0.0786  0.3139
14321W        W32525  12.637  13.595   0.305 -0.0852 -0.2676 -0.0871
14322W        W32526   9.839   3.299   1.511 -0.1388  0.3121  0.2350
14323W        W32527   3.378   9.479   0.207  0.1195  0.0203  0.2343
14324W        W32528   7.301   3.131  15.222  0.1305  0.0006 -0.2168
14325W        W32529   5.503   5.370  14.175 -0.0127 -0.1552  0.0927
14326W        W32530   7.964  12.933   2.765 -0.0814  0.3378 -0.0614
14327W        W32531  11.935  14.215  12.376 -0.2180 -0.0047 -0.0254
14328W        W32532   9.678   9.998   3.438 -0.1426 -0.1132  0.1606
14329W        W32533   6.649   8.532   0.374  0.1800  0.1605 -0.0546
14330W        W32534   7.463  10.298  12.192  0.0056 -0.0862  0.0165
14331W        W32535   6.090   0.399  15.112  0.1025  0.0250 -0.0071
14332W        W32536  17.494   8.461   2.593 -0.0106 -0.0222 -0.0315
14333W        W32537   2.160   8.072  10.964  0.0638  0.1139  0.1238
14334W        W32538  10.540  10.921   5.059 -0.2040  0.1408 -0.0234
14335W        W32539   5.291   9.292   3.478  0.2092 -0.0948 -0.4874
14336W        W32540   6.343   7.750  15.382 -0.1433  0.2335 -0.3814
14337W        W32541   5.204   8.511  12.837 -0.1223  0.0088 -0.0596
14338W        W32542  17.538  15.275   0.156  0.0947 -0.0899  0.1105
14339W        W32543  12.810  11.715   3.848  0.0395  0.0432  0.0781
14340W        W32544  13.813   7.179  12.554 -0.3065 -0.1344  0.0074
14341W        W32545   8.861   1.987   3.369  0.0044  0.0331 -0.1210
14342W        W32546   0.327   0.275  12.602 -0.1949  0.0038 -0.0103
14343W        W32547  15.503  16.539  12.547 -0.1533 -0.0844 -0.0239
14344W        W32548   7.375   3.465   5.726 -0.0048 -0.6195 -0.1593
14345W        W32549   1.673   7.360  10.242 -0.0508 -0.2037 -0.0384
14346W        W32550   1.527  10.968  14.408  0.1371 -0.0461  0.0138
14347W        W32551  11.638  17.078   4.527  0.2582  0.1650  0.2678
14348W        W32552   3.854  14.698  15.195  0.0411 -0.0552 -0.1310
14349W        W32553  14.342   9.423  14.946 -0.0048 -0.3573 -0.2280
14350W        W32554  16.979  12.049  14.591 -0.1569 -0.1995 -0.0843
14351W        W32555  14.298   0.978   2.117  0.1323  0.0452  0.2843
14352W        W32556  10.714   3.901  12.393 -0.0062  0.1937 -0.0523
14353W        W32557   1.293  11.547   4.246  0.0451  0.2195  0.1399
14354W        W32558  14.600   0.423   1.369  0.4370 -0.1392 -0.1349
14355W        W32559  11.635   1.928   9.960 -0.2119 -0.2692 -0.2455
14356W        W32560   9.179  12.128   0.072 -0.3159 -0.0925  0.1238
14357W        W32561  13.360   2.739  13.240  0.0982  0.0644 -0.3524
14358W        W32562  11.852   2.131  14.392 -0.1659 -0.2396 -0.2582
14359W        W32563   5.664   9.594  12.032  0.5158  0.4503  0.1901
14360W        W32564  15.941  15.641   5.143 -0.1441  0.1273  0.0837
14361W        W32565  17.411   7.548  13.580  0.0639  0.0117  0.0406
14362W        W32566  18.066   3.297   1.598  0.2659 -0.0870  0.2110
14363W        W32567  16.118   2.050  11.446 -0.1264 -0.1784  0.1158
14364W        W32568  11.763  12.913   2.938 -0.0532  0.2343 -0.1626
14365W        W32569   0.129  16.993   0.518  0.2000 -0.0254 -0.0256
14366W        W32570   5.856   1.865   4.321  0.4492  0.1986  0.0319
14367W        W32571  14.694   0.217   0.036  0.0797 -0.1317 -0.1631
14368W        W32572   1.300   3.465   3.875  0.2426  0.1080  0.0831
14369W        W32573   6.346   6.825  14.362  0.2687 -0.0784  0.1717
14370W        W32574   8.442  18.524  14.981  0.1911 -0.0207 -0.1210
14371W        W32575  12.569  11.737  13.311  0.1128 -0.0171  0.0481
14372W        W32576  16.429   4.027   5.135 -0.0099  0.1515  0.0935
14373W        W32577   1.115   0.915   2.174  0.2170 -0.0891 -0.3825
14374W        W32578   0.595   9.897  13.437  0.3130 -0.2546  0.1428
14375W        W32579   8.391   9.223   0.450  0.0969  0.0872 -0.0211
14376W        W32580  15.294   2.629  11.324  0.1097  0.0243  0.1086
14377W        W32581   2.793  17.971   4.447 -0.0155 -0.1894 -0.1624
14378W        W32582   7.637  17.681   1.981  0.4578 -0.3480 -0.0523
14379W        W32583   4.443   6.143  13.269 -0.0308  0.0710 -0.1646
14380W        W32584   0.231   2.055  14.968 -0.0812 -0.1057 -0.1702
14381W        W32585   6.272   4.839   0.514 -0.0302  0.0762 -0.0811
14382W        W32586  14.519   6.182  13.190  0.1057 -0.1445 -0.0866
14383W        W32587  12.090   2.546  11.057 -0.0204  0.0030 -0.1602
14384W        W32588   1.965   1.381   3.683  0.0345 -0.3502  0.2110
14385W        W32589   0.206   7.717   2.540 -0.1834 -0.1103  0.1074
14386W        W32590   7.612  15.248  13.921 -0.1477 -0.2448 -0.0983
14387W        W32591   0.941  15.535  10.613  0.0219  0.1368 -0.0761
14388W        W32592  13.755   1.500  10.501  0.0162  0.2362 -0.1140
14389W        W32593  16.604   0.491  13.459  0.2360  0.1684  0.2687
14390W        W32594  10.202   2.940  12.249  0.0212 -0.0435  0.2845
14391W        W32595  13.404   6.527  14.620 -0.1533 -0.1335  0.3312
14392W        W32596   5.490  12.226  14.575 -0.0270 -0.2681 -0.3342
14393W        W32597   2.110  16.999   2.156 -0.0851  0.0245 -0.1053
14394W        W32598   9.098  15.737   1.647  0.1169 -0.0489  0.0863
14395W        W32599  14.347  10.356  12.659 -0.1334 -0.0255 -0.1592
14396W        W32600  12.667   7.684  10.916  0.1306  0.4127 -0.2183
14397W        W32601  10.716  13.040   2.663 -0.3114 -0.0954 -0.0918
14398W        W32602   1.601  17.833   2.072  0.1672  0.2026 -0.0562
14399W        W32603   4.634   5.944   3.157 -0.1131  0.1014  0.2672
14400W        W32604  17.599  14.666  13.381  0.1512 -0.1028 -0.1669
14401W        W32605   2.393  13.065  10.910 -0.0339 -0.1034 -0.1668
14402W        W32606   3.150   6.781   0.742 -0.2359 -0.1195 -0.0237
14403W        W32607   5.574  14.449   2.221 -0.2613 -0.2415 -0.1008
14404W        W32608  17.693   0.120   3.374 -0.0261 -0.1552  0.1379
14405W        W32609  13.156   6.012  13.318 -0.0160 -0.0696 -0.0852
14406W        W32610  18.136   3.888   4.404 -0.0264  0.0537 -0.0803
14407W        W32611   3.095   0.276  12.469 -0.3381  0.0283  0.2727
14408W        W32612  10.571  14.004  14.269  0.1749 -0.3343  0.2002
14409W        W32613   6.754  12.027   1.063 -0.0386 -0.1425 -0.0251
14410W        W32614  13.836   7.613  14.517  0.1568  0.1599 -0.1638
14411W        W32615  16.252  13.114  13.951  0.0433  0.0188 -0.0913
14412W        W32616   9.253  13.025   3.715  0.0266 -0.1913  0.2099
14413W        W32617  16.169  15.870  14.762  0.2493 -0.0497 -0.0076
14414W        W32618  11.389  18.096  12.555  0.2398 -0.2395  0.1642
14415W        W32619  16.090   4.374   4.222  0.3536 -0.2473  0.0318
14416W        W32620  18.176  10.611   2.458  0.3605  0.0137 -0.0622
14417W        W32621  17.937   6.506   2.710 -0.2762 -0.1533  0.0207
14418W        W32622  11.495  11.253   1.373 -0.1134 -0.3093 -0.1286
14419W        W32623   2.032   5.230  10.661  0.0901  0.0142  0.1712
14420W        W32624   4.370   6.092  12.017 -0.1038 -0.0311 -0.1969
14421W        W32625   6.838  15.327  12.815 -0.0604  0.2269 -0.4608
14422W        W32626  17.363  16.976  11.749 -0.0319 -0.1144 -0.3505
14423W        W32627  16.337   0.934   1.908  0.1412 -0.1197  0.0101
14424W        W32628   4.774   3.741   1.508 -0.1902  0.1623 -0.1268
14425W        W32629  15.112  11.931  12.751  0.4107 -0.1223 -0.1460
14426W        W32630   9.336  18.395   2.815 -0.0154 -0.4554  0.0501
14427W        W32631   1.775  11.321  14.940  0.0950 -0.1414  0.3342
14428W        W32632  12.411   3.891  15.304 -0.1486  0.2770  0.2678
14429W        W32633  15.736  14.752   2.817  0.1590 -0.1253 -0.4749
14430W        W32634   1.485  14.567  13.480 -0.0131  0.3011 -0.0124
14431W        W32635  11.883  13.410  15.311  0.3111 -0.1416 -0.4001
14432W        W32636   6.635   4.424  11.807 -0.1865 -0.0533  0.0763
14433W        W32637  10.096   3.412   0.404  0.5368 -0.3086  0.1562
14434W        W32638  15.843  17.265  14.076 -0.0064 -0.1893 -0.0762
14435W        W32639  13.984  15.669   4.182  0.1572  0.0905 -0.0433
14436W        W32640  17.116  13.497  12.225 -0.1744 -0.3536 -0.1189
14437W        W32641  12.171  13.799   3.113  0.2194  0.1403 -0.2295
14438W        W32642  15.942  10.018   4.442 -0.1645  0.0299 -0.1441
14439W        W32643  13.644   8.962   4.720  0.1314  0.0891 -0.0939
14440W        W32644   7.650   5.945   2.924  0.4065  0.2369  0.0586
14441W        W32645   2.513  18.460   4.630 -0.3998 -0.1258  0.1252
14442W        W32646  14.879   4.304  13.089  0.2088 -0.0171 -0.0060
14443W        W32647  12.026  16.876  13.672 -0.1087  0.1787 -0.0474
14444W        W32648   3.949   1.426   0.280 -0.1761  0.1589 -0.1282
14445W        W32649   0.888   0.990  11.722  0.0943  0.3956  0.1354
14446W        W32650   6.736  11.605  12.287 -0.1300  0.1247  0.2533
14447W        W32651   6.619   9.708  12.856 -0.1537  0.1061 -0.3417
14448W        W32652  14.585  17.759   5.570  0.1077  0.0334  0.1137
14449W        W32653   9.678  17.885   3.813 -0.2552  0.4181 -0.0116
14450W        W32654   3.408   9.611  10.945 -0.1024 -0.0487 -0.4117
14451W        W32655   9.836   9.049  11.032  0.0489  0.1041  0.2417
14452W        W32656   2.875   5.661   2.584 -0.1435  0.0287 -0.1963
14453W        W32657   6.270  10.813   4.156 -0.1160  0.0290 -0.1271
14454W        W32658   3.881   8.006   1.340 -0.4281  0.3787 -0.1066
14455W        W32659  17.529  14.110  12.203 -0.1743 -0.1643  0.3095
14456W        W32660   9.871  17.443   2.360 -0.2089 -0.0355 -0.3278
14457W        W32661  10.926   8.844  11.680 -0.4592 -0.2044 -0.1384
14458W        W32662  18.130   7.462  11.079  0.0219 -0.2673  0.2673
14459W        W32663  14.894   0.039  13.276 -0.3242 -0.1131 -0.0824
14460W        W32664  10.503  17.475   4.840 -0.0231  0.0129 -0.1067
14461W        W32665  13.061  12.712   4.365  0.1647  0.1989  0.0992
14462W        W32666  12.305   3.619  14.492 -0.3966 -0.2620 -0.2249
14463W        W32667   5.939   2.838   2.841 -0.0151  0.1299 -0.2808
14464W        W32668   9.869  12.529  12.200 -0.0380 -0.3721  0.1041
14465W        W32669   8.320   6.757  14.184  0.0351 -0.0860  0.1749
14466W        W32670  17.636  17.590  10.435 -0.1907 -0.1717 -0.0712
14467W        W32671   6.541   5.439  13.967 -0.0124  0.0932  0.2643
14468W        W32672  17.938   0.702  13.746 -0.4794 -0.1273  0.0371
14469W        W32673   9.692  10.781   3.238 -0.1461 -0.0663 -0.0619
14470W        W32674  14.690  11.409  13.703  0.1627 -0.1159  0.1523
14471W        W32675   3.235  16.577  13.726 -0.1901 -0.1144  0.0782
14472W        W32676  17.919  12.440  12.116 -0.2435 -0.2162  0.1084
14473W        W32677   1.114  13.619  11.588  0.1542 -0.0791  0.1485
14474W        W32678  16.615   1.891  14.690 -0.1494 -0.2746 -0.0933
14475W        W32679  13.646   2.864  10.482 -0.0258 -0.1016  0.2884
14476W        W32680   8.362   6.641  15.294 -0.0372 -0.1199 -0.1715
14477W        W32681   4.451   0.606   0.595  0.0970 -0.2181  0.2154
14478W        W32682   2.829   8.323   2.183 -0.0943 -0.2514 -0.1185
14479W        W32683  18.388   3.793   1.953 -0.0632  0.0944  0.1385
14480W        W32684  18.184   2.680   3.829 -0.1264 -0.1996  0.0460
14481W        W32685  11.325   0.653   1.652  0.0710 -0.2586 -0.1531
14482W        W32686   9.471   4.998   0.375  0.4350 -0.3549  0.1306
14483W        W32687  11.374   1.084  13.493 -0.2984 -0.0240 -0.0025
14484W        W32688  18.030  11.397   3.898 -0.2332 -0.2562  0.0565
14485W        W32689  14.844   3.991   0.561 -0.0389 -0.0841  0.0906
14486W        W32690   0.800   0.035   3.447  0.0104  0.0723 -0.1098
14487W        W32691  13.171   7.995   3.075 -0.0305  0.2079  0.2338
14488W        W32692  16.912   8.156   3.366  0.0991 -0.0894  0.1035
14489W        W32693   6.961   0.959   4.839 -0.2097 -0.2310 -0.3059
14490W        W32694   1.424   8.594  13.157 -0.0840  0.0665 -0.0741
14491W        W32695  16.629  11.337  11.695  0.1603 -0.0375  0.3352
14492W        W32696  17.375  11.560   0.209 -0.2005  0.5429 -0.2056
14493W        W32697  14.128  13.238  15.078  0.3392  0.0436 -0.1419
14494W        W32698   7.740   1.736  13.749 -0.0904 -0.0221 -0.1481
14495W        W32699  17.526   4.452   1.162 -0.0358  0.2569 -0.3071
14496W        W32700   9.777   7.352   9.996 -0.0143  0.0663  0.2004
14497W        W32701  16.511   1.958  13.295 -0.2963 -0.2562 -0.1066
14498W        W32702  18.329   3.091  12.935 -0.2457 -0.1593  0.2079
14499W        W32703  11.642   2.375  15.336  0.2719 -0.0302 -0.2021
14500W        W32704  18.339  17.046   0.287  0.0361 -0.0293  0.1462
14501W        W32705  14.831   2.914  12.971  0.0817 -0.1497 -0.0735
14502W        W32706   8.437   7.190  12.507  0.5472 -0.0188 -0.0473
14503W        W32707  13.631  18.236  11.102  0.0208 -0.4326  0.0722
14504W        W32708   3.733   2.090  14.830 -0.0467  0.3172  0.0008
14505W        W32709   9.711   0.938   2.606 -0.1062  0.1471 -0.2294
14506W        W32710  10.464   3.961  10.195 -0.1312 -0.0430  0.4425
14507W        W32711   6.428  10.251  14.780  0.1536  0.0780 -0.4131
14508W        W32712  12.810  11.956  12.225 -0.1634  0.2635  0.1372
14509W        W32713   1.948   0.363   4.974 -0.0764 -0.1839  0.4209
14510W        W32714  13.330   3.520  13.813  0.0309  0.1108 -0.1290
14511W        W32715   9.493   6.749   2.218  0.3118 -0.0725 -0.2488
14512W        W32716   1.554  16.164  10.934  0.1975  0.1970 -0.1801
14513W        W32717  12.252  11.379  13.185 -0.0365 -0.0741  0.0210
14514W        W32718   9.400   8.156  13.542  0.1233 -0.3852 -0.3067
14515W        W32719   7.257   0.659  12.199  0.2136  0.1087  0.0485
14516W        W32720   7.949  11.057   1.319 -0.1569  0.0640  0.3981
14517W        W32721   1.049  15.590   4.995  0.0358  0.0673 -0.1950
14518W        W32722   4.155   1.784   1.122 -0.0744  0.2643  0.1688
14519W        W32723   6.628   5.679  12.685  0.3117 -0.1654  0.1572
14520W        W32724  14.014  18.231   1.888 -0.3020 -0.0819 -0.0379
14521W        W32725   1.735  13.330   3.410  0.0492  0.1930  0.1010
14522W        W32726   4.756  12.259   0.231  0.2672  0.2097  0.4151
14523W        W32727  12.683   8.814  11.671  0.3091  0.0293  0.0627
14524W        W32728   0.294   4.373   4.222 -0.0632  0.0887 -0.0281
14525W        W32729  12.335   8.595  15.095 -0.1931  0.0153 -0.0226
14526W        W32730   2.420   6.747   2.210 -0.1472  0.0604 -0.5996
14527W        W32731   7.412   3.495  14.780 -0.0269  0.3744 -0.0239
14528W        W32732  17.108  16.026   1.937 -0.0884 -0.2117 -0.2181
14529W        W32733  16.998   5.352   4.031  0.0693 -0.1018  0.0991
14530W        W32734  11.328   1.975   0.822  0.0068  0.1105 -0.0597
14531W        W32735  16.933  13.338  13.701 -0.3372  0.1032  0.2117
14532W        W32736  15.927  11.505   3.023 -0.3917  0.0612  0.2514
14533W        W32737  14.309  13.239   2.213 -0.3005  0.2430  0.0715
14534W        W32738  15.036   3.069   2.518  0.2543  0.0470 -0.1408
14535W        W32739  14.484  11.867   0.544 -0.1101 -0.0863  0.0272
14536W        W32740  10.068   8.286   1.519  0.0528 -0.4116  0.0948
14537W        W32741   3.319   9.904  14.844 -0.1281  0.0971 -0.0862
14538W        W32742   6.647  10.399   2.169  0.0364 -0.2312  0.0604
14539W        W32743   4.077  12.799   3.750  0.1601  0.2349 -0.0457
14540W        W32744   4.355   3.990   1.742 -0.0877  0.0060  0.0477
14541W        W32745   7.567  10.892   5.129  0.2944  0.3512 -0.0343
14542W        W32746   9.033   1.630   2.956 -0.3382  0.1413 -0.1130
14543W        W32747  12.802   8.033   4.185  0.2761 -0.0669 -0.4267
14544W        W32748  17.293  11.589  14.507  0.0288  0.0880 -0.0782
14545W        W32749   2.492  17.417   2.095  0.0722 -0.3564 -0.2840
14546W        W32750   3.950  13.228   0.227  0.1104 -0.1484 -0.0361
14547W        W32751  13.648   0.750  14.393 -0.0324  0.2395 -0.2706
14548W        W32752   0.048  14.560  11.424 -0.0576  0.1046  0.2669
14549W        W32753  15.458   8.175  13.553 -0.0223  0.1157 -0.4354
14550W        W32754  10.248   3.002  14.078 -0.1044 -0.0426  0.0443
14551W        W32755   4.738   7.831  13.102 -0.1388  0.5500  0.2053
14552W        W32756  14.834  16.742  15.131 -0.4074  0.0091 -0.0826
14553W        W32757  13.368   9.411  13.186 -0.0995 -0.1557 -0.1554
14554W        W32758  16.227   9.269   1.836  0.3045  0.1106 -0.3257
14555W        W32759   0.046   5.831  12.168 -0.3633  0.1785  0.1409
14556W        W32760   2.315   1.457   2.220 -0.2972 -0.2158 -0.0060
14557W        W32761   2.135   9.204  13.323  0.1008  0.0024 -0.0794
14558W        W32762   4.478  15.115   4.168 -0.1080 -0.1458  0.4110
14559W        W32763  17.392  10.166   4.687 -0.0123 -0.1318  0.0147
14560W        W32764  17.918  12.895   3.579  0.3010 -0.4254 -0.0462
14561W        W32765  15.661   2.535   4.954  0.0365  0.0148 -0.1454
14562W        W32766  13.624   6.845  15.009 -0.2577 -0.1052  0.0679
14563W        W32767  17.164   4.236  13.607 -0.0678 -0.2259  0.1059
14564W        W32768   6.772  11.634  14.587  0.0753 -0.3959  0.0046
14565W        W32769   5.958   1.873   1.529  0.3206  0.0555 -0.4201
14566W        W32770   5.936   0.876   2.836  0.0520 -0.1036 -0.1052
14567W        W32771  11.690   9.667   1.410 -0.0074  0.0131 -0.0269
14568W        W32772   8.549   4.183  12.869 -0.0201  0.5847 -0.1383
14569W        W32773  16.130   6.858  12.971 -0.1074  0.0472  0.1106
14570W        W32774  11.206  10.695   1.470 -0.4864 -0.2783 -0.0862
14571W        W32775  13.795   8.568  13.996  0.0728  0.1485 -0.4378
14572W        W32776   9.575   2.549  11.578  0.0993 -0.0142 -0.3475
14573W        W32777  15.432   5.113  14.322  0.1584  0.1581 -0.1694
14574W        W32778   8.036   4.994   3.779  0.2638 -0.1838  0.1676
14575W        W32779   9.855  13.852  11.702 -0.1063 -0.1285 -0.2235
14576W        W32780   8.120   9.150  13.601  0.0023 -0.0274 -0.1603
14577W        W32781   1.589  14.753   4.356  0.1644 -0.0854 -0.0608
14578W        W32782  15.980   6.650   3.958 -0.1136  0.0515 -0.1705
14579W        W32783   6.088   8.312  10.670  0.1925 -0.0724 -0.2707
14580W        W32784   2.538   1.874   4.669  0.2426 -0.0722  0.1908
14581W        W32785   9.763   0.350  14.674 -0.3981  0.1064 -0.1314
14582W        W32786   5.638  16.812   4.771 -0.1243  0.2370 -0.1287
14583W        W32787   2.176  12.676   0.737  0.1300  0.5849  0.0874
14584W        W32788   8.477   5.334   2.542  0.1449 -0.2177 -0.2139
14585W        W32789   1.473  15.663   3.441  0.5363  0.0575  0.0560
14586W        W32790  13.279   4.311   1.605 -0.1100  0.0969 -0.0850
14587W        W32791   3.567  15.521  14.917  0.0256  0.0983 -0.1578
14588W        W32792  14.603   4.214  12.293 -0.2411  0.0322  0.1491
14589W        W32793   1.993   7.236  14.289  0.2080 -0.2064 -0.5302
14590W        W32794   5.273   2.681  12.360  0.1980  0.1189  0.0517
14591W        W32795   4.518  15.269  14.996 -0.3373  0.0488  0.2398
14592W        W32796   6.049  10.625  14.120 -0.1074  0.0462 -0.2400
14593W        W32797  16.341  10.644  12.967  0.0867 -0.1281  0.1704
14594W        W32798  12.946   1.722  12.458 -0.3523 -0.2103  0.0603
14595W        W32799   9.985   4.503  12.961  0.2362 -0.2940 -0.0977
14596W        W32800  14.849   1.344   3.791 -0.0684 -0.0753  0.3206
14597W        W32801  12.441   6.735  12.312 -0.0649 -0.1589  0.1269
14598W        W32802  15.245  11.223   0.636  0.1378  0.1832 -0.2691
14599W        W32803  13.274   4.366  14.747  0.0279  0.2658  0.0262
14600W        W32804   7.163   7.558   2.117 -0.2651 -0.1616  0.0890
14601W        W32805   5.824   4.894   1.919 -0.2329 -0.1801  0.1418
14602W        W32806  16.905   2.381   1.380 -0.0718  0.1745  0.0021
14603W        W32807  16.731   0.791  11.679  0.1890 -0.0064  0.2627
14604W        W32808   3.247  10.004   0.273 -0.0102  0.2930 -0.0092
14605W        W32809   5.376   5.186   5.036 -0.0159 -0.2797  0.0849
14606W        W32810  11.973   8.055  13.924 -0.2897 -0.1268  0.0246
14607W        W32811  11.353  17.980   1.264  0.1393 -0.0653 -0.1902
14608W        W32812   2.233  12.609   0.142 -0.0233  0.2985  0.0546
14609W        W32813   0.934  16.817  14.472 -0.3069 -0.0345 -0.1806
14610W        W32814   7.158  11.867  12.201  0.2204  0.2266 -0.1422
14611W        W32815   9.788   3.863   0.296 -0.0066 -0.1878 -0.0075
14612W        W32816   6.357   3.896  13.995 -0.1013  0.0088 -0.1462
14613W        W32817   9.031   0.252  13.166 -0.0281 -0.2771  0.1584
14614W        W32818  13.574  15.770  13.829 -0.0284 -0.0902 -0.1619
14615W        W32819  13.166   5.870   0.723 -0.0126 -0.0392 -0.0953
14616W        W32820   1.563  17.997   2.944 -0.0587  0.1976  0.0845
14617W        W32821   2.884   2.535  12.521  0.2247  0.0581  0.0229
14618W        W32822  13.508  17.625  14.180  0.1026  0.1070  0.1099
14619W        W32823   9.781   8.510   4.386  0.0812 -0.1949  0.1037
14620W        W32824   1.976   8.509   3.296 -0.0608  0.0089  0.1752
14621W        W32825  14.870  13.062  13.725  0.0561  0.2943  0.1149
14622W        W32826   6.611   9.347   3.410  0.2171 -0.0099  0.0203
14623W        W32827   2.279  12.660   1.218  0.1287  0.3833 -0.0458
14624W        W32828   0.620  11.103   4.478 -0.4229 -0.0997  0.0124
14625W        W32829   8.794  12.038  14.561 -0.2039  0.2439 -0.1293
14626W        W32830   5.157  14.174   1.888 -0.2127  0.2068 -0.0829
14627W        W32831  10.273   0.375  12.546  0.2174  0.1421 -0.2101
14628W        W32832   6.174   6.291  11.100  0.1795  0.1785 -0.0493
14629W        W32833  16.575   6.047  14.436 -0.0738 -0.1921 -0.1808
14630W        W32834  14.129  10.376  12.231  0.0308  0.1868  0.1548
14631W        W32835  14.074   2.214   1.620  0.0242  0.3568 -0.2859
14632W        W32836  13.386   3.126   1.941 -0.2177 -0.1802 -0.1389
14633W        W32837  11.982  18.517   2.823  0.0660 -0.1622 -0.2828
14634W        W32838  13.402   4.318   2.087 -0.1042  0.1389  0.0271
14635W        W32839  10.063   3.476  15.374  0.1794  0.0151  0.1676
14636W        W32840   6.558  12.432  13.492 -0.4342  0.2981  0.2749
14637W        W32841  12.776  17.837  11.196 -0.1171 -0.1830 -0.0300
14638W        W32842   0.434   9.897  14.264  0.1774 -0.0012 -0.3393
14639W        W32843  17.666  10.653  12.775  0.1445  0.1362  0.0068
14640W        W32844  18.479   3.967  11.204 -0.1177 -0.3269  0.0258
14641W        W32845  16.640   6.763  15.039 -0.0092 -0.0109  0.2095
14642W        W32846   0.471  14.099   2.159 -0.0631  0.0026  0.1600
14643W        W32847   9.006  12.886  15.175 -0.1726  0.2119 -0.1844
14644W        W32848   7.973  11.527   2.961 -0.0836  0.0105  0.0756
14645W        W32849  10.886  17.491  14.532  0.0732  0.2376 -0.1311
14646W        W32850   8.508  17.995  14.144 -0.2604 -0.3697 -0.0111
14647W        W32851  17.318  14.003   3.069 -0.0159  0.0243 -0.0967
14648W        W32852  14.168   9.445  10.721 -0.2718 -0.0931 -0.4946
14649W        W32853  10.109  12.406  11.212 -0.1696  0.0923  0.0800
14650W        W32854   7.747  15.244   3.151  0.0290 -0.2339  0.1627
14651W        W32855   5.725   6.286  10.738 -0.1536  0.2103 -0.3394
14652W        W32856   5.393  12.759  12.664 -0.0517  0.2131  0.2724
14653W        W32857  16.830   6.327   4.068 -0.1245  0.1457  0.1034
14654W        W32858  17.339   0.407   2.554  0.0460 -0.1109  0.1568
14655W        W32859  16.074   2.977  10.935 -0.0605  0.2543 -0.0068
14656W        W32860  10.906   4.825  11.537 -0.1580  0.0057 -0.0606
14657W        W32861   9.334   7.502  12.274 -0.1031 -0.0687 -0.0906
14658W        W32862  13.243   2.140  14.385 -0.1116 -0.2419 -0.0308
14659W        W32863   4.435  15.303   2.856  0.0877  0.0579 -0.1109
14660W        W32864   9.058   2.638  14.814 -0.2752  0.0609 -0.1414
14661W        W32865   4.659  14.801   1.126 -0.1702  0.0445 -0.1470
14662W        W32866   1.911   0.859   3.733 -0.1281 -0.0803  0.1261
14663W        W32867  16.439  11.985  10.754 -0.2158 -0.0955  0.0266
14664W        W32868   6.641  12.209  14.428 -0.0763 -0.2256 -0.2681
14665W        W32869  16.636   9.020   1.971 -0.0417  0.2767 -0.2208
14666W        W32870   9.534  17.884  12.426 -0.1309 -0.0711  0.1244
14667W        W32871  11.662  13.660  11.590  0.5201 -0.0942  0.1246
14668W        W32872   3.661  16.546  15.127 -0.0207 -0.2181 -0.0409
14669W        W32873  11.361  18.251  14.137  0.2277 -0.0613 -0.0655
14670W        W32874   8.758  17.819  11.941  0.0791  0.1146  0.1020
14671W        W32875  17.603  16.136  14.365  0.2835 -0.2103 -0.2047
14672W        W32876   4.502   0.808  14.930 -0.1577  0.1671  0.0866
14673W        W32877  16.081  17.779  11.408 -0.0637 -0.2598  0.0255
14674W        W32878  13.821  17.548   3.420  0.0627 -0.0547 -0.1116
14675W        W32879   5.791  11.541   0.406 -0.0263 -0.2774  0.0883
14676W        W32880   8.788  18.242   0.137 -0.0762 -0.1137 -0.0822
14677W        W32881   2.186   7.441   3.146  0.0140  0.1306 -0.1008
14678W        W32882  18.138  15.469  14.932  0.1148 -0.2808  0.0966
14679W        W32883  14.031   5.097   0.177 -0.2142 -0.0397  0.0492
14680W        W32884   8.690   0.379  14.734  0.1700  0.1197  0.1191
14681W        W32885   0.149   2.511   0.389 -0.1042 -0.0412  0.0818
14682W        W32886  16.197   3.256  12.763 -0.0654 -0.2207  0.0227
14683W        W32887   8.378  14.662  12.871 -0.0024 -0.0123 -0.3043
14684W        W32888  16.947  17.757   4.424  0.1161  0.0427  0.0092
14685W        W32889   2.476  13.993   2.873 -0.1911 -0.1589  0.1094
14686W        W32890  13.279   2.284   1.833 -0.0323 -0.0448 -0.2718
14687W        W32891   5.293  15.686  13.719  0.0228 -0.1113  0.0520
14688W        W32892  10.786   6.581   1.085  0.0214  0.4626  0.0097
14689W        W32893  17.668   8.851   1.297 -0.1622 -0.0458 -0.0289
14690W        W32894  12.794  17.791   0.319 -0.0065  0.2054 -0.0023
14691W        W32895   4.046  13.804  11.312 -0.1294  0.2980  0.1823
14692W        W32896  17.879   6.610   2.125  0.1377  0.0531 -0.1191
14693W        W32897  16.929   5.720   5.361 -0.0289  0.1083 -0.1374
14694W        W32898  12.195  12.609   2.912 -0.0277 -0.1835 -0.1548
14695W        W32899   0.316   7.271   2.776 -0.0970 -0.5288  0.1062
14696W        W32900  11.220   3.333  11.037 -0.1692  0.3230  0.0105
14697W        W32901  16.068   6.646   2.995 -0.0222 -0.1234 -0.1501
14698W        W32902   3.279   4.815   4.210  0.0271 -0.0079 -0.1310
14699W        W32903   6.360  11.535  10.539 -0.1261 -0.1023  0.0995
14700W        W32904   2.100   8.218   4.416 -0.1168 -0.0813 -0.3858
14701W        W32905   2.848   3.676   0.920 -0.0239 -0.0179  0.1255
14702W        W32906   0.634   1.070  14.150  0.4451  0.1571 -0.2163
14703W        W32907  14.505   9.417   4.547  0.0907  0.1308 -0.2213
14704W        W32908  13.944  15.817   1.333  0.3609  0.0794  0.0277
14705W        W32909  16.188  15.165   4.663  0.1023 -0.0487  0.0480
14706W        W32910  14.205  10.365   4.464 -0.1723 -0.3526 -0.0846
14707W        W32911  13.295  14.853  14.670 -0.2733 -0.1020 -0.1282
14708W        W32912   6.140   1.723  12.988 -0.0027  0.0404 -0.0042
14709W        W32913   0.289   1.106  12.856 -0.1019 -0.1104  0.0768
14710W        W32914   3.336   8.328   3.237 -0.0221 -0.3309  0.0150
14711W        W32915  14.226  11.318  15.148 -0.0467  0.1864  0.2075
14712W        W32916   6.300   1.184  13.856 -0.4850  0.2411  0.0297
14713W        W32917   1.407   3.875   1.439  0.1655  0.2609 -0.0876
14714W        W32918  16.481   3.798   9.844  0.1437 -0.1523  0.1351
14715W        W32919   6.080   3.939  13.164  0.2563  0.1091 -0.2947
14716W        W32920   4.614  16.758   1.801 -0.0808 -0.1026  0.3985
14717W        W32921  14.475   1.614  11.839  0.3935  0.2272  0.1944
14718W        W32922   2.585   9.746  10.887 -0.1978  0.3589  0.0428
14719W        W32923  12.196  17.333  12.950  0.0264 -0.0565 -0.0403
14720W        W32924   7.626  16.254  14.395  0.1666  0.0202 -0.1958
14721W        W32925   3.048   9.825  12.535  0.3108  0.1207  0.3933
14722W        W32926  15.808  17.379   2.215  0.0311  0.5383  0.0420
14723W        W32927   4.078   3.006   1.675 -0.3895  0.2440 -0.2420
14724W        W32928  11.087  11.423  10.126  0.0371 -0.1483  0.1464
14725W        W32929  15.123  13.208   1.402 -0.1000 -0.0039  0.0983
14726W        W32930   9.281  15.792  12.223  0.0550  0.1542  0.1228
14727W        W32931   2.734  18.443  10.932 -0.2921  0.2205 -0.0262
14728W        W32932  16.383   9.484  14.752 -0.1743 -0.1007 -0.0937
14729W        W32933   5.467  14.202   0.014  0.0811 -0.1264  0.1214
14730W        W32934   0.396   7.954   3.893 -0.0647 -0.1499 -0.0147
14731W        W32935  16.505  18.324   2.520  0.0019 -0.0371 -0.2263
14732W        W32936  13.053  16.514  11.394  0.1767 -0.0426 -0.0939
14733W        W32937   6.539   3.673   1.724  0.0730  0.0666 -0.0014
14734W        W32938  17.482  12.958  10.914 -0.0488 -0.0398  0.0666
14735W        W32939   2.472   4.977  13.280  0.1721 -0.0024  0.1105
14736W        W32940   5.580   5.292   2.844 -0.0747 -0.4005 -0.3170
14737W        W32941   0.674   9.108  12.484  0.2311  0.0998 -0.0964
14738W        W32942  16.507  17.772  12.673 -0.0074  0.0569  0.0773
14739W        W32943   4.157   2.704   1.193  0.3196 -0.2666  0.1114
14740W        W32944  15.168   2.085  12.536  0.4537  0.2939 -0.3083
14741W        W32945   7.153   4.480  11.073  0.1730  0.2119  0.0348
14742W        W32946  11.748   6.907   3.724  0.0766  0.1403  0.0185
14743W        W32947   4.280  15.592   4.204  0.2281  0.1580 -0.1274
14744W        W32948   9.517   5.953  14.229  0.1416 -0.0074  0.1616
14745W        W32949  11.849   6.176   2.141  0.2695  0.2745  0.3081
14746W        W32950   4.240  16.962   4.687  0.3064 -0.1626  0.0713
14747W        W32951   8.589   1.557  11.976  0.1615 -0.1089 -0.0432
14748W        W32952   9.535  11.455  14.542  0.0490  0.1642  0.0865
14749W        W32953   6.762   3.873   4.178  0.2921  0.0673  0.1353
14750W        W32954  18.273  11.304   1.155  0.0362  0.0925  0.0246
14751W        W32955  12.199   6.365  14.797 -0.1326 -0.0048  0.1302
14752W        W32956   0.999   6.140   1.032 -0.1520 -0.0400 -0.0145
14753W        W32957   2.803  16.096  10.464  0.1105 -0.2395  0.3527
14754W        W32958   5.946  18.523   2.760  0.0484  0.0291 -0.2253
14755W        W32959   1.595  12.734  10.954 -0.1509 -0.1039  0.0287
14756W        W32960  17.724   7.021  11.919 -0.0128 -0.2267  0.0537
14757W        W32961   6.777  10.029   2.588  0.0714 -0.1347 -0.3623
14758W        W32962  12.225   6.384   1.387  0.0132  0.0082  0.1933
14759W        W32963  13.976  14.831  11.924 -0.0634  0.2308  0.0245
14760W        W32964  11.930   5.843  13.991 -0.1551 -0.0829  0.0777
14761W        W32965   3.143   5.003  10.984  0.1378  0.3120 -0.2164
14762W        W32966   6.192  11.288   0.659  0.0358 -0.0344  0.1443
14763W        W32967   0.632   2.649  13.022  0.1149  0.0372 -0.0684
14764W        W32968   0.130   4.710  14.242  0.0930  0.1822  0.3492
14765W        W32969   9.910   9.112  13.749 -0.0968 -0.1422  0.0796
14766W        W32970   7.980  13.678  14.806 -0.0783 -0.1818 -0.0623
14767W        W32971  13.940   9.045  12.280 -0.1410  0.2968  0.0922
14768W        W32972  15.301   7.482  15.232 -0.1061 -0.4180  0.1970
14769W        W32973  15.590  11.969   0.847 -0.1119  0.2052  0.3046
14770W        W32974   8.358   5.236  12.648  0.1267 -0.1270  0.3877
14771W        W32975   2.873   7.104  14.675 -0.0000  0.0313 -0.0210
14772W        W32976   6.784   3.784   3.058 -0.1641 -0.4655  0.1687
14773W        W32977   7.690   9.699   3.286 -0.3106 -0.0356  0.2225
14774W        W32978  14.907  16.554  14.634 -0.0481 -0.0727 -0.1037
14775W        W32979   4.484   0.389  13.615 -0.1509 -0.1984 -0.0781
14776W        W32980  14.612   7.483  12.027 -0.0874  0.1687  0.3178
14777W        W32981  18.292  18.188  15.360 -0.1149 -0.5174  0.3312
14778W        W32982  13.730   3.025  14.395 -0.2058  0.2228 -0.1242
14779W        W32983  10.460   0.673  11.912  0.3696 -0.1070 -0.0135
14780W        W32984   4.347   0.060   1.721  0.1645 -0.2096  0.1365
14781W        W32985   2.912  10.647   1.851  0.2481  0.0763  0.0228
14782W        W32986  16.537   8.419   3.099  0.0984 -0.3270  0.1359
14783W        W32987   7.865  10.469  15.391 -0.0533 -0.3562 -0.0397
14784W        W32988  11.056  10.363  13.211 -0.0727 -0.2895 -0.3465
14785W        W32989  17.573  14.134   4.926  0.3117 -0.3241  0.1834
14786W        W32990   1.725   2.374  13.330 -0.0359  0.3366 -0.0920
14787W        W32991   6.501  12.920   3.228 -0.0955  0.1124 -0.0564
14788W        W32992  18.287   7.860   3.451  0.2057  0.0187  0.1032
14789W        W32993   3.281  16.208   1.621  0.1370 -0.1390  0.1492
14790W        W32994   0.822   8.964   0.846  0.0084 -0.0550 -0.0296
14791W        W32995   7.684  12.934   3.215  0.3124  0.0748  0.0810
14792W        W32996   5.543  10.423  11.253 -0.0872 -0.1143  0.0714
14793W        W32997  14.382  10.222  11.816  0.1824 -0.0854 -0.3259
14794W        W32998  17.875  16.807   9.924 -0.1747  0.2601  0.1694
14795W        W32999  18.309  17.399   2.427 -0.1058  0.3381 -0.0280
14796W        W33000  12.318   5.926   4.284  0.0324 -0.0043 -0.0591
14797W        W33001   8.040   9.511   0.799  0.1706  0.1737 -0.1394
14798W        W33002   6.412   6.429  13.561  0.0332  0.0243 -0.2498
14799W        W33003  11.527  15.313  11.960  0.3710 -0.1792 -0.1928
14800W        W33004  18.416   1.279   2.796  0.0016  0.3016 -0.2632
14801W        W33005  14.521  15.537  11.274 -0.1143  0.1669  0.3919
14802W        W33006   2.701   0.023  15.151  0.0198  0.1857 -0.2227
14803W        W33007   4.633   2.532  13.168  0.2191  0.0985  0.0004
14804W        W33008   4.717   0.404   1.589 -0.2157  0.2036  0.2225
14805W        W33009  10.368  13.980   4.805  0.3349  0.1329 -0.3045
14806W        W33010   7.230  11.886   2.770  0.2659 -0.0778 -0.3785
14807W        W33011   9.132   7.142  14.393  0.1443 -0.1583  0.0828
14808W        W33012  15.463   9.234  15.070 -0.3945 -0.1186 -0.0199
14809W        W33013   3.599  12.053   0.854 -0.1519  0.3173  0.1787
14810W        W33014   4.936  14.724   3.330  0.2523  0.0013 -0.0611
14811W        W33015  13.779  18.367  13.611  0.0409 -0.0988 -0.1209
14812W        W33016  15.018  10.542  12.837  0.1830  0.1606 -0.4156
14813W        W33017  12.584  14.783  12.090 -0.0501  0.1572  0.1025
14814W        W33018  10.092   8.697  11.974  0.2246 -0.1929  0.0757
14815W        W33019   4.669  14.965   3.723 -0.0844 -0.0234  0.0568
14816W        W33020  11.433  12.685   0.434  0.0904 -0.0148 -0.0684
14817W        W33021   4.645  14.735  10.680  0.1929 -0.2296  0.0170
14818W        W33022   5.362   1.616   3.604 -0.2515 -0.1314 -0.2416
14819W        W33023   8.469   2.312   3.199 -0.1719  0.0495  0.0470
14820W        W33024   7.163   4.120  14.705  0.1726 -0.0401  0.0023
14821W        W33025  17.861  11.223  11.276 -0.2018 -0.1618 -0.3151
14822W        W33026  17.461  10.741   0.172  0.1954  0.4196  0.2142
14823W        W33027  11.011   3.911   2.090  0.0078 -0.2002 -0.3336
14824W        W33028  13.625  14.724  11.150 -0.1909  0.0756  0.2698
14825W        W33029  16.422   8.845   0.022 -0.0037  0.1165 -0.0982
14826W        W33030  15.639  11.727   3.831  0.0994 -0.2471  0.0496
14827W        W33031   3.130  10.252   2.466  0.0904  0.5026  0.0605
14828W        W33032  17.643   2.648  14.351 -0.1502  0.1515 -0.1227
14829W        W33033   5.510  14.433  12.430 -0.0990  0.3049  0.2919
14830W        W33034  13.356   0.542   1.278 -0.1924 -0.1197  0.0310
14831W        W33035   5.568   2.304   3.003 -0.1556  0.3110  0.0549
14832W        W33036  18.229   6.105  12.333 -0.3435 -0.1381  0.0665
14833W        W33037  13.064   1.574   0.449  0.2287  0.2316  0.1278
14834W        W33038  15.302   9.866  13.459  0.1191  0.1168  0.1582
14835W        W33039  14.275   2.302   4.192  0.1691  0.0862  0.0069
14836W        W33040   3.901   7.589   1.620 -0.1963  0.2374 -0.0785
14837W        W33041   5.700  10.744  13.273 -0.1902 -0.1117  0.1483
14838W        W33042   9.267  11.348  12.183  0.2960  0.0461 -0.1158
14839W        W33043  13.689   6.118  13.437  0.0958  0.1891  0.2967
14840W        W33044  17.403   5.218   0.054  0.1714 -0.0599 -0.0002
14841W        W33045  13.188   1.861   0.914 -0.0613 -0.2218  0.2252
14842W        W33046   6.011  13.002   4.789  0.0364  0.2140 -0.0674
14843W        W33047  14.914  14.795   4.142  0.0787 -0.1311  0.1787
14844W        W33048   9.628   4.565  13.916  0.5350 -0.1794 -0.1290
14845W        W33049   2.867  18.553  13.463  0.0225 -0.0157  0.1654
14846W        W33050   7.131   9.496   3.293  0.1863 -0.1137 -0.2038
14847W        W33051   0.990  13.163  13.892  0.2736  0.2301 -0.1116
14848W        W33052  12.077   9.704   2.172  0.1267  0.1867  0.2456
14849W        W33053  12.190  12.085  13.340 -0.2233  0.1354  0.0948
14850W        W33054   3.116   2.962  13.371 -0.0883  0.0078  0.4322
14851W        W33055  13.653  14.462   4.606 -0.1848 -0.0662 -0.0346
14852W        W33056  10.412  12.583  14.306  0.0593 -0.0616 -0.2886
14853W        W33057   6.097   8.126  11.135 -0.2965  0.1330 -0.1641
14854W        W33058  13.469  15.609   3.900  0.1118  0.0408  0.1259
14855W        W33059   9.045  16.806   0.729  0.0346  0.0855 -0.4004
14856W        W33060  16.184   3.348   4.501  0.2169  0.2562  0.1867
14857W        W33061   6.571   8.663   2.275  0.0703  0.0182 -0.0280
14858W        W33062  12.843  10.256   3.685 -0.5759 -0.1599 -0.2604
14859W        W33063   6.494   4.874  13.219  0.4306 -0.0817  0.0072
14860W        W33064  14.625   9.106  10.642  0.1102 -0.5304  0.1951
14861W        W33065   9.384   5.673   2.742  0.0314  0.1067 -0.3381
14862W        W33066   7.862   9.447   0.259  0.0617  0.1725  0.1884
14863W        W33067  16.982  11.261  14.858  0.0276 -0.0116  0.1319
14864W        W33068   3.533   4.128  12.936  0.1566  0.1060  0.1655
14865W        W33069   5.655   0.051   1.370 -0.4136 -0.1312 -0.0172
14866W        W33070   7.859   8.487  10.705 -0.0403 -0.1678  0.0630
14867W        W33071  17.517   3.561   2.510  0.1948  0.3308 -0.0174
14868W        W33072   3.528   7.900  12.951  0.0432 -0.3623  0.1319
14869W        W33073   9.293  12.354   4.357  0.4228  0.1544 -0.3314
14870W        W33074  14.135   2.367   2.357 -0.2094  0.1759  0.0903
14871W        W33075   9.740   7.667   2.974 -0.1720  0.2225 -0.2644
14872W        W33076  16.902  15.000  12.185  0.3776 -0.2539  0.0808
14873W        W33077   9.300  13.080   0.093  0.0559 -0.0792 -0.0370
14874W        W33078  16.025   8.567   0.269 -0.1064  0.0093  0.1500
14875W        W33079  12.129  11.323   2.462 -0.1247  0.0756  0.0170
14876W        W33080   9.123   7.984  12.238 -0.0759  0.2937  0.0541
14877W        W33081  16.920   4.515   0.068  0.2628  0.1366  0.1028
14878W        W33082  17.259  12.194   3.842  0.4886  0.1424  0.0305
14879W        W33083  15.861  12.893   4.203  0.2356  0.0326  0.2380
14880W        W33084  12.761   4.180   4.457  0.0372 -0.4151 -0.0210
14881W        W33085   3.089  14.754  13.955 -0.1192 -0.2768  0.0233
14882W        W33086   4.083   9.565  13.346 -0.0830 -0.0419  0.2059
14883W        W33087   6.714  18.580   3.445  0.0568 -0.2304  0.2437
14884W        W33088   7.690  15.178   1.430 -0.2360  0.0975  0.0579
14885W        W33089  16.656   5.053  11.807  0.2426  0.0818 -0.0716
14886W        W33090   6.994   0.112   1.174  0.1020 -0.3645  0.2642
14887W        W33091   8.470  12.550  13.579 -0.1157  0.0109 -0.0096
14888W        W33092  13.601   5.166   3.829 -0.0204  0.0987  0.2600
14889W        W33093  11.606   4.664   1.791 -0.3279  0.1710  0.0902
14890W        W33094   8.307  16.880  15.443  0.1545 -0.0636  0.3068
14891W        W33095   7.476   6.292  14.715  0.0644 -0.3520 -0.0974
14892W        W33096   1.664   2.667  11.969 -0.2376 -0.0966 -0.4680
14893W        W33097  11.780  12.077  12.755 -0.1476 -0.0193  0.0568
14894W        W33098  16.223   3.559   1.995  0.0593  0.3097  0.2558
14895W        W33099   6.414   1.412   0.885  0.2711  0.1209 -0.0228
14896W        W33100  15.698  14.387   0.146 -0.0006  0.0124  0.1930
14897W        W33101  13.483   5.157   9.970  0.2308  0.2570 -0.3386
14898W        W33102   8.919  17.052   5.048  0.0038 -0.1375 -0.1364
14899W        W33103  10.602  16.850   3.933  0.0273  0.1845 -0.1587
14900W        W33104  18.072  10.360  15.181  0.1230  0.1787  0.0953
14901W        W33105   7.571   9.148   3.401  0.2315 -0.0831 -0.1588
14902W        W33106   3.377   6.444   2.905  0.2720  0.1120  0.1455
14903W        W33107   2.608  18.094   1.524  0.0044 -0.0251 -0.2372
14904W        W33108  14.156   6.340   0.675  0.0726  0.1744 -0.1143
14905W        W33109   3.177   7.962   2.074 -0.1800 -0.4429  0.2710
14906W        W33110  14.958   7.432   1.946  0.1776  0.0739  0.2828
14907W        W33111   5.468  15.158   2.772 -0.0069  0.1454 -0.0398
14908W        W33112   6.212   5.745  11.863  0.1547  0.2141  0.0936
14909W        W33113  10.805  17.744  11.615 -0.0121  0.0359  0.1756
14910W        W33114   6.999   9.936  15.255  0.1385  0.3347  0.3167
14911W        W33115   0.090   1.456  12.475 -0.3491  0.0898 -0.1399
14912W        W33116   6.657  17.252  13.873  0.0857  0.1903 -0.2156
14913W        W33117  16.141   7.995   0.350  0.0285  0.1492 -0.0677
14914W        W33118   4.888  15.187   0.556 -0.2962 -0.0526 -0.0014
14915W        W33119   6.412   8.499   1.352  0.1689  0.3171 -0.0402
14916W        W33120   3.820   5.124   0.546  0.1493 -0.0005 -0.1624
14917W        W33121  18.388  10.855   0.936 -0.2673 -0.0424 -0.0907
14918W        W33122  15.107  15.747  13.966  0.3117 -0.0493 -0.0321
14919W        W33123  16.783   5.914  13.068  0.0746 -0.0404  0.3077
14920W        W33124   0.327  13.857  10.984  0.0391  0.0761 -0.0033
14921W        W33125   6.027  18.159  10.172  0.1590  0.0727 -0.0489
14922W        W33126  18.103   3.465   3.484  0.3017 -0.5583  0.2015
14923W        W33127   1.494  13.712  15.408 -0.1083 -0.3799 -0.1992
14924W        W33128  17.499   7.456  11.817  0.1673  0.0312 -0.1042
14925W        W33129  14.051  10.521   0.250  0.1169 -0.2865 -0.0897
14926W        W33130  14.086   6.446  12.706  0.1186  0.0871  0.0626
14927W        W33131   0.492  15.230  12.562 -0.0374  0.0311  0.1491
14928W        W33132   8.462  11.803  10.525 -0.0842 -0.0624  0.4272
14929W        W33133  16.018   0.928  13.747  0.0036 -0.3136  0.2572
14930W        W33134   5.118   3.596   9.904 -0.3221 -0.1561  0.0821
14931W        W33135  12.847   7.293  14.892 -0.0194 -0.2427  0.0524
14932W        W33136  10.316  13.201  10.411 -0.1036 -0.0394 -0.0369
14933W        W33137   8.786   7.834   0.326 -0.4005  0.4692  0.1862
14934W        W33138   3.484  10.091   2.797  0.5837 -0.0223 -0.0155
14935W        W33139   9.301   7.015  13.270 -0.0195 -0.0984 -0.2108
14936W        W33140   8.928   9.929  14.133  0.0407  0.3060 -0.2116
14937W        W33141   0.668   2.380  11.230 -0.0493  0.1308 -0.2043
14938W        W33142  17.513  16.749  13.099 -0.2976 -0.0327  0.2547
14939W        W33143   1.902  17.119   0.549  0.3079 -0.2056  0.2681
14940W        W33144   8.588  14.905  13.595  0.0985  0.3613  0.0841
14941W        W33145  12.415   2.729  14.954  0.1139 -0.0916 -0.0522
14942W        W33146   3.585  12.747  15.088  0.2088 -0.0172  0.0360
14943W        W33147   7.610   9.565  12.369  0.1715  0.0759  0.1535
14944W        W33148   9.328   4.016  10.675 -0.0716  0.1302  0.0200
14945W        W33149  11.109  13.825  14.068 -0.0602  0.1121 -0.0468
14946W        W33150  17.407   6.311   3.784  0.0110 -0.1054 -0.1638
14947W        W33151   6.052  18.269   4.953 -0.1495  0.0860  0.1955
14948W        W33152  13.731  17.758  10.918  0.3562  0.2000  0.2350
14949W        W33153  15.903  16.074   3.100  0.3496  0.1689 -0.1801
14950W        W33154  12.935   0.745  15.226  0.0628 -0.2360 -0.0010
14951W        W33155   9.774   9.272   3.977 -0.1780 -0.0310  0.1319
14952W        W33156  10.495  13.664   0.061  0.1814  0.2505 -0.1019
14953W        W33157   6.494   3.856   2.228 -0.1569  0.2557  0.4775
14954W        W33158   7.373   8.918  13.597 -0.2931 -0.4784 -0.2415
14955W        W33159  14.269  18.611  13.795  0.1353  0.0016  0.1727
14956W        W33160   8.084  13.858   1.198 -0.0483  0.3733  0.2327
14957W        W33161   0.221  14.671   2.404  0.0020  0.0681  0.1635
14958W        W33162  14.409   2.620  10.982  0.2303 -0.0620  0.0142
14959W        W33163   3.331   7.108   3.433 -0.0833  0.0267  0.3516
14960W        W33164  17.619   4.701   4.479  0.2782  0.1046 -0.3230
14961W        W33165   9.165   9.986   0.424 -0.0680 -0.1666 -0.0446
14962W        W33166   3.481   5.976  13.013 -0.2613  0.0065  0.2144
14963W        W33167   3.629   2.312  12.276  0.1210 -0.1353 -0.5213
14964W        W33168   3.480   2.295  12.739  0.0901 -0.3326 -0.3172
14965W        W33169  12.479   3.062  13.875  0.0431  0.3354 -0.2028
14966W        W33170   9.964   6.946  14.401  0.2972 -0.0532 -0.1793
14967W        W33171  16.922   4.374   3.023  0.1777  0.3427  0.2096
14968W        W33172  17.613  13.355  11.259  0.0998  0.1423  0.2660
14969W        W33173   2.166   7.247   0.011  0.2321 -0.0313  0.2568
14970W        W33174   7.757   0.575  13.113 -0.0482  0.0864  0.1484
14971W        W33175  16.177   7.988  12.259  0.2170 -0.1415  0.0392
14972W        W33176   2.125   2.593   1.084 -0.0503 -0.1646  0.3559
14973W        W33177   9.999  11.529   0.844  0.0092 -0.5229 -0.0963
14974W        W33178   0.128  14.837  12.076 -0.2196  0.2979  0.2377
14975W        W33179   7.991  12.471   2.455  0.1501 -0.2024 -0.1021
14976W        W33180   1.428  16.550   2.924 -0.0514  0.1347 -0.2274
14977W        W33181  16.291  15.813  14.283 -0.0510  0.1046  0.3503
14978W        W33182  11.114  16.737   1.348  0.0536  0.1756 -0.4907
14979W        W33183  12.741   9.269   2.000  0.1058  0.0129 -0.1385
14980W        W33184  11.088  13.578   3.197  0.0603 -0.1086  0.1408
14981W        W33185   4.444  12.981   0.205  0.0698  0.1648  0.1390
14982W        W33186   8.939  11.434  11.816  0.1928  0.1028 -0.1546
14983W        W33187  14.435   1.800  15.363 -0.1366 -0.0288 -0.3813
14984W        W33188  14.267   0.182   3.010  0.1105 -0.2249  0.3555
14985W        W33189  18.604   1.362  14.286  0.0812 -0.2439 -0.2549
14986W        W33190  15.461  16.553   4.454  0.1020 -0.4446  0.0595
14987W        W33191   6.615   4.211   2.555 -0.0183 -0.0630  0.0271
14988W        W33192   6.425   2.693   1.733  0.4239 -0.0708  0.1743
14989W        W33193  16.208   6.002   9.743 -0.0913  0.0541 -0.4087
14990W        W33194  16.108  12.782  10.537  0.0033  0.4335 -0.2029
14991W        W33195  17.692   3.973  10.594  0.0431  0.1974 -0.4982
14992W        W33196  17.771  17.683  14.179  0.2811 -0.0415  0.2101
14993W        W33197  13.864   5.975  10.315  0.1358 -0.1133 -0.0209
14994W        W33198  15.694   4.326   1.695 -0.0650  0.1876  0.0154
14995W        W33199  10.296  15.208   0.146 -0.0353 -0.1167  0.1255
14996W        W33200   5.597   8.800   4.707 -0.3802 -0.0205 -0.0593
14997W        W33201  17.729  10.207   3.870 -0.2504 -0.0864  0.0447
14998W        W33202   0.074  14.180   3.445 -0.4370  0.0917  0.0539
14999W        W33203  14.649  16.863  12.148 -0.0071 -0.3458  0.4016
15000W        W33204   7.536   0.466   4.253 -0.0350 -0.3301  0.0250
15001W        W33205   2.225  15.995   1.552  0.0193 -0.1043  0.1259
15002W        W33206   8.409   0.030  12.443  0.0157  0.0223  0.1162
15003W        W33207  16.701  10.710   2.400  0.2388  0.1121 -0.1297
15004W        W33208   2.152  18.611  11.913 -0.1406  0.1518 -0.1851
15005W        W33209   4.050   0.324   0.669 -0.0555  0.2800 -0.0306
15006W        W33210   3.204  14.081  13.943  0.1690  0.1831  0.3794
15007W        W33211   1.412  13.203  11.930 -0.2476 -0.3719 -0.4248
15008W        W33212   2.752  18.354   2.522  0.0625 -0.1165  0.0624
15009W        W33213   7.293  11.925   4.656  0.2128 -0.0496 -0.3199
15010W        W33214  13.771  12.530  12.283  0.4398 -0.0416 -0.1611
15011W        W33215  17.220   8.286  15.140  0.2571  0.0519  0.0566
15012W        W33216   2.517   1.559   1.741 -0.0456 -0.1643 -0.0197
15013W        W33217  11.667   2.088   4.808 -0.2694  0.1953  0.0026
15014W        W33218   6.405  14.818   1.148 -0.0950  0.3043 -0.1204
15015W        W33219  10.721   6.809   3.416  0.0068 -0.1743 -0.1609
15016W        W33220   7.239   8.437   4.028  0.2623 -0.0454  0.2155
15017W        W33221  12.930  13.730   1.824  0.0733  0.5015  0.1150
15018W        W33222   3.554  10.900  11.474 -0.2628 -0.0193 -0.0061
15019W        W33223  11.284   6.609  12.880 -0.1065  0.2336 -0.1974
15020W        W33224  16.093  11.962   3.958 -0.1220 -0.2009 -0.0377
15021W        W33225   7.864  18.621   0.399 -0.1164  0.0078 -0.1914
15022W        W33226  11.241   3.219  11.995 -0.4015  0.3055 -0.0606
15023W        W33227  14.746  14.439  12.133 -0.0055 -0.1294  0.3631
15024W        W33228   7.085   3.828  12.751  0.0957 -0.1205 -0.0454
15025W        W33229  11.303  14.646  11.280  0.0303 -0.0422  0.2722
15026W        W33230  13.653   4.676  14.709  0.2096  0.2305  0.3250
15027W        W33231   4.791   7.402  11.556  0.0081  0.1449 -0.1707
15028W        W33232   5.250  11.722  11.691  0.1123 -0.0149 -0.2551
15029W        W33233  10.187   9.059  14.253 -0.3430  0.1600  0.0753
15030W        W33234  17.679  11.852  12.320 -0.0883  0.1521  0.0199
15031W        W33235  14.256   9.263  12.780  0.2433  0.3587 -0.0556
15032W        W33236  16.936  17.395   0.554  0.2657 -0.2020 -0.0858
15033W        W33237  16.781   0.972   1.245  0.0649 -0.2098 -0.1366
15034W        W33238   1.196   6.755  11.716 -0.1953 -0.4756  0.0942
15035W        W33239  10.567   9.629   2.603  0.2225 -0.0253  0.1070
15036W        W33240  14.183  11.798   4.407  0.0929  0.0131  0.0339
15037W        W33241  11.360  16.617   4.261  0.2489 -0.0546 -0.0220
15038W        W33242   2.834   6.442  11.495  0.1107  0.3490  0.0919
15039W        W33243   4.255   4.870   1.214  0.0098 -0.2844 -0.3754
15040W        W33244  11.128  14.762   4.415  0.1321 -0.0975  0.0032
15041W        W33245  14.358   0.375  13.352  0.0016  0.3341 -0.0184
15042W        W33246   2.518  12.990   2.814 -0.2648 -0.2210  0.0337
15043W        W33247   4.493   2.093  11.944  0.1528 -0.0392  0.2227
15044W        W33248  11.469   4.728   1.265 -0.3211 -0.0860  0.1345
15045W        W33249  11.887   5.323  13.724 -0.2283 -0.0813  0.2055
15046W        W33250   1.736  18.361  15.269  0.2891 -0.1788  0.1590
15047W        W33251  10.536   8.290   4.954 -0.0220 -0.1057 -0.0399
15048W        W33252   8.895  13.793   5.919 -0.1191 -0.0319  0.0314
15049W        W33253  14.414  18.213  11.514  0.0159  0.0373 -0.2425
15050W        W33254   3.187  11.793   4.762 -0.3862  0.1297  0.0084
15051W        W33255   3.299  16.423   4.640 -0.0854 -0.0573  0.1830
15052W        W33256   4.773   6.707   0.740 -0.0224 -0.2507  0.1277
15053W        W33257   8.211  12.291   3.189 -0.1070 -0.3018  0.1450
15054W        W33258  12.072  13.379  10.322  0.1199  0.0424  0.0311
15055W        W33259   7.857   2.228   5.297  0.1239 -0.3016 -0.0505
15056W        W33260  16.126   5.992  14.729 -0.2080 -0.2515 -0.3538
15057W        W33261   8.099   7.873  13.104  0.0655 -0.0873  0.1921
15058W        W33262   2.811  10.640   2.331 -0.1714  0.0452 -0.0007
15059W        W33263   1.169  17.038   1.458 -0.2996 -0.1311  0.3108
15060W        W33264   5.420  14.440   0.680  0.0468  0.0825 -0.1107
15061W        W33265   8.448   3.935   5.064  0.1343 -0.2958 -0.0326
15062W        W33266  13.669   1.431   4.215 -0.2003  0.2124  0.0121
15063W        W33267  12.262  17.658  13.686  0.3164 -0.0590 -0.0862
15064W        W33268   5.802  16.103   3.283 -0.0255  0.1217 -0.0507
15065W        W33269   1.340   3.646  12.465 -0.1147 -0.2790  0.2205
15066W        W33270   5.079  12.057  15.396 -0.1743 -0.1630 -0.1077
15067W        W33271   2.361   6.107   1.399 -0.0397 -0.0730 -0.1721
15068W        W33272   9.009   1.594  13.023  0.0003  0.2521 -0.1276
15069W        W33273   4.125   4.698   2.150 -0.2114 -0.2817 -0.0678
15070W        W33274   6.221  15.779  12.257 -0.0051 -0.1934  0.1803
15071W        W33275  17.995   1.492   3.921 -0.0734 -0.1231 -0.2700
15072W        W33276   7.256  13.572   2.476  0.0407  0.1215 -0.0586
15073W        W33277   6.581   2.563  12.810 -0.5005  0.0976  0.1492
15074W        W33278  13.266  12.810  13.634  0.0440  0.3589  0.0010
15075W        W33279   1.738  12.745   3.429 -0.2897  0.2195 -0.1370
15076W        W33280   5.891  12.275   2.698 -0.2002 -0.1463  0.1751
15077W        W33281  15.745  14.229   0.957 -0.3168 -0.1098 -0.0548
15078W        W33282  13.651   4.100  10.811  0.2282  0.0735 -0.0239
15079W        W33283   3.408  12.374  12.845  0.0508 -0.3158  0.0829
15080W        W33284   9.036  13.787   2.558  0.5065 -0.2251  0.2277
15081W        W33285  15.012  17.868  13.712  0.1750 -0.1578  0.1276
15082W        W33286  12.368  11.718   1.503 -0.0570 -0.1758  0.0176
15083W        W33287   0.896  10.756  13.297 -0.4420 -0.2231 -0.0255
15084W        W33288   1.001   8.278  13.145 -0.2956 -0.0966 -0.1952
15085W        W33289  12.723  12.282  12.639  0.1743 -0.3709 -0.1619
15086W        W33290  16.105   5.150   2.686  0.1220  0.1989  0.1755
15087W        W33291   7.092  17.564   0.259 -0.0917 -0.2004 -0.0827
15088W        W33292  12.794  16.655  12.240  0.1037 -0.1522  0.0425
15089W        W33293  10.899  16.446   2.694  0.2258 -0.1571 -0.1138
15090W        W33294   6.629   0.475  12.708  0.0615 -0.0178 -0.2119
15091W        W33295  11.425   7.907   4.373 -0.0330 -0.1438  0.0446
15092W        W33296  10.286  15.612   1.219 -0.1697 -0.1034  0.0892
15093W        W33297   9.892  13.773   0.603  0.0393  0.1211 -0.3678
15094W        W33298  17.975  17.307   0.855 -0.0115  0.2365  0.1758
15095W        W33299  14.374   2.686  14.754 -0.1192 -0.0597 -0.1708
15096W        W33300  15.687  15.647   3.353  0.2660  0.0883 -0.1728
15097W        W33301  17.892  11.562   0.074  0.3351  0.2111 -0.1141
15098W        W33302   1.117   1.296   1.863  0.0524 -0.1421 -0.1208
15099W        W33303   0.285  14.524   3.818  0.2151 -0.2528  0.0586
15100W        W33304   5.424   3.906   0.184 -0.0559  0.2622  0.2240
15101W        W33305   1.502   2.777  13.564 -0.2225 -0.1024 -0.1805
15102W        W33306   3.322  15.972  15.243  0.0128 -0.5912  0.2683
15103W        W33307  14.288   1.454  14.029 -0.0956 -0.2800  0.4083
15104W        W33308  12.941   0.561  11.928  0.0759  0.3481 -0.0088
15105W        W33309   6.808   8.178   4.111  0.0017  0.0189  0.0318
15106W        W33310  15.600   6.054  13.639 -0.2304  0.2887 -0.0240
15107W        W33311  17.251  12.002  15.390  0.0188 -0.1238  0.1503
15108W        W33312  14.011  10.326  13.913 -0.1211  0.0408 -0.2023
15109W        W33313   4.381  12.441   1.287 -0.1750  0.0249  0.3137
15110W        W33314   7.701   4.495  15.330 -0.2101 -0.3054  0.1696
15111W        W33315  15.918  15.084   5.083  0.0526  0.1406 -0.0920
15112W        W33316   8.730  12.591   0.645  0.0263 -0.0764  0.1697
15113W        W33317  10.192  16.923   3.025 -0.2073 -0.3142  0.2967
15114W        W33318  10.944   0.529  14.126 -0.1483  0.1842  0.1817
15115W        W33319   2.772   8.614  11.940 -0.0423  0.1964 -0.0066
15116W        W33320   2.954  13.374  15.436  0.2597 -0.0355 -0.1990
15117W        W33321   3.400  14.127   4.279 -0.2533 -0.0121  0.0293
15118W        W33322  12.037  17.289   4.697 -0.0390 -0.1345  0.1658
15119W        W33323   1.439  17.296   0.471  0.0359 -0.2742 -0.0086
15120W        W33324  10.456  18.145  12.989 -0.0161  0.1126 -0.0999
15121W        W33325   5.590  13.304   0.073  0.2009 -0.0295 -0.4270
15122W        W33326   6.016  14.188  12.822 -0.1669 -0.0864  0.2992
15123W        W33327   1.212  12.713   4.394 -0.2046  0.0306  0.1474
15124W        W33328  16.557   9.101  14.997  0.4903  0.1834  0.0631
15125W        W33329  16.728   7.683   4.222  0.1205  0.0220  0.2981
15126W        W33330   8.298   0.271  11.877 -0.1399 -0.0795 -0.0931
15127W        W33331   7.477  18.258   3.975  0.1050  0.1122 -0.0896
15128W        W33332  15.971   0.371   3.009 -0.1609  0.2134 -0.1519
15129W        W33333   4.599  17.971  12.731  0.2236 -0.0178 -0.2070
15130W        W33334  13.594  11.176  12.248  0.2402  0.1343 -0.0749
15131W        W33335   6.065   4.720  13.441 -0.0098 -0.2144  0.2499
15132W        W33336   9.271   9.024   3.285  0.0510  0.0856 -0.1886
15133W        W33337  13.974   0.994   4.024 -0.0238 -0.0176  0.0136
15134W        W33338   3.600   2.709   0.759  0.2067  0.3331  0.0869
15135W        W33339   1.621  16.652  14.777  0.1638 -0.0477  0.0234
15136W        W33340   9.469   2.980   4.127  0.0824 -0.1510  0.0160
15137W        W33341  11.667   8.355  11.781 -0.3916  0.1548  0.2822
15138W        W33342  16.807   8.094  15.172  0.1110  0.0693 -0.2289
15139W        W33343   1.275  16.672   1.742  0.0909  0.0724  0.1172
15140W        W33344   8.732  13.920   0.711  0.2926 -0.2466 -0.0902
15141W        W33345   4.529  11.007   0.652  0.1176  0.1563 -0.1065
15142W        W33346   1.799  17.996   4.515  0.1494 -0.1820  0.1901
15143W        W33347  15.334  12.667  11.896 -0.4797 -0.0758  0.0495
15144W        W33348   0.319  13.368  14.513  0.5641  0.4651 -0.1192
15145W        W33349   1.500  16.290  14.413 -0.0381  0.1272  0.0713
15146W        W33350   5.710  14.733   2.640 -0.1144  0.5707  0.0756
15147W        W33351  12.665  11.117   4.517 -0.1333  0.4849  0.0853
15148W        W33352   6.223   7.804  10.666 -0.0317  0.1470  0.3047
15149W        W33353  11.782   3.160  15.399 -0.2853  0.0355 -0.1458
15150W        W33354   4.572  15.779   3.771 -0.0316  0.0826  0.0467
15151W        W33355   2.327   1.870  11.027  0.1608 -0.0360 -0.4178
15152W        W33356  15.987  13.262   1.278  0.1364 -0.0273 -0.3551
15153W        W33357  14.151   9.344  11.875 -0.0838  0.1801 -0.1458
15154W        W33358  18.371  17.642   1.984 -0.0894 -0.2249 -0.0749
15155W        W33359   6.905   4.281   3.828 -0.1933  0.0953 -0.3132
15156W        W33360  11.909  14.432  12.829  0.2123 -0.1151  0.0174
15157W        W33361  13.900   8.219  13.659 -0.1807 -0.3883 -0.0673
15158W        W33362   6.907   8.450   4.526 -0.3945 -0.0109  0.3772
15159W        W33363  16.370   9.796   4.695  0.1506  0.1745  0.0202
15160W        W33364   7.779   7.609  11.838 -0.0345 -0.0622  0.0017
15161W        W33365   8.369  12.266  14.280 -0.2592 -0.3275 -0.2208
15162W        W33366   8.869   9.194  12.461  0.1060  0.0371 -0.2107
15163W        W33367   8.814  17.525   4.802 -0.1858  0.0906 -0.0145
15164W        W33368  13.568   1.245  11.384  0.1341  0.1546  0.1053
15165W        W33369   1.106   5.479  14.060  0.0940 -0.0976 -0.1200
15166W        W33370  15.910   4.803  12.324  0.0682  0.1074 -0.1850
15167W        W33371  13.967  17.072  11.591 -0.0790 -0.0519  0.1079
15168W        W33372   8.450   1.236   3.605  0.2041 -0.0847  0.1520
15169W        W33373   9.662  13.343   2.924  0.1828 -0.0614  0.1121
15170W        W33374   9.891  11.917   2.959  0.0430  0.0792 -0.1460
15171W        W33375   1.479   7.830  14.269 -0.0522 -0.0164  0.0308
15172W        W33376  14.832   5.694  12.484 -0.0770 -0.0053 -0.3207
15173W        W33377  12.026   1.045   0.939 -0.0685  0.3688 -0.3384
15174W        W33378  16.685   7.312  12.270 -0.0581  0.2477 -0.2452
15175W        W33379  10.211   3.251  14.669  0.1802 -0.1732 -0.2087
15176W        W33380  10.524  18.333  14.035  0.1467 -0.1012  0.0730
15177W        W33381  13.135   3.932   4.205 -0.0543  0.0191  0.0682
15178W        W33382   3.216  18.565   1.011 -0.1073  0.1602 -0.0694
15179W        W33383   0.600   9.042  12.996  0.0683 -0.2748 -0.1274
15180W        W33384   8.215   5.858   3.671  0.1947  0.1531  0.3256
15181W        W33385   2.076  11.870  12.783  0.2635 -0.0159  0.3887
15182W        W33386  12.660   4.298  10.398 -0.0406  0.1480 -0.0914
15183W        W33387  12.461  17.039   3.716 -0.3234 -0.0418 -0.2169
15184W        W33388   6.859  12.010  14.920 -0.0522  0.2484 -0.0634
15185W        W33389   4.501  10.858  15.210  0.1268  0.1303  0.3476
15186W        W33390  13.866  13.533   0.548  0.1807  0.0204 -0.0272
15187W        W33391  16.208  12.241   2.559 -0.2773  0.0015 -0.0684
15188W        W33392  13.803  12.532   0.426  0.0728 -0.1323 -0.0094
15189W        W33393   5.786  11.631  10.918  0.1240 -0.1331  0.0239
15190W        W33394   5.651   2.485  13.389  0.3216  0.0222  0.4263
15191W        W33395   9.959  12.660  14.061 -0.1363  0.0411 -0.1059
15192W        W33396   8.508  15.438   3.914 -0.1662 -0.3673 -0.0270
15193W        W33397  17.361   8.857  12.899 -0.0520 -0.1142  0.1091
15194W        W33398   0.994   2.847  13.508 -0.0090 -0.0118 -0.0389
15195W        W33399   0.348  16.116  11.331  0.1131 -0.0764 -0.0057
15196W        W33400  16.069  14.851  11.548 -0.1130 -0.0691 -0.2874
15197W        W33401   4.068  17.763   1.831  0.0939 -0.0959 -0.1520
15198W        W33402  17.682   6.482   9.825  0.1221  0.1328 -0.1016
15199W        W33403  13.624  10.557   1.986 -0.1261  0.2357  0.0724
15200W        W33404   2.682   8.343   4.409  0.0606 -0.1596 -0.1803
15201W        W33405   4.241   8.059  14.647  0.0514  0.0718  0.1526
15202W        W33406   3.601  12.088  14.350 -0.2763  0.0475  0.0316
15203W        W33407  17.253   2.484  12.509  0.0211 -0.1165 -0.1545
15204W        W33408   2.250   8.943  10.999 -0.3326  0.1486 -0.0008
15205W        W33409  14.911   6.348  11.704 -0.5103 -0.0507  0.0193
15206W        W33410  15.466   2.768   2.689  0.0502 -0.0706 -0.0820
15207W        W33411   3.114   7.227  11.157 -0.0259  0.1561 -0.0004
15208W        W33412   5.711   2.490  11.210 -0.0722  0.0162 -0.2004
15209W        W33413   5.605  15.086   4.625  0.1795 -0.1788  0.3235
15210W        W33414   4.686   7.325  14.871 -0.1805  0.0384  0.0482
15211W        W33415  13.906  18.299   4.082  0.0107  0.0052 -0.0886
15212W        W33416   5.522  17.255   0.764  0.3361 -0.2704  0.0035
15213W        W33417   2.370  16.476   1.757  0.2157 -0.1752 -0.0290
15214W        W33418   8.311  14.874   1.032 -0.0945 -0.3198 -0.1513
15215W        W33419  11.707  12.459  13.901  0.2425  0.0357  0.3415
15216W        W33420  17.315  13.934  14.354 -0.0637  0.0732 -0.1483
15217W        W33421  13.115  13.852   3.436 -0.0643 -0.0832 -0.2738
15218W        W33422   8.374   8.269   1.787  0.0599 -0.0560 -0.0456
15219W        W33423   4.303  18.240   1.964 -0.2227 -0.0988 -0.2452
15220W        W33424  16.215  13.381   3.096 -0.4035  0.0433 -0.0753
15221W        W33425   8.446  13.765   1.784  0.2254 -0.0600 -0.1088
15222W        W33426  17.080   1.771   2.894 -0.1038 -0.1459  0.0358
15223W        W33427  10.846   2.381  11.981 -0.0853 -0.1327 -0.2641
15224W        W33428  17.507   6.703  13.807 -0.0174 -0.3658  0.1773
15225W        W33429   4.380   1.982   0.686 -0.0206  0.2652  0.0285
15226W        W33430  17.890   8.551  10.292  0.0189  0.1159 -0.1622
15227W        W33431  10.059  13.850  10.508  0.1142  0.0218 -0.1837
15228W        W33432  16.173  12.617  12.652  0.0595 -0.0645  0.3818
15229W        W33433   0.438  14.692   0.219  0.4299  0.1077 -0.0533
15230W        W33434   3.163   1.875   4.059 -0.1155  0.4337  0.0877
15231W        W33435   2.862   5.439  14.971 -0.0987  0.1272 -0.0066
15232W        W33436   4.400  14.324   1.310 -0.1919 -0.1683  0.1157
15233W        W33437  18.190   0.640  10.929 -0.0313  0.1999 -0.0989
15234W        W33438   2.656  12.806   3.547 -0.2405 -0.0977 -0.1716
15235W        W33439  17.129  16.490  13.131 -0.0173 -0.0736 -0.0423
15236W        W33440   3.784   2.011   3.048  0.2780  0.3058 -0.3842
15237W        W33441   0.420  11.749  14.979  0.0736 -0.1910 -0.1051
15238W        W33442   3.547  16.106  13.951  0.1086  0.1562  0.2767
15239W        W33443   7.099  14.304  12.603  0.1530 -0.0928  0.0375
15240W        W33444   6.419  11.502   3.523 -0.0940 -0.1019 -0.0580
15241W        W33445  17.422   3.871   0.454  0.0729  0.1491 -0.0598
15242W        W33446   2.276  13.124   1.587  0.3493 -0.1068  0.0350
15243W        W33447  13.738  17.014   1.155 -0.1835  0.1245 -0.2004
15244W        W33448   5.131   4.178  12.023  0.1476 -0.2837  0.0165
15245W        W33449  16.405  18.380  15.435 -0.1305 -0.1170  0.0661
15246W        W33450  11.604  12.513  13.042  0.0956  0.1636 -0.0522
15247W        W33451   9.839  13.217  14.243  0.2369 -0.1502  0.3472
15248W        W33452   3.723  11.904  12.845  0.1628  0.0383  0.1732
15249W        W33453   8.709  11.222  13.580  0.1859  0.0223 -0.0457
15250W        W33454   0.301   6.045  13.820 -0.2410  0.0668  0.0325
15251W        W33455   5.614   6.950   9.582  0.0877 -0.1611  0.1248
15252W        W33456   8.952  12.198   2.025 -0.1769  0.0985 -0.0963
15253W        W33457   8.064  16.755   3.662 -0.0996 -0.3449 -0.2854
15254W        W33458  12.048   7.089   3.367 -0.1592  0.2075  0.4841
15255W        W33459   1.403  15.749  14.929  0.0459 -0.1378  0.1261
15256W        W33460   8.884  15.233  15.288 -0.0536  0.0643  0.1024
15257W        W33461  14.232  15.430   3.810  0.0668  0.0493  0.0076
15258W        W33462  13.170  13.390   3.731  0.2386 -0.0810 -0.3615
15259W        W33463  12.572  12.826  14.480  0.0568 -0.1227  0.1625
15260W        W33464   2.626   7.765   0.585  0.0926  0.1812  0.0101
15261W        W33465  12.270   7.250   0.157  0.3050  0.0070 -0.0736
15262W        W33466  10.538  12.653   1.083  0.0151  0.3628 -0.2250
15263W        W33467  14.454  10.535   3.108 -0.3383 -0.2769 -0.2546
15264W        W33468   9.591   8.685  13.581  0.0541 -0.0916  0.0713
15265W        W33469   4.454   6.893   1.202 -0.2258 -0.2087  0.4115
15266W        W33470   6.569   8.709  12.844 -0.0601 -0.0723  0.1279
15267W        W33471  10.149  17.421  11.911 -0.0229 -0.1719  0.0454
15268W        W33472   0.255   2.457  14.032  0.1659 -0.0225 -0.1789
15269W        W33473  18.143  17.665   5.018  0.1548 -0.3274 -0.1841
15270W        W33474   3.692  13.257  13.117 -0.2604  0.2931 -0.0469
15271W        W33475   6.497   6.074   2.121 -0.0858  0.1061 -0.1130
15272W        W33476  13.540   7.321  11.660  0.1148  0.0035 -0.0830
15273W        W33477  17.993  13.692  11.411 -0.0568  0.0679  0.3371
15274W        W33478   0.572  15.314  13.916 -0.0954  0.0393 -0.1171
15275W        W33479   1.629   4.330  10.415 -0.3545 -0.3415 -0.3496
15276W        W33480   2.452   3.123  12.679 -0.1482  0.1004 -0.1272
15277W        W33481  10.428  14.493   0.196  0.0617  0.1342 -0.2048
15278W        W33482  12.281   9.342   1.294 -0.1184  0.2669 -0.1151
15279W        W33483   4.909  11.994   1.731 -0.0452 -0.2688 -0.1745
15280W        W33484  11.311   8.711   0.627 -0.1541 -0.0211 -0.3772
15281W        W33485   3.234  17.997   3.552 -0.0538  0.0049 -0.1215
15282W        W33486   9.844  14.400  11.910  0.0153  0.0107  0.2066
15283W        W33487  12.792  14.434   1.855 -0.1772  0.1903 -0.0691
15284W        W33488   3.738   6.660   2.484 -0.4280  0.1078 -0.1652
15285W        W33489  14.107   8.488  13.235  0.2494 -0.0682 -0.1242
15286W        W33490  16.095  18.420  12.414  0.1074 -0.1108 -0.1068
15287W        W33491   4.022  16.415   3.003 -0.0189  0.2304 -0.0944
15288W        W33492  18.484  17.776   1.538 -0.1548  0.1169  0.0211
15289W        W33493  17.015   9.529   3.507  0.0290  0.0572  0.1122
15290W        W33494   1.725  18.102   4.043  0.2235 -0.1849  0.1348
15291W        W33495   0.084   4.016  15.019 -0.2512 -0.0128  0.3386
15292W        W33496   0.202   4.503   1.984  0.0639 -0.2296  0.3307
15293W        W33497   8.152  12.187  11.767  0.1164 -0.0732  0.0472
15294W        W33498  17.028  10.945   3.890 -0.0380 -0.2063 -0.1922
15295W        W33499  15.883   7.193   1.540 -0.0765 -0.1321 -0.1878
15296W        W33500   8.584   8.935  13.549 -0.1916 -0.1899 -0.1649
15297W        W33501  10.077  12.194  14.304  0.0455 -0.0746 -0.1101
15298W        W33502  12.152   0.133  11.986 -0.2105  0.3348  0.3032
15299W        W33503   0.484  15.094   1.494  0.0060 -0.1016  0.0697
15300W        W33504   9.735   7.038  13.950  0.2489  0.1627  0.1505
15301W        W33505  14.744  17.712   1.847 -0.0104 -0.0111 -0.0693
15302W        W33506   9.649  16.907   2.439 -0.2674  0.1864 -0.1916
15303W        W33507   1.562   4.134  13.993 -0.0269 -0.0956 -0.0389
15304W        W33508  10.279   7.562  14.949 -0.2350 -0.1745  0.1030
15305W        W33509  12.580  13.218  12.508  0.1162  0.4000 -0.0091
15306W        W33510   4.138  15.876  10.815  0.0344 -0.3263  0.0323
15307W        W33511  10.694  12.190   1.033  0.3295  0.0572  0.0859
15308W        W33512   4.752   0.905   2.860  0.1347 -0.2730 -0.1618
15309W        W33513   0.569  16.065   0.093 -0.0326  0.0717  0.1334
15310W        W33514  15.332   9.721   4.663  0.0489 -0.1745 -0.3510
15311W        W33515   7.619  14.456   4.202 -0.0700 -0.3452  0.5829
15312W        W33516  12.745   7.508   4.285  0.1227  0.0032  0.0135
15313W        W33517  10.834   9.709   3.073 -0.1139 -0.0383 -0.2593
15314W        W33518   1.785   1.178  11.271 -0.0316 -0.1448  0.1533
15315W        W33519  11.625   1.040  13.043  0.2076 -0.2713  0.3383
15316W        W33520  15.665   2.117  11.207  0.0127 -0.1711 -0.3320
15317W        W33521   5.258  12.408   0.350 -0.0046 -0.3463  0.0017
15318W        W33522  11.812  12.545   3.303  0.1983 -0.0981  0.0896
15319W        W33523   0.611   7.497  14.716 -0.0033 -0.2981  0.0669
15320W        W33524  10.517   6.025  11.950 -0.0718  0.3758 -0.1370
15321W        W33525  14.528   8.900   2.934 -0.2520 -0.0980 -0.3402
15322W        W33526   4.109   0.339  14.013  0.0174 -0.0268  0.1441
15323W        W33527   9.196  12.876   4.215 -0.1496 -0.0146 -0.0757
15324W        W33528   0.326   1.727   4.239 -0.1539 -0.0456  0.1496
15325W        W33529   3.684  14.577   0.777 -0.1456 -0.1227 -0.4524
15326W        W33530   3.488   9.411   4.283 -0.0806  0.2762 -0.0023
15327W        W33531  15.323  15.102  11.675  0.0176  0.1906  0.1319
15328W        W33532   2.612   3.217  14.279  0.0033 -0.1782 -0.0424
15329W        W33533   8.951   7.752  12.681  0.1063 -0.1764  0.4682
15330W        W33534   9.238  18.110  15.329 -0.0377 -0.0374  0.1615
15331W        W33535   5.106   8.094  14.907  0.1151  0.0238 -0.3565
15332W        W33536  10.621   5.926   3.891  0.0232  0.2794 -0.0903
15333W        W33537  18.477   8.742  15.358  0.1612  0.1644 -0.1945
15334W        W33538  13.174   5.278  15.283  0.1172  0.1703  0.0116
15335W        W33539   0.166  15.118  13.543 -0.0147  0.1409 -0.1533
15336W        W33540  15.262  17.788   4.895  0.2698 -0.0581 -0.0586
15337W        W33541  18.425   3.460  10.837 -0.0465  0.2097 -0.1368
15338W        W33542  16.394  11.705   1.838 -0.0661  0.1114  0.0331
15339W        W33543  17.575  16.691  14.950  0.0649 -0.0888 -0.2097
15340W        W33544  18.131   2.015  14.174  0.1855 -0.0696 -0.2370
15341W        W33545   8.249  11.356  11.014 -0.1141 -0.3569  0.0594
15342W        W33546   3.707   4.327  14.788 -0.1086 -0.0488 -0.1063
15343W        W33547  17.279   6.557  10.798 -0.1281  0.0211 -0.0152
15344W        W33548  14.925  11.704   2.860 -0.1145 -0.1805 -0.0358
15345W        W33549   8.702   5.293  13.234 -0.0486 -0.0909 -0.0545
15346W        W33550  10.384  10.622   0.395 -0.0263 -0.1718 -0.2647
15347W        W33551  10.910  11.952   2.025  0.1775 -0.0690 -0.3994
15348W        W33552  13.493  16.914   3.264  0.2187  0.1471 -0.2455
15349W        W33553   3.771  14.268  11.167  0.4067 -0.1909  0.2770
15350W        W33554   5.477   0.673   4.260 -0.0174 -0.1488  0.0265
15351W        W33555  10.555   2.853  13.151  0.2503  0.0157  0.1557
15352W        W33556  10.023   0.969  11.858 -0.0313  0.0849  0.0662
15353W        W33557  11.905  12.637   4.636 -0.2846  0.0916 -0.2388
15354W        W33558  11.409   6.356  11.417  0.0119  0.0437 -0.1135
15355W        W33559   4.195  15.218   4.594  0.0640 -0.0005  0.3733
15356W        W33560   3.905   8.532  14.007 -0.5236 -0.2124  0.3735
15357W        W33561   6.239   9.123   0.497 -0.1387 -0.0304 -0.0208
15358W        W33562  11.256   2.207   1.728  0.1208  0.1746 -0.2235
15359W        W33563  16.353   6.687  11.865  0.2551  0.2339  0.0201
15360W        W33564  15.277  10.825  14.205  0.1065 -0.1588 -0.2625
15361W        W33565  17.352   0.244  11.118  0.2033 -0.1523 -0.2696
15362W        W33566   7.288   9.890   4.052 -0.0075  0.0030  0.1438
15363W        W33567  14.917  13.273   4.299 -0.0434 -0.0779 -0.0590
15364W        W33568  14.840  10.442   2.321  0.0345 -0.0189 -0.0567
15365W        W33569   0.450   4.173  13.295  0.2399 -0.1019 -0.0734
15366W        W33570  13.609   8.210   0.611 -0.0954  0.1398  0.1061
15367W        W33571  15.989  16.768  14.111  0.0233 -0.0635 -0.1581
15368W        W33572  15.000   6.150   3.686  0.4370  0.0213  0.5337
15369W        W33573   9.941  15.862   1.601 -0.0436 -0.3015  0.0279
15370W        W33574  17.415   8.519   2.038 -0.0412 -0.0760  0.1578
15371W        W33575   0.027   9.876   4.547  0.0083  0.0037  0.0730
15372W        W33576  14.121   7.589   2.183  0.1100 -0.2323  0.0406
15373W        W33577   2.122  15.107  13.303 -0.3939 -0.2974 -0.0746
15374W        W33578   6.033  10.460  15.033 -0.0496 -0.0822  0.1586
15375W        W33579  13.767  10.807   5.126  0.1517  0.1507  0.0487
15376W        W33580   8.910  16.398   5.189  0.0545 -0.0283  0.0298
15377W        W33581  13.015   1.754   4.286  0.2418  0.0840  0.0419
15378W        W33582   7.265   7.900  10.032  0.1951  0.0561 -0.1716
15379W        W33583  17.417  17.185  13.444 -0.1595 -0.1067 -0.1035
15380W        W33584  14.538   0.123  11.321  0.0122  0.1101 -0.0984
15381W        W33585  12.344  12.946   1.998 -0.0292  0.0039 -0.2819
15382W        W33586   9.000   4.253  14.618 -0.0701 -0.1016  0.3599
15383W        W33587   8.295  12.971  13.363  0.3533 -0.0475 -0.1435
15384W        W33588   5.631  16.108  13.827 -0.2920  0.0310  0.2541
15385W        W33589   1.844   3.771  15.189  0.2916  0.2005 -0.0823
15386W        W33590  13.043   4.962  11.122  0.0918  0.3296  0.0620
15387W        W33591   6.824   0.447  13.551 -0.1941  0.2458 -0.2084
15388W        W33592   4.154   6.431  14.680  0.1490 -0.2578  0.1364
15389W        W33593   5.628   8.393   0.765  0.0308 -0.0036 -0.1894
15390W        W33594   4.918   5.942   1.959 -0.0332 -0.0975  0.0616
15391W        W33595   5.184  10.009   2.944 -0.1108  0.2398 -0.4699
15392W        W33596   2.209  17.178   0.126 -0.2634  0.3940  0.0274
15393W        W33597   6.563  16.033   3.118  0.3211 -0.0164 -0.2185
15394W        W33598   5.861  16.932  14.106  0.2710  0.0541  0.3304
15395W        W33599  17.331   0.413  13.022  0.2826 -0.1804 -0.0346
15396W        W33600   1.895   2.865   4.182 -0.2832  0.1304  0.1488
15397W        W33601  17.863  14.565   1.489 -0.1048 -0.1582 -0.2491
15398W        W33602  10.980   4.975  14.837 -0.2475  0.3991 -0.0789
15399W        W33603   3.733   7.840  11.273  0.2712  0.0304 -0.2712
15400W        W33604   4.842   6.498  15.269  0.1570  0.0339  0.1491
15401W        W33605  12.832  14.328  13.398 -0.1534  0.0078 -0.2117
15402W        W33606  11.824   9.435   3.643  0.0189 -0.2046  0.1086
15403W        W33607   3.045   0.015   2.209  0.2358 -0.1307 -0.0366
15404W        W33608   3.752  12.917  11.122  0.3433  0.2529  0.1681
15405W        W33609   9.083  15.183   4.579  0.1398 -0.0013  0.3031
15406W        W33610   6.020   2.420  12.988  0.1423 -0.0226 -0.1508
15407W        W33611   2.442  13.421  15.208 -0.1968  0.2476  0.1524
15408W        W33612   6.577  11.060   0.504 -0.1174  0.0472 -0.1392
15409W        W33613  13.735   2.170   2.079  0.1692  0.0864 -0.4578
15410W        W33614   5.786   8.130   1.262  0.0959 -0.2780 -0.0404
15411W        W33615   3.308   2.826  14.644 -0.0865 -0.0117  0.0636
15412W        W33616   2.869  15.498   0.394 -0.0031  0.2194 -0.3496
15413W        W33617  18.510   2.167   0.657 -0.0250 -0.0970  0.2419
15414W        W33618  16.966   0.442  15.425  0.0750  0.0224 -0.2610
15415W        W33619  11.622  14.061  11.850  0.0433  0.1821  0.0370
15416W        W33620   1.364  13.763   1.160 -0.0344  0.2063  0.1108
15417W        W33621   2.320  12.519  14.327 -0.1370 -0.0390  0.0318
15418W        W33622   1.383   3.750  13.696 -0.1852  0.2370  0.3571
15419W        W33623   8.931   3.506   1.511 -0.3647  0.1677  0.2648
15420W        W33624   6.292   6.361   0.007  0.0129 -0.0683 -0.0357
15421W        W33625  18.382   4.676  13.816 -0.0106 -0.1858  0.0112
15422W        W33626   9.027  18.420  12.971  0.0173  0.2246 -0.3902
15423W        W33627   8.347  17.944  11.608  0.3733  0.1369  0.1203
15424W        W33628  14.255  11.284   1.811 -0.2143  0.0861  0.2499
15425W        W33629  13.676  10.037   0.733  0.1287 -0.1721 -0.1584
15426W        W33630  10.006  11.861  11.359 -0.1937 -0.0073 -0.1282
15427W        W33631   3.832   5.653   1.840  0.2685 -0.0798 -0.1422
15428W        W33632   8.453   9.086   5.430 -0.3354  0.0287  0.1590
15429W        W33633   9.696  16.765   3.816 -0.1562  0.1730 -0.0541
15430W        W33634  12.536   9.846  14.769  0.3737 -0.1941  0.2032
15431W        W33635   1.143   3.822  13.188  0.4116 -0.1047 -0.0047
15432W        W33636   8.178   3.879   4.605 -0.1124  0.3793  0.3508
15433W        W33637   0.180   2.474  12.984 -0.0404  0.2356  0.1329
15434W        W33638   9.801   9.443  12.373 -0.0037  0.0094 -0.0386
15435W        W33639   9.934   3.133   3.083  0.1263  0.0514  0.0268
15436W        W33640  11.983   8.568   4.667 -0.1282 -0.1122 -0.1791
15437W        W33641  10.972   8.768   3.070  0.1410 -0.1792 -0.0750
15438W        W33642  14.889   2.219   4.044  0.0342 -0.0332 -0.1154
15439W        W33643   2.782   8.677   2.539  0.4542 -0.0404 -0.0623
15440W        W33644   3.974  18.314  11.789  0.1411 -0.2755 -0.0765
15441W        W33645  13.792   4.012   2.200 -0.0230 -0.1502 -0.0929
15442W        W33646  16.005   2.649   2.653  0.1431 -0.2705 -0.4271
15443W        W33647   4.930  15.320   3.931 -0.0533 -0.2786  0.1790
15444W        W33648   9.935   0.834   3.621 -0.1144 -0.0375  0.6028
15445W        W33649   0.127  11.492  12.198  0.0496  0.0461 -0.5202
15446W        W33650  17.724  17.569  15.210  0.0671 -0.2227 -0.2660
15447W        W33651   0.521  11.242   1.714  0.2475  0.0861 -0.0474
15448W        W33652  14.628  10.041  11.406  0.3775 -0.0639 -0.1606
15449W        W33653   1.650   2.455  15.435 -0.1303  0.1471  0.1904
15450W        W33654  11.476   7.729   2.191 -0.1574  0.5372 -0.2439
15451W        W33655   2.742   8.708   0.997 -0.0658 -0.2689 -0.0525
15452W        W33656   3.937   4.514  13.230  0.1071 -0.0933 -0.0426
15453W        W33657  18.119  17.663  12.959 -0.2084  0.0151  0.2158
15454W        W33658  17.649   2.263  12.288  0.2394  0.1847  0.0001
15455W        W33659   0.156   4.801  12.177 -0.1249 -0.1786  0.1715
15456W        W33660   4.449   1.103  12.921  0.3078 -0.3309  0.2052
15457W        W33661  13.026  14.894  12.994  0.2152  0.1849 -0.1045
15458W        W33662   6.331  10.329  10.027 -0.0013 -0.3012  0.0184
15459W        W33663   1.551   1.974   4.464 -0.2471  0.0156  0.2796
15460W        W33664   2.608   2.243  11.182  0.0342 -0.1127 -0.2477
15461W        W33665   1.978   7.702  15.068  0.1993  0.0944  0.1799
15462W        W33666   6.810   7.233  10.858 -0.3745 -0.1679 -0.1226
15463W        W33667   8.646   2.550   3.592  0.0730  0.1253 -0.1421
15464W        W33668   1.878   4.654   2.529  0.0718  0.0054  0.1524
15465W        W33669   8.908  16.979   3.037  0.0430 -0.0628  0.1653
15466W        W33670   7.851  13.177  13.119  0.1031 -0.3084 -0.1000
15467W        W33671   5.730  16.562   1.173 -0.0440 -0.1057  0.1664
15468W        W33672  17.594   5.042  10.570  0.0585  0.0920 -0.0170
15469W        W33673  12.221  12.405  14.460  0.1266 -0.1990 -0.0463
15470W        W33674  14.760   7.193   3.811  0.1620  0.0695  0.1286
15471W        W33675   5.104  14.551  15.333  0.3902  0.2021  0.2356
15472W        W33676   8.768   5.462  12.286 -0.1188 -0.2614 -0.2173
15473W        W33677  15.759  16.933   0.005 -0.1639 -0.2575 -0.1011
15474W        W33678   5.713  11.028  10.819 -0.1447 -0.0129 -0.2209
15475W        W33679   9.474   6.087   0.400 -0.1299  0.0620  0.0244
15476W        W33680   5.887   1.704   2.154  0.2151 -0.1719  0.2578
15477W        W33681  10.223   0.109  11.204 -0.3575  0.3457  0.2516
15478W        W33682  16.709  10.711   3.601  0.0977  0.0424  0.0773
15479W        W33683  17.068   7.923   0.879  0.1450 -0.1221  0.1510
15480W        W33684   3.507   0.252   1.951  0.0384  0.2614  0.2610
15481W        W33685   7.059  17.161   4.324 -0.0139 -0.3035  0.0419
15482W        W33686   8.896   4.482   9.836  0.2400  0.1308  0.1169
15483W        W33687   1.286  12.268  12.013 -0.0973  0.1123 -0.0032
15484W        W33688   3.196  11.406   2.968  0.2033 -0.1747 -0.0889
15485W        W33689   8.320  16.460   0.311  0.1707  0.0271  0.1562
15486W        W33690  17.367  17.398  12.479  0.2245  0.1808  0.1096
15487W        W33691  14.239   5.030   4.030 -0.0480 -0.0008  0.0200
15488W        W33692  13.221  16.593   3.620  0.1668 -0.2079 -0.2106
15489W        W33693   7.816  10.562  13.835 -0.1167 -0.2621 -0.0611
15490W        W33694  11.599   9.622   2.334 -0.0770  0.0418 -0.1367
15491W        W33695   5.387   5.524  10.883 -0.1950 -0.0883  0.3742
15492W        W33696   2.597   9.135  10.611 -0.2725  0.1776 -0.3255
15493W        W33697  16.583   8.660  14.495 -0.1293  0.1002 -0.1644
15494W        W33698   4.713   9.592   3.154  0.1287 -0.1712 -0.0411
15495W        W33699   6.322  14.072   2.837  0.1527 -0.2660 -0.1852
15496W        W33700  10.673  14.145  11.461  0.0449  0.1893  0.3191
15497W        W33701   1.859   9.975  13.861  0.1925  0.0194  0.2788
15498W        W33702   7.641   8.223  10.357  0.3011  0.2005 -0.3591
15499W        W33703  14.345  13.596  14.130 -0.2024 -0.0248  0.0362
15500W        W33704   4.267   8.973   2.406 -0.3499 -0.1406 -0.1053
15501W        W33705  11.282   1.239   1.797  0.0820  0.1341 -0.1894
15502W        W33706  15.392  17.304   1.276 -0.0396 -0.2012  0.0095
15503W        W33707  12.452   0.194   2.897  0.2975  0.4588  0.1066
15504W        W33708   4.423  13.678   2.035  0.0935  0.1603  0.1830
15505W        W33709   4.043  14.738   2.592  0.0293 -0.2822  0.1784
15506W        W33710  15.285   8.526   0.281 -0.0004  0.1696 -0.0332
15507W        W33711  17.426  16.322   2.690  0.1104  0.0012  0.0635
15508W        W33712  14.338  10.698   1.856 -0.0434  0.2102 -0.1279
15509W        W33713  17.600   9.953   2.415  0.2653  0.0382 -0.3976
15510W        W33714  10.236  10.559  10.951 -0.0009  0.3274 -0.2554
15511W        W33715  13.659  10.873   0.445  0.2205  0.0921  0.0404
15512W        W33716  13.128  12.847   1.327  0.2447 -0.0882 -0.0557
15513W        W33717   4.438  10.125   1.662 -0.2094 -0.2550 -0.0877
15514W        W33718   3.040  17.993   1.035 -0.2310 -0.1952  0.0265
15515W        W33719   7.836   6.413   0.684  0.1833 -0.0673  0.0568
15516W        W33720   8.277  18.401   4.227 -0.1137 -0.0432  0.1368
15517W        W33721   4.443  10.875  11.038 -0.1024 -0.2024  0.0130
15518W        W33722   9.957   1.839   0.242  0.0102  0.1251 -0.0204
15519W        W33723  17.008   4.735  11.080  0.1774 -0.0527 -0.0378
15520W        W33724   7.197   2.164  14.987 -0.1663 -0.1730  0.0763
15521W        W33725  15.528   0.635  14.296  0.0787  0.1943 -0.1643
15522W        W33726   3.977   7.464  12.328 -0.0759 -0.1830 -0.2975
15523W        W33727   0.557   1.813  10.018 -0.0849  0.0037  0.0153
15524W        W33728  16.230  10.135   0.265 -0.0244 -0.2637  0.0538
15525W        W33729   5.043   1.512   4.267 -0.0089 -0.0618 -0.1317
15526W        W33730   7.198   4.705   3.028  0.1430 -0.3284 -0.1638
15527W        W33731  10.838  15.316   3.498 -0.0171  0.0609 -0.3728
15528W        W33732  13.449  18.062  14.793 -0.0678 -0.2277 -0.3701
15529W        W33733   8.997  13.857   3.314  0.3131 -0.3022  0.0907
15530W        W33734  17.753  15.333  12.616  0.0445 -0.0243 -0.1998
15531W        W33735  12.700   1.109   3.528 -0.1343 -0.2097 -0.3136
15532W        W33736   3.527   8.487   2.748 -0.0749 -0.0078 -0.0334
15533W        W33737   7.183   2.962   1.443  0.0000  0.0315  0.0576
15534W        W33738   5.439  13.000  14.348  0.0883  0.1590 -0.0916
15535W        W33739  15.507   4.374  12.310  0.2651  0.0541  0.2632
15536W        W33740   9.937  14.858   3.064  0.1792 -0.0459 -0.0863
15537W        W33741  17.071   1.515  11.263 -0.0545  0.4339 -0.0571
15538W        W33742  15.933   0.710   1.683 -0.1793 -0.1683  0.3613
15539W        W33743   5.712  11.698   5.078  0.0569  0.0862 -0.0451
15540W        W33744   3.754   0.433   5.330  0.0288 -0.0494 -0.2918
15541W        W33745   9.521   2.436  14.620  0.1994 -0.0340 -0.1466
15542W        W33746   5.985   5.153   0.789  0.0176  0.0761  0.0630
15543W        W33747   5.507   2.552   3.820  0.0233 -0.2248  0.2061
15544W        W33748  10.581   0.940   4.419  0.1053  0.0475 -0.1847
15545W        W33749   9.668   0.044  11.892 -0.0007 -0.1534 -0.0243
15546W        W33750   1.611  18.392  12.082  0.0389  0.1287  0.1761
15547W        W33751  14.534   4.018  11.014  0.1101 -0.1046 -0.1020
15548W        W33752  11.998   5.905  15.050  0.2888  0.2230  0.3252
15549W        W33753  12.736   9.590  12.852  0.0629  0.0015  0.2340
15550W        W33754   8.514   9.018   2.705 -0.1466  0.2535 -0.4062
15551W        W33755   4.307   2.290   3.094  0.0438 -0.0577 -0.0958
15552W        W33756   6.214  12.430  14.547 -0.2423  0.3500 -0.0746
15553W        W33757  12.455  12.921   0.689 -0.2706 -0.1491 -0.1641
15554W        W33758   9.628   3.754  12.450 -0.0029  0.3085  0.4270
15555W        W33759  16.015   1.544  12.361  0.2185 -0.1017 -0.1415
15556W        W33760   9.907   3.442   0.987  0.1188 -0.3332  0.0940
15557W        W33761  11.199  14.230  10.951 -0.0043 -0.3474  0.0598
15558W        W33762   3.198   9.711   1.062  0.1797 -0.1405  0.0132
15559W        W33763  17.922  17.612   2.153 -0.3968 -0.0542 -0.0724
15560W        W33764   1.010   0.893   3.769  0.0331 -0.1700  0.1808
15561W        W33765   2.852  16.400  10.911 -0.4513  0.0910 -0.0176
15562W        W33766  13.206   6.879   4.106  0.1818  0.1659 -0.0620
15563W        W33767   7.131   8.537   1.068  0.1970  0.2064 -0.0651
15564W        W33768   6.663   6.626   0.778  0.0011  0.1613 -0.2921
15565W        W33769  10.472   7.764  11.121  0.2272 -0.0325 -0.1467
15566W        W33770  17.574   8.103   2.939  0.0154 -0.0786  0.1674
15567W        W33771  15.697   4.584   3.051  0.0928  0.3742 -0.1117
15568W        W33772  13.468   4.738  12.121  0.0394  0.1423 -0.0088
15569W        W33773   4.149  13.078  11.928 -0.1569 -0.1946  0.1722
15570W        W33774   8.974  13.842  13.542  0.0782 -0.1567 -0.3708
15571W        W33775  17.877  14.973  12.276 -0.1111  0.0777  0.2235
15572W        W33776   7.023  17.542  13.499 -0.1628 -0.0042 -0.0006
15573W        W33777   4.315   4.702  10.783  0.0038  0.1136  0.0329
15574W        W33778  14.317   0.910   0.023 -0.0521 -0.0649 -0.2121
15575W        W33779  12.318   7.364  15.108 -0.4228  0.1639 -0.1763
15576W        W33780   1.207  13.229  14.785  0.1681 -0.0408  0.3064
15577W        W33781  12.142  13.632   1.376  0.1685 -0.1521 -0.1102
15578W        W33782   2.626  16.637  13.563 -0.1112  0.0198  0.2899
15579W        W33783  14.415   9.914   2.979 -0.2758 -0.0171 -0.0033
15580W        W33784  10.289   1.447   0.364  0.0878  0.1308 -0.0500
15581W        W33785  16.580  14.252  11.228  0.0543  0.0582 -0.1348
15582W        W33786  17.907   8.325   1.740 -0.0376 -0.1868  0.1918
15583W        W33787   5.353   4.410   3.411 -0.2067 -0.2063  0.1727
15584W        W33788   9.312   7.852  10.754  0.0965 -0.0959  0.0693
15585W        W33789   6.589  12.524  12.928  0.0420 -0.3683 -0.1348
15586W        W33790   9.498  15.188   4.832  0.3237 -0.1932  0.2177
15587W        W33791   1.355  12.821  14.162 -0.0404 -0.2348  0.1366
15588W        W33792   9.095   9.022   9.785  0.0563 -0.0577 -0.0495
15589W        W33793  13.861   5.175  14.123  0.0547  0.1488 -0.1675
15590W        W33794  13.974  12.818   4.447  0.3245  0.5892 -0.1705
15591W        W33795   0.573   1.656   3.026 -0.1444 -0.3067 -0.0401
15592W        W33796  16.007   1.019  12.877  0.0422  0.3199 -0.1465
15593W        W33797   4.604   1.560   1.137  0.3941  0.0503  0.2036
15594W        W33798   8.240   1.314  13.809  0.0895  0.2030  0.2266
15595W        W33799  12.352  15.509  14.263  0.0924  0.1054 -0.1442
15596W        W33800  17.717   8.288   1.277 -0.2063 -0.3510 -0.1018
15597W        W33801  16.187  17.474   3.325 -0.0633  0.0086  0.0875
15598W        W33802  10.291  11.158   0.047 -0.0390 -0.0930  0.0966
15599W        W33803   3.791   3.298   1.976 -0.1916  0.0709 -0.0246
15600W        W33804  11.288   9.149  11.512 -0.1534  0.0547  0.1557
15601W        W33805  17.148   0.296   0.400 -0.0826 -0.2155 -0.2790
15602W        W33806  13.357  10.924   3.817 -0.1351  0.0949 -0.0865
15603W        W33807   0.570   3.433  10.408 -0.2723  0.3929  0.4677
15604W        W33808  15.919   1.716  13.317 -0.2743 -0.0039 -0.0246
15605W        W33809  10.722   8.078  10.785 -0.0979  0.1037 -0.0875
15606W        W33810   5.136  10.362  14.911  0.1698 -0.0352 -0.0862
15607W        W33811  10.878   9.305   0.841  0.1968  0.0414  0.0751
15608W        W33812  11.549   4.237  12.258  0.2495  0.0815 -0.0101
15609W        W33813  15.436   4.332  13.518  0.2004 -0.1787  0.1992
15610W        W33814   9.710   9.862   2.080 -0.1399 -0.1774 -0.0057
15611W        W33815  13.148  10.272   0.958 -0.1398  0.0088  0.2045
15612W        W33816   5.739   0.479   1.797  0.0409  0.0908  0.0198
15613W        W33817   3.289   4.577  13.069  0.1416 -0.3034  0.0359
15614W        W33818  10.414   5.585   4.783 -0.0137 -0.2481 -0.2842
15615W        W33819  10.647  11.360   2.415  0.3619 -0.3115 -0.0995
15616W        W33820  12.478   3.588  13.943  0.2550  0.0148  0.0819
15617W        W33821  14.048  16.525  12.882 -0.3435  0.1715  0.2687
15618W        W33822  12.844   4.400  13.541  0.3056 -0.3987  0.3856
15619W        W33823  10.774  10.363  12.668 -0.1366 -0.1144 -0.0454
15620W        W33824   6.781  13.224  14.999 -0.1882 -0.2540 -0.1601
15621W        W33825   5.598  14.705  15.386 -0.3025 -0.1990 -0.1287
15622W        W33826   9.429   0.327  13.603 -0.0754 -0.0912  0.0345
15623W        W33827  11.680  17.796  14.454  0.4222  0.0221 -0.1307
15624W        W33828  15.480   7.097   4.292  0.1521 -0.4263  0.0860
15625W        W33829  10.558   5.661  11.626  0.4476  0.2633  0.0694
15626W        W33830  18.438   1.006   2.005 -0.1778  0.0844 -0.0958
15627W        W33831   2.096  15.469   3.696 -0.0917  0.1823  0.0099
15628W        W33832   3.233  15.288   4.975  0.1294 -0.1208 -0.0437
15629W        W33833   0.467   6.217  12.747  0.1289  0.0297  0.5690
15630W        W33834  12.761   2.901  13.035 -0.0533  0.1146  0.1647
15631W        W33835   6.259   3.459   1.249  0.2042 -0.1148  0.0818
15632W        W33836  10.649  12.964   0.624  0.1643  0.0550  0.0616
15633W        W33837   7.156   1.155  15.329 -0.1927  0.2015 -0.1997
15634W        W33838   5.218   3.635  11.298  0.1555  0.2694  0.0653
15635W        W33839   8.543   5.262  13.721  0.4488  0.4177 -0.2948
15636W        W33840   1.869   6.070  11.809  0.2631 -0.0852 -0.1457
15637W        W33841  16.393  17.867  13.725  0.4255  0.0602  0.0524
15638W        W33842   9.565  11.562   2.720 -0.1670  0.1995  0.1011
15639W        W33843   8.810   4.331   4.114 -0.1376  0.2789 -0.2548
15640W        W33844  18.584  10.696   4.390 -0.1772 -0.1668 -0.1989
15641W        W33845  13.742   6.327   1.540  0.1804  0.0220  0.1242
15642W        W33846  11.190   4.573   3.459 -0.4746 -0.0681  0.0503
15643W        W33847   7.474   9.700   2.093 -0.1360  0.0363  0.0485
15644W        W33848   4.942  17.495  11.556  0.0165 -0.1559 -0.1931
15645W        W33849   5.921   5.657   0.701  0.2869 -0.0278  0.2949
15646W        W33850   9.477  12.629   2.932  0.2391 -0.0742  0.0499
15647W        W33851   3.614   6.843   4.989 -0.0429  0.0261 -0.4020
15648W        W33852  16.849  11.608   0.084 -0.1009 -0.0668 -0.1422
15649W        W33853  10.720   6.696  14.499  0.1007  0.2974  0.0961
15650W        W33854   3.890   9.452  12.072 -0.2894 -0.1615  0.2938
15651W        W33855  11.108   0.489   3.678  0.0513 -0.0084  0.0630
15652W        W33856   4.531  14.206   3.012  0.2677 -0.3995  0.0371
15653W        W33857  10.399   5.095   3.675 -0.2756 -0.0901  0.4267
15654W        W33858  18.006   9.532   4.251 -0.0814  0.2584  0.1800
15655W        W33859   2.888   4.130  11.500  0.0585  0.1067 -0.1900
15656W        W33860   7.238   2.681  13.425 -0.1676  0.1023  0.0889
15657W        W33861  14.746   5.765   1.553  0.1946  0.1224  0.0100
15658W        W33862  12.588  18.214  14.727 -0.2326  0.3751  0.1817
15659W        W33863   3.234   8.021  10.972  0.2694 -0.2179  0.1815
15660W        W33864   2.996   4.875   2.587  0.0119 -0.0106 -0.1469
15661W        W33865   9.772   5.451  11.843  0.0581 -0.2090  0.0642
15662W        W33866  14.465  11.253   0.455 -0.1388  0.1293 -0.2597
15663W        W33867  11.622  15.186   1.964  0.1649  0.2236 -0.0883
15664W        W33868  13.594   7.999   3.623 -0.0299 -0.0425  0.1490
15665W        W33869   4.970  11.467   4.250 -0.1575  0.0049  0.2405
15666W        W33870   0.224  15.768  14.138 -0.0228 -0.0490  0.0821
15667W        W33871  13.495   5.173   1.122 -0.2229 -0.2738  0.2577
15668W        W33872   8.953   4.317  10.764 -0.1884  0.0590 -0.0925
15669W        W33873  17.447   6.321  14.700 -0.0182 -0.1686  0.1472
15670W        W33874   1.568  16.801  13.833  0.1001  0.3482 -0.2470
15671W        W33875  17.463   5.133   4.743  0.1192  0.1282 -0.4711
15672W        W33876   9.348  10.964   3.515 -0.0256 -0.2470 -0.1900
15673W        W33877   0.319   6.786  10.831  0.3010 -0.3698  0.2721
15674W        W33878  16.363   3.055   0.493  0.1742 -0.3263 -0.0101
15675W        W33879   5.230  12.837   3.621 -0.0941 -0.1991 -0.2267
15676W        W33880   8.917  12.578  10.712 -0.0341 -0.0309 -0.4097
15677W        W33881  13.190   4.495  13.091  0.0136  0.4832 -0.2376
15678W        W33882  17.529   4.577   1.659 -0.0407 -0.1925 -0.0429
15679W        W33883   3.998  11.714   0.754 -0.1067 -0.0416  0.0994
15680W        W33884   8.005  13.892  10.001 -0.0999 -0.2942 -0.2380
15681W        W33885   5.453   5.956   1.913 -0.0370 -0.2063 -0.2643
15682W        W33886   7.794   4.373  12.170 -0.0647 -0.1178  0.0897
15683W        W33887   9.732  18.233   0.353  0.1002 -0.1466  0.3017
15684W        W33888  18.239   1.263   0.479  0.2412  0.1030 -0.0063
15685W        W33889  12.262  10.962  12.695  0.2304  0.0204  0.3960
15686W        W33890  15.013  15.535  12.223 -0.0086 -0.1854 -0.0538
15687W        W33891   7.846   9.740   1.721 -0.2452 -0.1058  0.0290
15688W        W33892  14.523  12.278  15.001 -0.1511  0.0484  0.1269
15689W        W33893  15.732  17.022  14.508 -0.0091  0.0002 -0.1560
15690W        W33894   9.576   4.656   3.223 -0.1715  0.0405  0.1018
15691W        W33895  15.190   7.926   1.939 -0.0004  0.1006  0.1621
15692W        W33896   2.126  15.942   0.961  0.0319 -0.0957 -0.1865
15693W        W33897   3.490  14.107  15.021 -0.1507  0.0533  0.1584
15694W        W33898   8.871  10.717   4.921  0.0931 -0.0681  0.0750
15695W        W33899  10.410  16.838  11.062  0.2919 -0.1176  0.2046
15696W        W33900  15.524   4.338   1.184  0.0189 -0.0633  0.0215
15697W        W33901   6.885   1.738   3.188  0.1924 -0.0600  0.0856
15698W        W33902   8.174   0.584  12.736  0.0643  0.2194 -0.0437
15699W        W33903  17.649   8.473  14.307 -0.0307 -0.1849  0.1335
15700W        W33904  13.674   6.538   3.175 -0.1636 -0.2965  0.4093
15701W        W33905  16.796  17.640  12.202  0.1802  0.1877 -0.0461
15702W        W33906   0.160   4.347   3.186  0.1271  0.1431  0.0330
15703W        W33907  10.037  15.695   0.311 -0.2138  0.1083  0.0337
15704W        W33908  15.212  18.550  15.342 -0.3545  0.2646  0.1000
15705W        W33909   9.294  12.506   3.861 -0.2107  0.0505  0.0747
15706W        W33910   8.342   8.498  10.710  0.0317  0.1256 -0.1476
15707W        W33911   3.800  14.814  12.233 -0.0193 -0.1419  0.0090
15708W        W33912   0.127  16.713  14.065  0.3319 -0.1903  0.1580
15709W        W33913  12.809   7.006   4.430 -0.0752  0.0108  0.0886
15710W        W33914   3.234   1.704   3.129 -0.0757  0.1157 -0.1113
15711W        W33915  11.213   9.699   1.826  0.2962 -0.1541 -0.3357
15712W        W33916  16.153   1.054   3.816 -0.0514 -0.1744  0.0857
15713W        W33917   5.294   5.379   2.425  0.2476  0.1228 -0.1369
15714W        W33918   5.884  17.545   0.898 -0.0161  0.1962 -0.2631
15715W        W33919  13.846  17.719  12.235  0.0460 -0.1289  0.1923
15716W        W33920  12.751   7.665   1.831  0.0412 -0.1267  0.3712
15717W        W33921   6.498  16.491   4.320 -0.3024 -0.2317 -0.0518
15718W        W33922  10.648   5.368  12.770  0.1547 -0.0261  0.3313
15719W        W33923   6.498   1.923  10.329 -0.0478  0.3498 -0.3391
15720W        W33924   8.780  14.825  13.124  0.0263 -0.0838 -0.1901
15721W        W33925   0.812   5.474   0.453 -0.0836 -0.2479 -0.1384
15722W        W33926   5.023  17.913   0.897  0.1850  0.4459  0.2910
15723W        W33927   1.103  14.606  12.202 -0.2855  0.2445  0.0464
15724W        W33928  14.669  12.125  12.673  0.1608  0.1363 -0.2127
15725W        W33929   4.942  17.209  15.353  0.0379  0.1453  0.1139
15726W        W33930   8.209   4.470   1.621  0.4372  0.0726  0.0100
15727W        W33931  11.369   9.668   0.521 -0.0018 -0.0488  0.0601
15728W        W33932  14.445   6.429   0.153 -0.2252 -0.0335  0.0545
15729W        W33933   1.975  16.757   4.884  0.0064  0.0892 -0.2687
15730W        W33934  13.097  16.866  14.659 -0.1514 -0.0165 -0.1288
15731W        W33935  15.580   5.451   2.612 -0.1294 -0.1869 -0.3389
15732W        W33936  17.283  17.210  12.934  0.4274 -0.0444 -0.1286
15733W        W33937  16.035   0.164  14.205 -0.0925 -0.0985 -0.2508
15734W        W33938  11.626  12.682   0.979  0.1831  0.1428  0.0252
15735W        W33939  15.107   6.919   3.971 -0.0051 -0.0405 -0.1175
15736W        W33940   2.362   7.566  13.937 -0.1571  0.0397 -0.2046
15737W        W33941  13.144   4.280  15.297  0.0398 -0.1299 -0.0539
15738W        W33942  12.393   2.142  11.045 -0.2912 -0.2727 -0.0831
15739W        W33943   8.040   2.825   3.519 -0.0730  0.1310  0.2853
15740W        W33944   6.874   2.656   5.364 -0.2115 -0.0887  0.2618
15741W        W33945   2.227  16.783  13.292  0.1993 -0.1279  0.1526
15742W        W33946   0.269   1.771   2.163 -0.0594 -0.2580  0.1916
15743W        W33947  12.403  12.960  14.934 -0.4221 -0.0824 -0.2595
15744W        W33948  15.375   3.874   1.019  0.1071 -0.0900  0.2756
15745W        W33949   8.374  17.340   4.250  0.0136 -0.0052  0.0058
15746W        W33950   3.883   0.088   1.079  0.0889 -0.0120  0.2886
15747W        W33951   5.254   9.470   3.019  0.2465 -0.1156  0.1164
15748W        W33952   8.772  15.353  13.442 -0.2802 -0.2017  0.0763
15749W        W33953  18.474   4.495  12.413  0.1248 -0.0499  0.2014
15750W        W33954   6.074   9.061   2.964  0.4145 -0.4315  0.0971
15751W        W33955   5.130  16.998   3.114  0.1953 -0.2282  0.3779
15752W        W33956  11.025   7.350  11.833 -0.1634 -0.1651  0.0954
15753W        W33957   8.958  12.251  11.622  0.1384  0.3659 -0.0080
15754W        W33958  17.998   6.366  13.728  0.3161 -0.0392  0.1816
15755W        W33959   2.340  17.890  14.147 -0.1394 -0.1657  0.0121
15756W        W33960   5.916  10.205  12.388 -0.1530  0.1210  0.0358
15757W        W33961  16.023  10.743   1.699 -0.3281 -0.2507 -0.2258
15758W        W33962  11.210  12.484  10.961 -0.4508 -0.3983 -0.2552
15759W        W33963  17.306  15.267  12.532 -0.1642  0.2030 -0.0034
15760W        W33964  12.278  17.974  12.089 -0.2786 -0.0039  0.1907
15761W        W33965   2.037   1.777  10.599 -0.0337  0.0657 -0.2966
15762W        W33966   0.191   0.526   4.231  0.1097 -0.1570 -0.0082
15763W        W33967   6.778   2.107  11.994 -0.2251  0.4180  0.1042
15764W        W33968   0.500  16.339  12.789  0.2697 -0.0156  0.0332
15765W        W33969  14.266   0.641   3.326  0.1179  0.1928  0.2470
15766W        W33970   8.718   8.950  11.186 -0.1768 -0.0534 -0.4128
15767W        W33971   9.827   0.528   4.061 -0.2287  0.0519 -0.0680
15768W        W33972   2.121   9.387  14.988  0.1145 -0.0375  0.1091
15769W        W33973  12.368   5.578  15.057 -0.2008 -0.0256  0.0101
15770W        W33974  17.733  11.500   0.553 -0.1540  0.0688 -0.3080
15771W        W33975   9.791  15.247  15.429 -0.1964  0.1013 -0.1363
15772W        W33976   1.011   9.644   4.557  0.1790 -0.1439  0.2098
15773W        W33977  11.224  15.160  11.278  0.0576 -0.0200 -0.1631
15774W        W33978   6.126  15.692   2.780 -0.0618 -0.1012  0.1327
15775W        W33979  14.419  12.356  14.484 -0.1294 -0.0368 -0.1256
15776W        W33980  12.383  11.972   4.152  0.1230  0.0114 -0.0686
15777W        W33981  13.604   7.208   1.818 -0.1580  0.1006  0.0824
15778W        W33982  12.888  16.591  13.729 -0.0941  0.2979 -0.0485
15779W        W33983   5.876  12.558   1.163 -0.0752 -0.0176  0.1362
15780W        W33984  10.757   1.367   2.119  0.1006 -0.1360  0.1167
15781W        W33985   7.824  16.962  11.483  0.3582 -0.1190  0.0571
15782W        W33986  15.957  11.385  12.935  0.0762  0.0839  0.1762
15783W        W33987   1.068   4.401  12.319 -0.0814  0.2146 -0.1596
15784W        W33988   9.328   8.744  14.398 -0.0209 -0.1081  0.3031
15785W        W33989   8.593  13.689   2.836 -0.3932  0.1843  0.1027
15786W        W33990   2.146   8.194  11.938  0.1279  0.3025  0.3413
15787W        W33991  13.813   7.315  14.049  0.0347 -0.0673  0.4545
15788W        W33992   8.688  12.295   3.325 -0.2559  0.3519  0.5512
15789W        W33993   3.728   4.996   1.051 -0.3700  0.0701  0.3248
15790W        W33994   6.012   8.807   3.526 -0.2096 -0.0736  0.2187
15791W        W33995   6.851   1.772  15.289  0.3702 -0.1079 -0.0067
15792W        W33996  16.666   2.741  11.579  0.2121  0.0356 -0.1901
15793W        W33997   4.728  17.340  14.854 -0.2266 -0.0086 -0.1500
15794W        W33998   3.492   7.143   0.951  0.0597  0.0757  0.0477
15795W        W33999  11.881  15.605   2.503 -0.1043  0.2625 -0.4163
15796W        W34000  16.581   4.795   1.321 -0.2890  0.4852  0.1519
15797W        W34001  15.655   2.055   3.430 -0.0106  0.0575 -0.0528
15798W        W34002  13.035   2.188  14.863  0.0759 -0.0756  0.1677
15799W        W34003   5.334  10.045   0.494 -0.1950 -0.1293 -0.2233
15800W        W34004  18.103  13.069  11.391  0.0091 -0.2297 -0.3652
15801W        W34005  12.951   4.211  12.245 -0.0958 -0.0949  0.1815
15802W        W34006  16.599   0.053   2.138 -0.1405 -0.0613  0.1707
15803W        W34007  16.681   4.601   2.656  0.1197 -0.0367 -0.0075
15804W        W34008   2.909  13.972   4.137  0.1739 -0.1078 -0.1332
15805W        W34009  17.133  10.330   5.274 -0.1018  0.1024  0.2064
15806W        W34010   3.876  17.580   2.305 -0.2270 -0.0609  0.0464
15807W        W34011   4.237   3.301   4.386  0.1242  0.0957 -0.1049
15808W        W34012   5.186  16.654  11.190 -0.1828 -0.1375 -0.1782
15809W        W34013   9.165  15.989  11.465 -0.0062 -0.0094 -0.2061
15810W        W34014   4.022  12.331   3.844  0.0331  0.1405 -0.1943
15811W        W34015   5.781   4.389  11.225 -0.1964  0.1911 -0.0469
15812W        W34016   7.017   6.131   0.562 -0.0671  0.2287  0.0240
15813W        W34017  16.019   2.763  14.415 -0.2703  0.1157  0.0495
15814W        W34018  15.135   0.978  13.246  0.0812 -0.0508 -0.3714
15815W        W34019   8.366   5.592   2.924  0.0232 -0.2431 -0.1453
15816W        W34020  13.733   1.614  12.221  0.1657 -0.1264 -0.1911
15817W        W34021   8.388  12.764  14.467 -0.1891  0.0325  0.0137
15818W        W34022   4.286  11.908  10.851  0.1070 -0.1054 -0.4375
15819W        W34023  11.200  14.475   4.000  0.0696 -0.4397 -0.1763
15820W        W34024   3.082  14.890   1.523 -0.0965  0.2817 -0.0986
15821W        W34025   1.565   1.160   3.933 -0.1084 -0.1014  0.0351
15822W        W34026   5.422  12.131   3.049  0.2220  0.1693  0.0896
15823W        W34027   6.874  11.525  13.830 -0.0835  0.1815  0.0259
15824W        W34028  15.869  11.557   0.596 -0.0187 -0.1917 -0.2229
15825W        W34029   4.090   2.205  12.194 -0.0449  0.1679  0.0148
15826W        W34030   5.484  15.996   2.385  0.3549 -0.1610  0.4519
15827W        W34031   8.031  15.175  11.188 -0.1430 -0.0536  0.1282
15828W        W34032   4.850   3.238  11.189  0.2137 -0.1022  0.0744
15829W        W34033  11.776  12.089   4.046 -0.0640  0.2156 -0.1055
15830W        W34034  13.545  17.355  12.224 -0.1321  0.0488 -0.2646
15831W        W34035   7.812   2.388   2.400  0.1127  0.0907  0.2492
15832W        W34036  10.955   9.561   3.608 -0.0127 -0.0271 -0.2899
15833W        W34037   9.574  15.768  12.691  0.1859  0.3553  0.2683
15834W        W34038  13.603   3.652   3.593 -0.1136  0.0451  0.1671
15835W        W34039   6.868   6.608   0.292 -0.1108 -0.2778  0.1839
15836W        W34040   1.510  11.288   9.909  0.0031  0.2143  0.1466
15837W        W34041  13.011  17.560  12.703  0.1731 -0.0146  0.2281
15838W        W34042   9.806   6.347   4.339  0.1407 -0.1092  0.0812
15839W        W34043   1.970  17.213  14.633  0.2795  0.0324  0.0172
15840W        W34044  13.795   0.512   0.969 -0.2968 -0.1035  0.0741
15841W        W34045   2.744  15.708  15.362  0.2025  0.0168  0.0509
15842W        W34046   1.051   5.688  12.180 -0.1301  0.0188 -0.1228
15843W        W34047   0.505  15.652   4.856  0.0660 -0.2061  0.2174
15844W        W34048  15.741  17.075   1.010  0.0306 -0.0794 -0.0964
15845W        W34049   9.662   8.586   3.366  0.0539 -0.0210  0.1023
15846W        W34050  14.713   2.206   4.532 -0.6660 -0.1924 -0.1425
15847W        W34051   4.951  14.613   2.045  0.2892 -0.0811  0.1938
15848W        W34052   0.170  15.771   3.082 -0.0841  0.1969 -0.2647
15849W        W34053   2.494   7.372  14.385 -0.0701 -0.1330  0.0564
15850W        W34054   4.188  14.806  14.823 -0.3043 -0.1367  0.1933
15851W        W34055   9.038  15.347   3.717  0.0554 -0.0916 -0.2020
15852W        W34056  12.376   6.484  11.300 -0.1070  0.1563 -0.0672
15853W        W34057   0.936   8.649  12.813  0.0655  0.0890 -0.2574
15854W        W34058  18.206  12.009  14.648  0.2372  0.2554 -0.0658
15855W        W34059  15.110   5.404   1.718 -0.0854 -0.0976  0.1362
15856W        W34060   3.787   8.991  13.914 -0.1046  0.0030 -0.1806
15857W        W34061   8.316   5.959  14.405 -0.1172  0.1313  0.0004
15858W        W34062   4.001   0.869  11.194 -0.2863 -0.0447 -0.0556
15859W        W34063   5.251  13.386  10.985 -0.1367  0.0553  0.4280
15860W        W34064  17.932  10.848  11.665 -0.1962  0.0397  0.0440
15861W        W34065  11.548  15.298   3.340 -0.0800 -0.0697  0.1365
15862W        W34066  11.376  17.052  10.706 -0.0558  0.0664  0.2531
15863W        W34067   0.359   8.740   2.349  0.1058 -0.0916  0.0063
15864W        W34068   8.114   6.206   2.523 -0.0371  0.1545 -0.1613
15865W        W34069   0.502   8.767  14.834  0.0750  0.3164  0.0073
15866W        W34070   1.270   2.341  14.922 -0.2069 -0.0819  0.0972
15867W        W34071  18.187  18.271  13.530 -0.1894  0.0689 -0.1080
15868W        W34072  14.292  11.924   1.128 -0.1531  0.1218  0.0525
15869W        W34073   6.016   9.728  11.551  0.0817  0.0062 -0.1702
15870W        W34074  18.316   5.168   0.491 -0.1905 -0.0291 -0.2019
15871W        W34075  12.809   7.712   0.850  0.2865  0.0381  0.0897
15872W        W34076   3.347   9.655   5.444 -0.0100 -0.1390  0.1391
15873W        W34077   3.446   3.845  11.317 -0.1911 -0.0372  0.4213
15874W        W34078   9.856  18.513  14.524 -0.1725  0.0785 -0.0389
15875W        W34079  16.340  13.603  13.892  0.1488 -0.4443 -0.2837
15876W        W34080   7.604   7.137  11.955  0.0452  0.2163  0.0213
15877W        W34081  11.152  14.977  13.381 -0.0434 -0.2564  0.2220
15878W        W34082   7.818   4.163   3.573 -0.4554 -0.2512  0.3673
15879W        W34083   2.486  11.056  13.044 -0.2133 -0.0482  0.0628
15880W        W34084  17.761   4.717  12.767  0.1658 -0.0046 -0.1581
15881W        W34085   7.833   3.185   1.445 -0.0459 -0.3104 -0.0266
15882W        W34086   1.466  13.860  14.310 -0.0302 -0.0538  0.0793
15883W        W34087  13.634   0.267   4.051 -0.0762  0.4506 -0.2847
15884W        W34088  13.451   4.231  12.274 -0.1078 -0.2853  0.3385
15885W        W34089   1.926   8.940  11.958 -0.0049  0.0726 -0.1733
15886W        W34090  14.349  16.697  13.311 -0.2869 -0.2158  0.0692
15887W        W34091  16.550   5.946   0.866  0.2872 -0.2123  0.0849
15888W        W34092   9.588   4.238  12.310  0.1809  0.1344 -0.2345
15889W        W34093  11.201   9.728  14.969  0.1122 -0.0041  0.3124
15890W        W34094  16.655  10.234  14.201 -0.1876 -0.1505 -0.0311
15891W        W34095   8.433   0.745   4.785 -0.0192  0.0413  0.3010
15892W        W34096  15.985  15.015  13.828 -0.2809 -0.2508 -0.1035
15893W        W34097   7.616   2.106   4.579 -0.1227 -0.0642 -0.2431
15894W        W34098   2.989  12.179   3.459  0.2634  0.4862  0.0319
15895W        W34099   1.664  15.137   0.128 -0.0677 -0.0826  0.2034
15896W        W34100   7.427  16.853  12.820  0.1071 -0.3585  0.1421
15897W        W34101  11.111   5.294  14.275 -0.0963  0.0060 -0.0837
15898W        W34102  11.795   3.724  10.391 -0.1600  0.2774  0.1808
15899W        W34103   9.093  17.838   2.865  0.0723 -0.0923 -0.1325
15900W        W34104  18.374  18.199  12.043  0.1724 -0.1045 -0.0761
15901W        W34105   0.487   0.019   1.355 -0.2941  0.2884 -0.1472
15902W        W34106   6.585  12.436  11.394 -0.1044  0.1875 -0.1111
15903W        W34107   8.045  17.542  14.966 -0.3773 -0.0099 -0.0813
15904W        W34108   4.284  18.454   1.109 -0.0749 -0.2002  0.4173
15905W        W34109   0.123   7.686  11.764 -0.2139 -0.1661  0.1022
15906W        W34110   5.755  10.687  12.651  0.2190 -0.1042 -0.2616
15907W        W34111  12.659  14.749  14.318  0.2249 -0.1885 -0.4947
15908W        W34112   3.999   0.800  14.386 -0.2790  0.0518  0.0904
15909W        W34113   3.681  16.272   2.534 -0.1374 -0.0988 -0.2637
15910W        W34114   3.083   0.830   3.303  0.0282  0.2162  0.1560
15911W        W34115   8.572   6.095  10.763 -0.1048 -0.0663  0.2495
15912W        W34116   3.470   4.675  14.048  0.0783 -0.0395 -0.0045
15913W        W34117  17.468   6.763   2.334  0.1871  0.3303 -0.0485
15914W        W34118   5.376  10.634   0.023 -0.2426  0.3096 -0.2364
15915W        W34119  10.768   2.254  10.182 -0.3689 -0.0861  0.2140
15916W        W34120   9.158   5.523  11.919 -0.0663 -0.2609  0.0824
15917W        W34121  13.844  14.466   3.018  0.0698 -0.0310 -0.0863
15918W        W34122   8.224  10.648   2.527 -0.1042  0.1869  0.1502
15919W        W34123   1.366   5.445   2.006 -0.1602  0.0166 -0.4128
15920W        W34124   6.209   3.256  15.205 -0.0165 -0.0816  0.0479
15921W        W34125  16.351   6.946  12.317 -0.2633 -0.1403  0.0853
15922W        W34126  17.921   5.212   0.980 -0.0874  0.0094  0.0390
15923W        W34127   4.258  17.064   1.568  0.0781 -0.0918 -0.1200
15924W        W34128  13.011   5.587   2.115  0.1829 -0.0996  0.1227
15925W        W34129   9.357   4.180   2.379 -0.3537 -0.1097 -0.1525
15926W        W34130   1.064  11.240  12.111  0.1065 -0.1382 -0.0240
15927W        W34131  14.855  14.034   0.126  0.0992 -0.2992  0.0949
15928W        W34132   5.802  17.373   0.384 -0.3112  0.0678  0.0949
15929W        W34133  13.699   4.160  13.200  0.0826 -0.1607 -0.1006
15930W        W34134  13.813  18.387  11.569  0.1358 -0.0689 -0.2442
15931W        W34135   1.799   6.860   1.809 -0.0476  0.2786 -0.0350
15932W        W34136   5.574   9.476  11.525 -0.2981 -0.0658 -0.2709
15933W        W34137  11.834  12.025  14.268 -0.2477  0.0982 -0.0238
15934W        W34138  11.560  17.858   1.832 -0.2301  0.1163 -0.3141
15935W        W34139   7.947   2.316   1.265 -0.0152  0.1460  0.1548
15936W        W34140   6.921   6.779   2.211 -0.0362 -0.0346 -0.0812
15937W        W34141  17.728  18.189  13.090 -0.0585 -0.1931  0.0501
15938W        W34142  17.299   2.397   3.613 -0.0817 -0.1115 -0.1053
15939W        W34143   3.654   9.605   4.671  0.2167  0.1085  0.0588
15940W        W34144   5.479  17.863   3.537 -0.0697  0.1029  0.0313
15941W        W34145   8.632   6.601  13.824 -0.0386 -0.0892  0.1134
15942W        W34146  11.821   7.202  11.194 -0.2583  0.0840 -0.5089
15943W        W34147  10.098  14.131  12.411 -0.0792 -0.2125  0.3300
15944W        W34148  14.875   8.748   1.827  0.1167 -0.4467 -0.1585
15945W        W34149   5.231  12.215  11.812  0.3689  0.1329  0.1113
15946W        W34150  12.319  12.044  11.538  0.1762 -0.2022 -0.2305
15947W        W34151  18.395  17.971   5.456  0.2518 -0.0845  0.0824
15948W        W34152  10.968   4.599   2.998  0.0385  0.0982 -0.0569
15949W        W34153  13.819   4.325   1.707  0.1689  0.1701 -0.0025
15950W        W34154   2.894  15.938   2.858 -0.3424  0.2318 -0.1185
15951W        W34155   2.165  11.720  13.607  0.3577  0.2716 -0.0407
15952W        W34156   9.998   7.476  11.499 -0.2886 -0.1869  0.1141
15953W        W34157   0.478  14.002   4.345 -0.0725  0.1328  0.0115
15954W        W34158  16.871  13.769  14.004 -0.2773 -0.1509 -0.0270
15955W        W34159  11.603   6.153  15.319 -0.0324 -0.0666 -0.1012
15956W        W34160  17.003  12.848  10.868 -0.2603  0.1017 -0.1081
15957W        W34161   5.433   8.056   3.713 -0.1338 -0.3849 -0.2535
15958W        W34162   8.389   3.786   0.178  0.0398 -0.4020 -0.0870
15959W        W34163  17.460   2.968   4.960  0.4237  0.5088  0.2414
15960W        W34164  11.754   1.267   1.830 -0.1609 -0.2412  0.2048
15961W        W34165  12.103  15.504  14.839  0.0884 -0.0368 -0.0313
15962W        W34166   3.493  14.491  13.693 -0.2756  0.2384  0.1959
15963W        W34167   4.845   9.693   2.641  0.0197 -0.0509 -0.4441
15964W        W34168   6.577   0.444  14.423 -0.1193 -0.2914  0.0968
15965W        W34169  14.660  12.589  12.521 -0.3854  0.1297 -0.4508
15966W        W34170  11.399   4.832   0.287 -0.0134  0.2063  0.1327
15967W        W34171  12.797  13.514   4.903  0.0669 -0.1485 -0.1415
15968W        W34172  17.820   6.942   1.458 -0.1936  0.0211 -0.0857
15969W        W34173   7.189  12.395  14.988 -0.0089  0.1079 -0.0974
15970W        W34174   0.930   2.359  10.799 -0.2288  0.0177 -0.5106
15971W        W34175  10.379  14.201  11.021  0.0599  0.2092  0.0949
15972W        W34176   5.219   4.475   3.883 -0.1850  0.0412 -0.0841
15973W        W34177  17.004   9.471  11.036  0.2458 -0.1288 -0.0370
15974W        W34178   7.988  12.990  11.139  0.0004  0.0325  0.0856
15975W        W34179   9.327  14.526  13.289  0.0322 -0.0518  0.0198
15976W        W34180  13.836   1.786   4.563 -0.4022 -0.0832  0.0724
15977W        W34181  14.764   2.613  15.205 -0.0159 -0.0333  0.0498
15978W        W34182   1.112  14.280  13.491  0.2459  0.2592  0.1007
15979W        W34183  17.543   3.411   3.553  0.1379 -0.3759 -0.2817
15980W        W34184  11.639   5.370  14.235 -0.1255  0.2141  0.0453
15981W        W34185   0.226  15.033   3.613 -0.1192 -0.0633 -0.1173
15982W        W34186   8.687  12.175   0.300  0.4614  0.0146  0.4159
15983W        W34187   3.407  14.066   1.078  0.3107  0.1400 -0.2641
15984W        W34188   7.666   1.190   1.329  0.0766  0.1062 -0.1507
15985W        W34189  16.984   3.187  10.900 -0.0998  0.0247 -0.0304
15986W        W34190   5.803  13.567   0.510  0.1820 -0.1006  0.2890
15987W        W34191  10.940   3.286  11.509 -0.0202  0.0839 -0.2072
15988W        W34192  10.547  13.734  10.438  0.0701  0.2192 -0.2930
15989W        W34193   8.301   3.292  11.272 -0.0813 -0.6725  0.0934
15990W        W34194   7.704   0.597  14.566 -0.2865  0.3601  0.1624
15991W        W34195   3.854  10.068  11.307  0.3136 -0.2880  0.0434
15992W        W34196  11.405   6.390  10.901  0.2476 -0.1199  0.4246
15993W        W34197  11.056   0.646   1.271 -0.0137  0.4849  0.0260
15994W        W34198   6.447  12.318   1.454 -0.0021  0.0728 -0.0234
15995W        W34199  14.795  10.072  12.713  0.3088 -0.1696 -0.0584
15996W        W34200  10.023  11.425   3.756  0.1137 -0.3698  0.0176
15997W        W34201   6.844   6.639   4.391 -0.1008  0.0364 -0.2424
15998W        W34202  12.555  15.136  15.135  0.1397 -0.1740 -0.1486
15999W        W34203  16.401  18.092   2.964  0.0973  0.2773  0.0187
16000W        W34204   4.655  16.880  14.041 -0.2647 -0.0744  0.3333
16001W        W34205  11.807  11.340   0.664 -0.1588 -0.0958  0.1479
16002W        W34206   5.051  10.671   4.103 -0.0449 -0.1934  0.3043
16003W        W34207  13.014  14.816  11.798 -0.3838 -0.4451 -0.0070
16004W        W34208  17.195   7.316   0.117  0.1163 -0.0173  0.0944
16005W        W34209   8.032   6.260   3.949  0.0364 -0.1891  0.1549
16006W        W34210   8.774  18.510   1.041 -0.1249  0.3733 -0.3339
16007W        W34211   3.226  14.633   3.088 -0.1306  0.1600  0.1514
16008W        W34212  16.241   1.087   1.373  0.0018 -0.1654 -0.2186
16009W        W34213   6.523  10.759  14.044 -0.3421 -0.2621  0.2615
16010W        W34214  12.175   1.984   0.640  0.2138 -0.1815 -0.3819
16011W        W34215   3.626   8.912   1.430 -0.0859  0.1334 -0.2545
16012W        W34216  10.508   2.219   3.842  0.0188 -0.2190  0.1243
16013W        W34217   7.206   1.392  13.558  0.1892  0.0159 -0.1632
16014W        W34218   8.366   1.528   2.031  0.0134  0.2105  0.0234
16015W        W34219  17.652   3.249  12.497 -0.1799 -0.2861  0.0319
16016W        W34220   1.970  15.922  10.967 -0.0093 -0.1241 -0.0729
16017W        W34221  18.014  10.498   0.922  0.2869  0.0834 -0.3096
16018W        W34222   7.066  12.839   1.610  0.0939  0.0180 -0.1127
16019W        W34223  12.011   7.251   4.770  0.0144  0.1024 -0.3471
16020W        W34224   3.443   8.506  10.873  0.2113 -0.0563 -0.2240
16021W        W34225   5.073  10.979   0.223 -0.1936 -0.0766  0.1608
16022W        W34226   0.687  10.741   2.414  0.0265 -0.0292  0.0332
16023W        W34227   7.667   5.577  11.747  0.1609 -0.0322 -0.0422
16024W        W34228  17.768  16.162   3.814  0.3600 -0.1809 -0.1172
16025W        W34229   1.236  12.055  15.288 -0.1339 -0.1060  0.0623
16026W        W34230  16.590  12.994  11.391  0.0506  0.1478 -0.1615
16027W        W34231   1.156  18.277  12.346 -0.0312  0.1605 -0.1515
16028W        W34232  11.755   6.000  11.491 -0.0947 -0.4742  0.0716
16029W        W34233   0.611   9.217  11.228  0.1939  0.0727  0.3644
16030W        W34234  18.483   7.297  11.421 -0.1899  0.0656 -0.1425
16031W        W34235  15.671   0.081  11.130  0.1730  0.0804  0.0243
16032W        W34236  18.136   7.821   1.306  0.2481 -0.1014 -0.0087
16033W        W34237  14.762   1.199   1.979 -0.0082 -0.1175  0.0812
16034W        W34238   0.329  10.853  10.466 -0.0011 -0.0904  0.2566
16035W        W34239   3.246   4.103  13.432 -0.1180  0.1858  0.0389
16036W        W34240   4.692   7.176   0.747 -0.1029  0.0530  0.0147
16037W        W34241  17.070   8.101   2.120  0.0705 -0.0287 -0.3021
16038W        W34242  12.348  13.544   1.876 -0.1974 -0.4079  0.0797
16039W        W34243   1.447  14.389   2.750  0.2917  0.1675  0.1706
16040W        W34244  16.217   7.584  13.083  0.2329  0.1451 -0.1977
16041W        W34245   9.871   5.858  13.309 -0.2269  0.0617  0.1287
16042W        W34246  16.030   3.958  14.835 -0.0289 -0.0354 -0.0472
16043W        W34247  11.026   6.912  12.529 -0.3412  0.1694 -0.1738
16044W        W34248  17.664  17.842   0.359 -0.1745 -0.0722  0.0910
16045W        W34249  12.509   0.378   0.574 -0.2329 -0.2117 -0.2761
16046W        W34250   3.376  11.116  11.081 -0.3045 -0.0110 -0.1144
16047W        W34251   3.552  16.730   3.802 -0.2279 -0.1596 -0.0694
16048W        W34252  18.535  18.283   0.758  0.1385  0.0843  0.0990
16049W        W34253   4.157   7.515  11.328  0.3545  0.1176 -0.1857
16050W        W34254  13.033  13.481  13.935 -0.1615  0.2881  0.3483
16051W        W34255   8.169  11.237  11.508  0.1338  0.1037 -0.0096
16052W        W34256  14.419   5.024  14.623  0.0662 -0.2855  0.1369
16053W        W34257  17.409  11.753  11.795  0.2774  0.1935  0.0884
16054W        W34258   8.836   6.216   3.876  0.2352 -0.0913  0.0036
16055W        W34259   8.877  17.420   4.016  0.1696  0.0174 -0.2440
16056W        W34260  18.065   0.722   0.579 -0.1950 -0.0638  0.3744
16057W        W34261  14.397  13.705   3.430 -0.2571  0.0777 -0.2191
16058W        W34262  16.368  10.984   4.029  0.0752 -0.0137 -0.1464
16059W        W34263   6.722  15.280  12.237  0.2141 -0.1288  0.0464
16060W        W34264  15.033  11.829  13.868 -0.1374 -0.0603 -0.1030
16061W        W34265  14.005  11.655   5.273  0.2661  0.0166 -0.2047
16062W        W34266   0.414   0.772  12.474 -0.0274  0.2607 -0.0178
16063W        W34267  16.509  11.176  14.051 -0.0677 -0.2373  0.0302
16064W        W34268   2.236   0.889  10.951 -0.0061  0.0511 -0.0198
16065W        W34269   0.197   3.840   1.731 -0.1372  0.2302  0.0080
16066W        W34270  10.148  17.252   4.167  0.1365  0.4534  0.0909
16067W        W34271  16.247  16.635  11.200 -0.1108  0.2077 -0.0728
16068W        W34272  15.698   2.327  13.788 -0.1955 -0.2411 -0.0896
16069W        W34273   9.584   8.929  13.155  0.0301  0.0844 -0.3243
16070W        W34274   6.923  10.703   1.416 -0.1378 -0.1414  0.1920
16071W        W34275  10.520  16.232   5.730  0.0434 -0.0409  0.0871
16072W        W34276  10.363   2.426   4.370 -0.2808 -0.1410 -0.1003
16073W        W34277  13.944   3.289   3.894 -0.1744 -0.0258 -0.1476
16074W        W34278   7.418  17.789  11.217  0.0565 -0.0090  0.0499
16075W        W34279  12.933   1.517   3.779 -0.2084  0.1518 -0.0955
16076W        W34280  15.366  13.066  12.166 -0.0735 -0.0340  0.0701
16077W        W34281  11.018  11.830   3.637 -0.0928 -0.1787 -0.2338
16078W        W34282  17.279  11.704   3.908 -0.1664  0.1200  0.0673
16079W        W34283  17.448  15.710   3.586 -0.0180 -0.1634  0.0889
16080W        W34284  17.188   2.851  15.092 -0.0382 -0.2162  0.1084
16081W        W34285   4.573   2.884   0.924 -0.1485  0.0340 -0.1343
16082W        W34286   5.074   1.474  14.535  0.1007  0.0323 -0.2210
16083W        W34287  12.155  14.095  11.823 -0.0540  0.3564 -0.2610
16084W        W34288   8.103  13.549  13.443 -0.3836  0.1839  0.2168
16085W        W34289   9.877  17.906  11.364  0.2511 -0.0631 -0.1127
16086W        W34290   9.457   7.768   2.209  0.2671 -0.0981  0.0975
16087W        W34291  14.919   5.066  10.899  0.0126 -0.0718  0.0159
16088W        W34292   7.777   3.669   3.847 -0.0369 -0.0324 -0.3437
16089W        W34293  13.838  14.405   3.516 -0.1767  0.2513  0.0825
16090W        W34294   6.910   8.351  12.521  0.2994  0.0899 -0.3345
16091W        W34295  12.277  14.142   1.308 -0.2140  0.0733 -0.1076
16092W        W34296   1.072   4.396  14.061 -0.2091 -0.1513 -0.0025
16093W        W34297   5.795  13.656  12.306  0.2369  0.3723  0.3005
16094W        W34298   4.363   6.927  14.266 -0.0002 -0.0942 -0.0299
16095W        W34299  12.810   1.314  12.205  0.1343 -0.0502 -0.0604
16096W        W34300  15.854  14.324   3.174  0.1980 -0.0339 -0.0950
16097W        W34301  10.405   3.082   0.173  0.0078  0.0839 -0.1471
16098W        W34302  15.669   7.771  12.241 -0.0516 -0.1617  0.2491
16099W        W34303  12.771  15.896   0.045 -0.0541 -0.1072  0.3679
16100W        W34304   6.167  11.192  13.369  0.1771 -0.2311  0.1357
16101W        W34305   5.211  17.034   3.665  0.1648 -0.0364  0.2655
16102W        W34306   2.364  14.638   0.328 -0.0676  0.4535  0.3386
16103W        W34307  17.073   9.042  11.605 -0.0300  0.2347  0.1804
16104W        W34308  12.743   6.967  15.316  0.2266 -0.0917 -0.0125
16105W        W34309   3.550  13.662   3.233  0.1486  0.2362  0.0572
16106W        W34310  15.913  13.512   4.906 -0.1614 -0.0377  0.0902
16107W        W34311  13.954  17.937  14.887  0.2090  0.2782 -0.1494
16108W        W34312  17.372  12.247  12.149 -0.1054  0.0691 -0.0404
16109W        W34313  18.299   4.011   1.143  0.3195  0.0886 -0.2151
16110W        W34314   3.362  18.294   1.959  0.1366  0.2549  0.1534
16111W        W34315  15.609   7.032  11.497  0.0327  0.2397  0.0780
16112W        W34316  13.162   8.710  11.776 -0.4074 -0.0167 -0.2906
16113W        W34317   3.412   8.678  13.987  0.1712 -0.2000  0.1439
16114W        W34318  17.907  13.852   0.562 -0.2866 -0.1432 -0.0477
16115W        W34319  16.133   9.771   2.520 -0.2263  0.1232  0.1221
16116W        W34320   9.692   8.342   3.790 -0.0930  0.0788 -0.2020
16117W        W34321   9.414  17.682  13.670 -0.1313  0.0756 -0.3101
16118W        W34322  12.877  12.696  11.349 -0.2994  0.3465 -0.0753
16119W        W34323  10.565   0.708  12.418  0.0778 -0.1219 -0.0947
16120W        W34324  18.270  14.951   1.313  0.2869  0.0077  0.0316
16121W        W34325  10.167   3.824   0.677 -0.0298 -0.1079  0.1037
16122W        W34326   9.212  17.560   4.346  0.0311 -0.0514 -0.0971
16123W        W34327  18.098   3.996   3.229  0.2360  0.0590  0.2756
16124W        W34328   2.519   0.178  12.216 -0.0580  0.1344 -0.1239
16125W        W34329  17.388   2.038  15.004 -0.0297  0.0189 -0.0357
16126W        W34330  15.752   4.193  14.525  0.0129  0.1128 -0.0068
16127W        W34331   9.036   3.066  14.552  0.1757 -0.2059  0.1760
16128W        W34332   9.248  18.023  13.233 -0.0562 -0.1133 -0.0993
16129W        W34333  14.699  14.614   0.585 -0.0470 -0.1266 -0.0289
16130W        W34334   8.508   8.098  11.369  0.0391 -0.1811 -0.0263
16131W        W34335  11.623  18.198   0.894 -0.0068 -0.1375  0.0106
16132W        W34336   8.600   0.495   2.905  0.0641 -0.1388 -0.1906
16133W        W34337   2.135   6.003   3.199  0.1709  0.3562  0.1459
16134W        W34338  18.400  13.864  13.663  0.0757 -0.0730  0.1074
16135W        W34339   1.237   9.324  14.623  0.1290 -0.1537  0.1205
16136W        W34340  11.999  15.874  14.535 -0.0921  0.2774  0.1376
16137W        W34341  15.406  14.255   3.449  0.3266  0.1487 -0.2616
16138W        W34342  14.014   6.624  12.257 -0.2150  0.0533 -0.2121
16139W        W34343  17.510   9.006   2.318 -0.1891  0.3814 -0.1890
16140W        W34344   1.104   0.979  14.338 -0.1857  0.0151 -0.0893
16141W        W34345  16.309  13.743  13.228  0.3604 -0.1332  0.1097
16142W        W34346   3.230   5.837   0.349  0.2176 -0.1534 -0.2286
16143W        W34347  10.882  14.456  15.263 -0.3865  0.0847 -0.0930
16144W        W34348   2.109   4.879   2.125  0.0154  0.0955 -0.1535
16145W        W34349  13.191   9.546   0.302  0.0655  0.2546  0.0529
16146W        W34350   3.862   6.898   3.409 -0.1165 -0.2088 -0.0240
16147W        W34351   5.819  17.221  14.527 -0.0038 -0.1111  0.0471
16148W        W34352  12.803  17.126  12.899  0.0237 -0.1623 -0.1549
16149W        W34353  16.973   8.065   0.409 -0.2730 -0.1126  0.3055
16150W        W34354   5.066  11.590   2.576  0.0282 -0.2793  0.1626
16151W        W34355  11.660  13.998  14.028  0.1911  0.2301  0.1380
16152W        W34356   3.278   2.368   2.222 -0.0810 -0.1101  0.1708
16153W        W34357  15.953  12.165   1.123 -0.1568  0.1883 -0.1493
16154W        W34358   7.278  14.606   1.879 -0.0313 -0.1489 -0.2230
16155W        W34359   0.387  17.917   2.672  0.1397  0.2453  0.1577
16156W        W34360   8.968  14.951  12.693 -0.0150 -0.0500 -0.1374
16157W        W34361  13.015   1.332   2.940 -0.0124  0.0273  0.0528
16158W        W34362   4.699   8.997   2.161  0.0010 -0.0775 -0.2785
16159W        W34363  11.231  11.190   2.549  0.3621  0.1010  0.1213
16160W        W34364  14.077   5.843  10.768  0.3084  0.2104 -0.5427
16161W        W34365  10.970  17.639  12.353 -0.3340  0.0371  0.0176
16162W        W34366  15.704   2.038   2.171 -0.1786 -0.0524 -0.2236
16163W        W34367  10.821   0.450  13.236  0.2158 -0.0341  0.1865
16164W        W34368   7.274   8.570  12.186  0.0737 -0.0305 -0.1839
16165W        W34369   1.920   8.544  12.801 -0.2785 -0.1666  0.1494
16166W        W34370   1.464  11.847   2.094  0.2841  0.2539  0.1390
16167W        W34371   2.650   9.483  12.361 -0.2226  0.0931 -0.0008
16168W        W34372  10.412  16.148  14.136 -0.2315  0.0074  0.1062
16169W        W34373  16.032  10.160   4.940 -0.3372 -0.0958 -0.1791
16170W        W34374  12.264   4.255  13.254  0.2273 -0.1033 -0.1459
16171W        W34375   2.619  17.798   2.418  0.1249 -0.0600  0.0539
16172W        W34376  14.737   5.860   1.043 -0.0056  0.0496 -0.0758
16173W        W34377   6.060   6.163  13.801  0.1519  0.3836  0.1197
16174W        W34378  13.392   0.916  11.069 -0.1437 -0.2123  0.1517
16175W        W34379  10.539  15.087  12.217 -0.0484  0.0249  0.3027
16176W        W34380   0.557   5.890  12.395 -0.4323  0.1021 -0.0231
16177W        W34381   5.109   7.366   4.770  0.1178  0.2656 -0.6727
16178W        W34382  12.644   5.223  12.298  0.1036  0.1559  0.0426
16179W        W34383  15.203   1.755   3.705 -0.2069 -0.0539 -0.0388
16180W        W34384   4.085   6.480  13.082  0.0952  0.0840  0.0700
16181W        W34385   9.349  12.532   2.401  0.0130  0.0350 -0.1157
16182W        W34386  15.282  15.587  11.386 -0.0766 -0.0694 -0.2164
16183W        W34387   6.025   3.627   2.446 -0.3931 -0.0334 -0.1895
16184W        W34388  12.479   1.222   3.048 -0.1220  0.1086 -0.1109
16185W        W34389  18.553  15.455  13.294 -0.1009 -0.2287  0.0352
16186W        W34390   8.119   3.372   4.670  0.0508  0.2434  0.0828
16187W        W34391   8.795  16.847  11.181 -0.2271  0.1638  0.2460
16188W        W34392  14.456   3.138   3.806 -0.1128 -0.1251 -0.3139
16189W        W34393  17.496   0.694   0.383  0.2506 -0.0252  0.2995
16190W        W34394  12.000  13.169   4.614 -0.0694  0.0734  0.1648
16191W        W34395  14.438  14.901  12.099  0.0529 -0.0791  0.0456
16192W        W34396   1.882   9.188   2.734  0.2730  0.4213  0.0467
16193W        W34397  14.828   1.064   0.945 -0.1273  0.2120 -0.4113
16194W        W34398  17.276   1.036   0.672  0.0144 -0.1660 -0.4267
16195W        W34399  17.978  10.952   3.584 -0.1382 -0.0917 -0.1373
16196W        W34400  10.209   3.578   1.681  0.1101 -0.0770  0.2369
16197W        W34401   8.417   5.786   4.497 -0.0851 -0.0120 -0.0360
16198W        W34402   8.981   1.937  12.063 -0.0940 -0.3914  0.0460
16199W        W34403   0.540   7.976  12.104 -0.0214  0.2475 -0.1032
16200W        W34404   0.704  10.086  13.929 -0.3393 -0.0665 -0.0155
16201W        W34405  10.005  10.583  13.010 -0.0388 -0.3626  0.2354
16202W        W34406  17.239   3.136   2.393  0.0552  0.1039  0.1790
16203W        W34407   3.346  17.844   2.169 -0.2914 -0.1193  0.0356
16204W        W34408  18.126   6.144  12.932 -0.0568  0.2185 -0.0025
16205W        W34409   1.520   3.285   1.800 -0.2549 -0.1106  0.1187
16206W        W34410   5.130  15.869  12.804 -0.0223 -0.0689  0.0970
16207W        W34411  18.196  15.174  13.525  0.0873  0.1194  0.3567
16208W        W34412  12.121   9.243  12.062  0.5207  0.0343  0.0810
16209W        W34413   4.670  13.245  14.096  0.2149  0.1581 -0.1362
16210W        W34414   6.080   8.006  13.191 -0.0869  0.0654  0.2520
16211W        W34415  11.182  14.220   2.418  0.0613  0.2401 -0.0080
16212W        W34416   5.961  15.067  14.454 -0.2656  0.3453 -0.0515
16213W        W34417  18.484   7.657   5.070  0.1204  0.1688 -0.1298
16214W        W34418   4.858  17.890   3.109  0.4965 -0.0538 -0.0928
16215W        W34419  11.669   0.156  13.242 -0.1725 -0.0001 -0.1843
16216W        W34420  14.294   1.359  14.963 -0.1448 -0.2666 -0.0613
16217W        W34421   9.342  16.173   4.939  0.0417  0.3080  0.1337
16218W        W34422  18.319  14.428   4.549  0.1538 -0.0787 -0.2324
16219W        W34423  16.989   5.913  14.753 -0.1568 -0.0142 -0.1059
16220W        W34424  14.350   2.706  13.139 -0.0832 -0.0691 -0.0364
16221W        W34425   2.465   9.874   2.933 -0.1575  0.0322 -0.1326
16222W        W34426   4.961   5.199  10.846  0.0421 -0.2929 -0.0496
16223W        W34427  12.351  12.031   5.185 -0.1535 -0.0129  0.0654
16224W        W34428  13.670  13.218   1.539 -0.1324 -0.1011 -0.0928
16225W        W34429  14.267  12.747  14.990 -0.0467 -0.3161 -0.0417
16226W        W34430   6.533  12.147  12.082  0.0710 -0.3052  0.0928
16227W        W34431   0.445  15.002   2.007 -0.0704  0.0295 -0.0715
16228W        W34432   2.207   1.388  13.515 -0.4265 -0.2024 -0.1154
16229W        W34433   9.548   8.992   1.458  0.0624 -0.2737 -0.0334
16230W        W34434  13.163   8.839   4.519 -0.0543  0.0144 -0.0390
16231W        W34435   1.363   5.149  11.419 -0.2855 -0.1232  0.0464
16232W        W34436   5.278  17.129  13.381  0.2811  0.1070 -0.2036
16233W        W34437   5.744  16.437   2.460  0.1579 -0.3551  0.1521
16234W        W34438  14.635  16.167   1.260  0.1365 -0.2494  0.2815
16235W        W34439   8.081   8.256  11.145 -0.0532 -0.2275  0.2748
16236W        W34440   8.283  14.350  13.858  0.1230 -0.0725  0.0225
16237W        W34441   0.803   9.387   3.682 -0.4000  0.0476 -0.0909
16238W        W34442  12.709  12.578   2.165  0.0265  0.1666  0.0282
16239W        W34443   4.640   8.973  13.509 -0.0470  0.0372 -0.2442
16240W        W34444  10.109   6.787   4.411  0.3016 -0.2017  0.0850
16241W        W34445  16.750  14.493   0.301  0.1785  0.1736  0.0486
16242W        W34446   8.297   7.403  13.345 -0.1078  0.0533  0.0657
16243W        W34447   6.184  18.367   1.984 -0.2238 -0.0436  0.4104
16244W        W34448   5.366   5.167  15.321 -0.1815  0.2194  0.2053
16245W        W34449  14.003  10.307   1.736 -0.2796 -0.1524  0.2325
16246W        W34450  10.030   3.198  12.715  0.0026 -0.1771  0.4168
16247W        W34451   7.444   2.282   0.518 -0.0043  0.2670 -0.0653
16248W        W34452  18.107  10.153  11.192  0.3550 -0.3000  0.1266
16249W        W34453   0.025  18.194   4.425 -0.2381 -0.0590  0.1231
16250W        W34454  15.528   2.513  12.347 -0.1832  0.0437 -0.1652
16251W        W34455  16.032   3.851   4.377  0.1460  0.3785  0.1479
16252W        W34456   9.311   6.428   4.582  0.1593  0.3301  0.0076
16253W        W34457   9.158  12.818  12.924  0.1196 -0.1191  0.0376
16254W        W34458   8.721  11.460   0.735  0.0592  0.0656  0.2730
16255W        W34459  10.778   9.791  11.953 -0.2415  0.2231  0.2428
16256W        W34460  13.159   3.943  14.055  0.2897 -0.0459 -0.0286
16257W        W34461   2.739  15.762   0.955  0.2591 -0.0167  0.1800
16258W        W34462   5.312   7.620   3.352  0.0871 -0.3672 -0.1611
16259W        W34463   0.442  17.310   5.414  0.0807  0.1802  0.0024
16260W        W34464   9.990   6.223  10.969 -0.0959  0.0491 -0.0545
16261W        W34465  16.750   1.038   3.471  0.3044 -0.1575  0.0328
16262W        W34466   1.770   0.947   0.156 -0.1186 -0.2553  0.1783
16263W        W34467  12.535  11.224  13.577 -0.0821  0.1233  0.2558
16264W        W34468  13.198  14.332   3.314 -0.2119 -0.1578 -0.0608
16265W        W34469  18.200  11.730   4.686 -0.2137 -0.3019 -0.0000
16266W        W34470  14.484  17.374   2.136  0.0880 -0.2502  0.2653
16267W        W34471   6.322  12.353  12.558  0.4277  0.3033  0.0926
16268W        W34472   6.967  16.624   4.842 -0.1828  0.0307 -0.0330
16269W        W34473  17.448  13.642   1.609  0.0179 -0.1542  0.2834
16270W        W34474   0.967   6.296   1.853 -0.3443 -0.0854 -0.1034
16271W        W34475  15.791   6.364  13.967  0.2096 -0.1015  0.0048
16272W        W34476  16.379   4.118   2.781  0.0395 -0.0828 -0.1514
16273W        W34477   7.812  17.767  14.638  0.2036 -0.2058 -0.2073
16274W        W34478   5.602  11.435  11.868  0.0271  0.1498  0.0937
16275W        W34479  16.618  14.073   0.601 -0.0267 -0.0143 -0.1481
16276W        W34480   4.052  15.165  11.999 -0.1302 -0.2516 -0.0172
16277W        W34481   1.685  14.440  14.103 -0.2725  0.4278  0.1233
16278W        W34482  10.660   4.096  10.667 -0.3017 -0.0786 -0.1471
16279W        W34483  11.988  17.232   2.456  0.0394 -0.1945  0.1628
16280W        W34484  11.952   0.629  12.088  0.1729 -0.0126 -0.0706
16281W        W34485   2.424  17.022   9.978 -0.0740 -0.0483  0.1615
16282W        W34486  17.144   2.173   0.980 -0.1000  0.3230  0.1429
16283W        W34487  16.197   3.484  14.613 -0.1541  0.0388  0.1579
16284W        W34488   3.228  13.710   0.726  0.2677 -0.0542  0.0049
16285W        W34489   6.705   3.294   0.394 -0.0026 -0.1737  0.0180
16286W        W34490  11.582   7.015   1.489 -0.1332 -0.0492 -0.2342
16287W        W34491   7.950  17.197   0.162 -0.1643  0.1907 -0.0790
16288W        W34492  10.271   5.624   3.740 -0.1771 -0.0221  0.1840
16289W        W34493   6.769  17.236  11.413 -0.0366  0.0245  0.1268
16290W        W34494   6.048  13.131   5.787 -0.0426 -0.0155 -0.0930
16291W        W34495   6.475  13.117  12.856  0.0067 -0.0658 -0.2884
16292W        W34496   5.685  13.869   1.014 -0.2669 -0.0755 -0.2352
16293W        W34497   7.968   0.573   4.001 -0.1026 -0.1652  0.0860
16294W        W34498   5.367   7.216  13.261 -0.2324 -0.0870  0.0020
16295W        W34499  15.220   8.373  13.105 -0.0050  0.0755 -0.0990
16296W        W34500   2.041  10.567   3.365 -0.0410  0.2873  0.2072
16297W        W34501  16.731   4.088   1.936 -0.0717 -0.2735 -0.2075
16298W        W34502   2.275   9.399   4.167  0.3467 -0.3340  0.2554
16299W        W34503   1.452   4.544   3.235  0.3057  0.2361 -0.0653
16300W        W34504   5.749   2.765  14.130 -0.2959 -0.1384 -0.2698
16301W        W34505  16.914  18.070   3.169 -0.1488 -0.2751 -0.4596
16302W        W34506   3.469  14.461   1.465  0.1076  0.2106 -0.1403
16303W        W34507  16.357   1.145  14.232  0.1164  0.0343  0.0934
16304W        W34508  17.655   0.933   4.466  0.2443 -0.2107 -0.1123
16305W        W34509   1.432  10.091   3.783 -0.0946  0.2248  0.0375
16306W        W34510   9.011  17.026  12.220  0.0991  0.1961 -0.1066
16307W        W34511  16.696  16.008   0.896  0.2648  0.2136 -0.3542
16308W        W34512   2.657   1.673  11.380  0.0173  0.1211 -0.2409
16309W        W34513  16.942   1.697  13.428  0.1078 -0.1479  0.0925
16310W        W34514   2.322   0.464  11.235  0.1437  0.1059  0.3407
16311W        W34515  10.366   4.043  13.291  0.3570  0.1730 -0.2142
16312W        W34516   6.177   2.137   2.281  0.0791 -0.0125 -0.0238
16313W        W34517   1.232  14.614  13.007  0.0129  0.4260 -0.0423
16314W        W34518  13.262   3.204  12.897 -0.2389  0.0119 -0.0730
16315W        W34519   2.695  15.211   0.841  0.0058 -0.0132  0.0554
16316W        W34520   9.437  16.577   1.630  0.1075 -0.0067 -0.1112
16317W        W34521  16.646  15.144   4.566 -0.2341  0.1986 -0.2189
16318W        W34522   4.674  13.365   4.312 -0.0982 -0.2541  0.0107
16319W        W34523   0.304   3.790  11.819 -0.1370 -0.1903  0.0095
16320W        W34524  12.105   7.253  13.301  0.2618  0.0278 -0.1330
16321W        W34525   9.116  18.160  10.355 -0.0659  0.2950 -0.3198
16322W        W34526  18.255  11.747   2.373 -0.1457 -0.3574 -0.1401
16323W        W34527   9.162   9.251   4.207  0.0180  0.0476  0.3129
16324W        W34528   9.638   5.918   4.274  0.0109  0.0032  0.0264
16325W        W34529   1.975   4.669   0.748 -0.1173 -0.2075  0.0716
16326W        W34530   4.405  16.878  13.479 -0.1470 -0.1081  0.0515
16327W        W34531   6.008   6.747  15.275  0.0948 -0.0698 -0.1754
16328W        W34532  16.266   4.300  11.212  0.0613  0.0075 -0.2420
16329W        W34533   9.390  15.315   4.130 -0.0871 -0.0748  0.0874
16330W        W34534   9.057  17.430  13.912 -0.4435 -0.0912 -0.1514
16331W        W34535  13.080   9.999   0.525 -0.0900  0.0110  0.0517
16332W        W34536   3.180  12.386   0.903  0.1384 -0.0660  0.1333
16333W        W34537   7.400   9.008   3.953  0.0497 -0.1460  0.0822
16334W        W34538  14.666   2.792  13.550 -0.2193 -0.2535  0.2287
16335W        W34539  16.496   6.947   4.482 -0.1052  0.1226  0.0441
16336W        W34540   5.525   0.181   4.466 -0.1150  0.1271 -0.2476
16337W        W34541  11.974  13.883   1.822  0.2185  0.1576  0.1872
16338W        W34542   7.334   5.845  10.914 -0.0904 -0.0315  0.3604
16339W        W34543   3.761  13.170   1.076  0.3090  0.0833 -0.2063
16340W        W34544  16.432  13.095   1.463 -0.3041 -0.0676 -0.3816
16341W        W34545   3.445  10.545  13.602 -0.0773  0.3052  0.4784
16342W        W34546   6.409  10.491  11.569  0.2277  0.1961  0.0165
16343W        W34547  13.056  17.334  12.226  0.0360 -0.1870  0.1050
16344W        W34548   1.743   1.368  15.186 -0.1393 -0.0420  0.1632
16345W        W34549  14.663  11.784  11.935 -0.0583 -0.0803 -0.0189
16346W        W34550   4.886  17.646   5.053 -0.2446  0.2346 -0.1419
16347W        W34551  11.585  16.314  12.200 -0.1580 -0.1949  0.2450
16348W        W34552   9.761   7.949  11.747  0.1586  0.2673 -0.0758
16349W        W34553   0.603   4.292   3.284 -0.0690  0.1529  0.3419
16350W        W34554   7.795  14.754  13.966  0.2937  0.2748  0.1447
16351W        W34555  15.194   5.276  12.460 -0.3032  0.1558 -0.2931
16352W        W34556  15.758  11.662   1.200 -0.0978 -0.2388  0.1011
16353W        W34557   5.559   1.198  13.274  0.1331  0.0066  0.1553
16354W        W34558  17.223   6.699  12.141  0.0165 -0.2782 -0.1132
16355W        W34559  13.845  17.017  14.950 -0.0603  0.3480  0.0485
16356W        W34560   3.044   4.610  13.795  0.2473  0.0460 -0.0659
16357W        W34561   3.719  15.581  15.387 -0.0127 -0.0935 -0.1346
16358W        W34562  17.012  18.001   3.681 -0.2626  0.0278  0.1220
16359W        W34563   0.132  11.273  14.177 -0.0173 -0.2294 -0.0157
16360W        W34564   1.881   6.302   4.117 -0.1968  0.1001 -0.1091
16361W        W34565   2.173  10.030   1.174 -0.0671  0.1292  0.1403
16362W        W34566   7.079   9.627   0.371 -0.0758 -0.0331 -0.0857
16363W        W34567  11.536   0.206   3.001 -0.2489  0.0489 -0.2981
16364W        W34568   7.933  17.109   3.241  0.0035  0.3422  0.2430
16365W        W34569   0.306  12.041  12.170 -0.1324  0.1500  0.1167
16366W        W34570   1.291   6.527  11.211 -0.0700  0.4040  0.2444
16367W        W34571   7.630   7.094  14.105 -0.4960 -0.0467 -0.1563
16368W        W34572  10.816  17.239   1.383 -0.2117 -0.0122 -0.0750
16369W        W34573   5.462   0.933   4.693 -0.2280  0.0083 -0.1052
16370W        W34574   9.536   7.878  12.648 -0.1504  0.1134 -0.1467
16371W        W34575   3.758   9.010   4.404 -0.2665 -0.3742 -0.2087
16372W        W34576   6.364   4.107   2.972 -0.1475  0.2192  0.1282
16373W        W34577  14.010   6.900  14.153  0.1055 -0.1113 -0.0217
16374W        W34578   3.180  16.066  13.625 -0.0208  0.3919  0.4110
16375W        W34579  16.906   8.993  15.338  0.0253 -0.1425 -0.1765
16376W        W34580   3.473   4.496  13.568 -0.0446  0.1297 -0.1721
16377W        W34581  15.036   9.543   3.532  0.1365 -0.2009  0.0977
16378W        W34582   5.149  13.403   4.483 -0.1167 -0.0921  0.1790
16379W        W34583   0.993  13.986   0.157  0.0304  0.1453 -0.3475
16380W        W34584  16.654  11.181  11.198  0.2586 -0.3363 -0.2290
16381W        W34585  12.223   5.449   0.325 -0.3347  0.0684  0.0972
16382W        W34586  10.100  14.489   1.052  0.1428 -0.0256 -0.4991
16383W        W34587  10.659   5.158   5.492 -0.1652  0.4443 -0.0846
16384W        W34588  12.428   8.298  13.791 -0.1573  0.1189 -0.0875
16385W        W34589   6.677   1.077   2.487 -0.1050  0.1015 -0.3845
16386W        W34590  13.310  16.268  11.759  0.2267 -0.1692 -0.0359
16387W        W34591   2.847  12.198  13.752 -0.3879  0.1176  0.1196
16388W        W34592   3.605   0.718  15.291  0.2086 -0.0054  0.3304
16389W        W34593  16.318   6.981  13.418  0.2072 -0.1477 -0.0263
16390W        W34594   4.153  14.489  12.471 -0.3785  0.0054 -0.3509
16391W        W34595   8.978   8.632   2.483  0.0074 -0.0121 -0.0915
16392W        W34596   7.498  16.508   3.912 -0.2109  0.1782  0.2981
16393W        W34597   2.723  17.018   5.165 -0.3079  0.1446  0.1224
16394W        W34598   1.782  17.024  15.054 -0.1587 -0.0081 -0.0492
16395W        W34599  11.787   8.079   0.081 -0.5665  0.0357  0.1798
16396W        W34600   6.193   9.420  13.174  0.2432  0.1669  0.2364
16397W        W34601  17.172  16.680   2.876  0.2216  0.3172  0.0656
16398W        W34602   5.092  14.592  14.490 -0.0287  0.0195  0.0150
16399W        W34603   1.117   0.071   4.286  0.1384 -0.3722  0.0726
16400W        W34604  17.664   7.195   4.639 -0.0757 -0.1354  0.1656
16401W        W34605  13.336  12.507   2.602 -0.1661 -0.0323 -0.0933
16402W        W34606   6.853   1.026  11.487 -0.0539 -0.0430 -0.1435
16403W        W34607   8.137  16.691  14.013  0.0376  0.0072  0.2684
16404W        W34608   3.183   1.468  13.850  0.0905  0.1595 -0.2960
16405W        W34609  17.168  10.379   3.934 -0.0904  0.4632  0.0167
16406W        W34610  14.140   8.966   2.001 -0.1965 -0.0284 -0.3221
16407W        W34611   4.002   4.784   0.038 -0.0162 -0.2216  0.2294
16408W        W34612   4.527  16.085   4.215  0.0588  0.0101 -0.0354
16409W        W34613  14.325   0.046  11.831 -0.1534  0.1489  0.0221
16410W        W34614   3.347  11.690  12.560 -0.0735 -0.0130  0.2401
16411W        W34615  15.356   3.087   9.827  0.0267  0.1353  0.0787
16412W        W34616   9.633  11.774   3.554  0.0016  0.0583 -0.2918
16413W        W34617   0.269  16.099   0.529 -0.0455  0.1360  0.1076
16414W        W34618  12.283   3.664   2.790  0.0226  0.1112  0.0909
16415W        W34619   9.255   4.551   3.628  0.4874  0.2687 -0.0174
16416W        W34620  15.369   3.263  14.049 -0.4548 -0.0432 -0.0266
16417W        W34621   9.177  10.588  11.367 -0.0744  0.2287  0.0300
16418W        W34622  10.461   2.925   3.269 -0.1300 -0.0156 -0.3053
16419W        W34623   9.257  11.623  14.151  0.1287 -0.3784  0.0553
16420W        W34624  10.096   4.881  11.545 -0.0655 -0.1219 -0.2366
16421W        W34625   0.545  13.527  13.907  0.0763  0.1261  0.1542
16422W        W34626  15.722   7.414   3.982 -0.0719 -0.4900 -0.1817
16423W        W34627   2.986   2.817  11.257  0.0949  0.1106 -0.1558
16424W        W34628   5.389  16.811  14.324 -0.1876 -0.1263  0.2317
16425W        W34629  14.223  14.253  13.764  0.1022  0.0511 -0.1422
16426W        W34630  12.954  12.471  12.249  0.2346  0.1268  0.3107
16427W        W34631  10.052   4.514   3.129  0.1687  0.1364  0.1082
16428W        W34632  16.780   2.339  11.216  0.0328 -0.0419 -0.1397
16429W        W34633  14.324  11.758   3.340  0.2022 -0.0043  0.0102
16430W        W34634   3.585   3.318   0.184 -0.0388 -0.1524  0.2505
16431W        W34635  18.534  11.749  13.976  0.1570 -0.2486  0.3943
16432W        W34636  11.771  10.725  12.655 -0.0333 -0.2103  0.1628
16433W        W34637   1.154  13.065  11.447  0.0482  0.4009  0.1219
16434W        W34638  13.594  12.972  12.717  0.0018 -0.0973 -0.2283
16435W        W34639  15.206   1.297   4.082  0.3265  0.0834  0.0453
16436W        W34640  14.621  12.724  10.179  0.0461 -0.0683 -0.0309
16437W        W34641   7.573   2.843   0.520 -0.2116  0.1030 -0.2228
16438W        W34642  16.729  12.214  13.747 -0.3217  0.1781 -0.3648
16439W        W34643   0.692   7.416  12.734 -0.3301  0.3076 -0.0571
16440W        W34644  10.549  14.222  12.681  0.5392 -0.0304 -0.2916
16441W        W34645  16.789   7.588  11.143 -0.2983  0.4206 -0.0805
16442W        W34646   8.791   5.761  14.304  0.3806  0.3354 -0.0596
16443W        W34647  18.141   6.784  14.655  0.0941 -0.0459 -0.3641
16444W        W34648   0.971   9.837  11.801  0.2015  0.4529 -0.1585
16445W        W34649   4.338  13.149  13.470 -0.2350 -0.0918  0.1705
16446W        W34650  15.049  13.929  14.401  0.1227  0.0750  0.1158
16447W        W34651   3.181   6.726   2.560  0.0208 -0.0449 -0.0526
16448W        W34652  12.749   5.615   3.948  0.2632 -0.0757 -0.0342
16449W        W34653  17.651  14.853   3.205 -0.1146  0.2810 -0.1481
16450W        W34654   5.853  13.319   0.973 -0.0280  0.2145  0.2171
16451W        W34655   5.483  11.864   2.626 -0.1986  0.1495  0.1755
16452W        W34656  12.019   0.484  14.752 -0.2109  0.1480 -0.2456
16453W        W34657  12.395   0.680  11.425 -0.0433 -0.0508 -0.0049
16454W        W34658  18.141   8.789  12.457 -0.3017  0.2046 -0.0702
16455W        W34659  10.196   4.721  14.211  0.0292 -0.0727  0.2107
16456W        W34660   9.521   5.577  12.342  0.0138  0.0857  0.5344
16457W        W34661   4.261  15.635  14.291  0.1008  0.2911  0.3349
16458W        W34662   0.436   2.444   3.522 -0.0043 -0.0625 -0.2221
16459W        W34663  15.189  17.528   1.681 -0.2595  0.0963  0.1378
16460W        W34664   2.858   8.718   3.844 -0.1932  0.0931 -0.0980
16461W        W34665   3.428   9.642   3.060  0.2070 -0.0994  0.1139
16462W        W34666   4.817  15.897  14.935 -0.0792 -0.2324 -0.0597
16463W        W34667  10.808  12.170   0.352  0.1612  0.1976  0.0774
16464W        W34668   8.877   6.029  13.266  0.0885 -0.0115 -0.0304
16465W        W34669   1.186   4.882   2.179 -0.0820 -0.0855 -0.1435
16466W        W34670   2.105   3.385  13.028  0.3761  0.0351 -0.2126
16467W        W34671  11.725  13.538   1.101 -0.2140  0.2116  0.1431
16468W        W34672  12.360  15.613   2.664 -0.1212 -0.0127  0.2417
16469W        W34673  16.024  12.220  15.424  0.2086  0.2131  0.0480
16470W        W34674   5.610  18.305   0.998  0.0305  0.1306 -0.3406
16471W        W34675  15.553   7.646   0.198 -0.0976 -0.2219  0.0045
16472W        W34676   1.946   0.563   2.185  0.0781 -0.1669  0.2976
16473W        W34677  12.588   7.126  14.438  0.0579  0.1472  0.0031
16474W        W34678   3.878   3.584  11.577  0.0891 -0.0796 -0.1198
16475W        W34679  18.409   1.141   1.293 -0.1125  0.0967 -0.1891
16476W        W34680  15.515   0.709  13.566 -0.1828 -0.2590 -0.0604
16477W        W34681   0.023   5.973   3.364  0.0663 -0.3022 -0.1576
16478W        W34682   8.352   4.829  14.643 -0.2371 -0.0899  0.1284
16479W        W34683   0.151   5.023   0.869 -0.1029  0.2789  0.1600
16480W        W34684  16.415   3.640   2.842 -0.3267  0.0731 -0.2301
16481W        W34685  14.680   6.793  11.906  0.1099 -0.1627  0.2807
16482W        W34686  14.308   9.999   3.468 -0.1297 -0.0162 -0.2325
16483W        W34687   0.997   8.573  13.939  0.1844 -0.2988  0.4712
16484W        W34688  16.672   7.106  10.920  0.1067 -0.1010 -0.1233
16485W        W34689   1.812  15.649   4.093 -0.1295 -0.2342  0.2159
16486W        W34690   7.434  10.728  13.077  0.0449 -0.1011  0.0430
16487W        W34691   2.423   9.020   2.780  0.1619  0.4051  0.4982
16488W        W34692  15.032   3.254  14.462 -0.1512 -0.0921  0.1078
16489W        W34693   9.547   0.740   4.475 -0.0292  0.1826  0.0929
16490W        W34694   1.893  17.748  13.945 -0.2075 -0.3437 -0.0744
16491W        W34695   4.786   8.853   3.652 -0.2058  0.2867 -0.3282
16492W        W34696  11.259  18.176   3.604 -0.4515 -0.3758  0.3563
16493W        W34697   1.450  15.273   3.041 -0.2223 -0.2523 -0.0062
16494W        W34698  10.104  18.048  14.340 -0.0578  0.2418 -0.3014
16495W        W34699   5.162   0.643   3.446  0.2591  0.1489  0.0279
16496W        W34700   8.806   3.602  13.379 -0.2258  0.1734 -0.0569
16497W        W34701  17.276  11.084  13.443 -0.1493  0.1172  0.0165
16498W        W34702  13.206  12.848   1.912  0.1603 -0.1602 -0.0647
16499W        W34703  15.239  18.055   3.600  0.1268  0.0400 -0.1561
16500W        W34704  13.239   1.708   1.831 -0.1295  0.0489  0.1238
16501W        W34705   5.788   1.887  11.709  0.0789  0.3026  0.0507
16502W        W34706   9.055  10.780   3.073  0.3011 -0.0121  0.3559
16503W        W34707  10.031  11.358  11.484  0.3316  0.1033  0.3323
16504W        W34708  17.482  18.484  11.885  0.0877 -0.0667 -0.0715
16505W        W34709   2.904   0.045   4.853 -0.2563 -0.2516  0.1824
16506W        W34710   6.181   3.276   3.054  0.2502  0.0453  0.2657
16507W        W34711  17.695   1.025   5.000 -0.0834 -0.1045 -0.1679
16508W        W34712   6.131   9.384   3.483  0.2093 -0.0828 -0.2549
16509W        W34713   9.231  11.019  12.632  0.0033 -0.0320 -0.1008
16510W        W34714   8.523  10.577   3.371  0.0775  0.1111  0.2705
16511W        W34715   8.260   0.646   0.700  0.0744 -0.0358  0.0295
16512W        W34716   8.988  15.467   1.154 -0.0240 -0.0776 -0.2327
16513W        W34717   2.482   2.753  10.805  0.0668  0.3362  0.1673
16514W        W34718  14.540   2.679  12.157 -0.2204  0.1109 -0.3820
16515W        W34719   5.428  13.158   4.043 -0.0033  0.2092 -0.0536
16516W        W34720   8.465  15.138  14.410 -0.3724  0.0906 -0.1300
16517W        W34721   0.845  13.384  15.341  0.1445  0.3550 -0.2334
16518W        W34722   7.104  15.006  12.558  0.0405 -0.1990  0.0043
16519W        W34723   6.014  15.093  14.978 -0.2359 -0.0184 -0.1631
16520W        W34724  15.189  13.178   2.635  0.1426 -0.3208 -0.1250
16521W        W34725   9.389  10.357   3.173 -0.0417  0.3618  0.0790
16522W        W34726  13.975  14.066  13.284  0.0914  0.2949 -0.1701
16523W        W34727  17.517  13.749   4.127  0.0147  0.0185 -0.1497
16524W        W34728   5.278  17.160   5.056  0.1127 -0.1252  0.0997
16525W        W34729   7.893   0.460   1.916  0.2074  0.0532 -0.0829
16526W        W34730  14.267  16.703   2.300  0.1144 -0.1667  0.2583
16527W        W34731   6.472  12.497  10.899  0.2117 -0.0162  0.1818
16528W        W34732   3.247  16.104   0.727  0.0693 -0.4070  0.0383
16529W        W34733  12.273   7.217  14.102  0.2348 -0.0139 -0.2512
16530W        W34734   0.069   1.616  14.704 -0.0052  0.4225 -0.3190
16531W        W34735   1.185   9.986   0.837  0.2234 -0.1705 -0.0652
16532W        W34736  10.867  17.986   3.322  0.2885  0.1735  0.0474
16533W        W34737   3.210   6.666   4.352 -0.2745  0.0308 -0.0647
16534W        W34738  13.122   5.983  10.953 -0.0372  0.1374 -0.0978
16535W        W34739  12.195   7.791   4.032  0.0525  0.0010 -0.0687
16536W        W34740   1.842   1.553   4.150  0.0846 -0.2887  0.0243
16537W        W34741  14.422   9.835   5.566  0.1415  0.0381 -0.1611
16538W        W34742   1.442   9.865  14.364 -0.0684 -0.0552 -0.2587
16539W        W34743   4.163  13.864   2.533  0.2927  0.0103 -0.2021
16540W        W34744   1.882  11.001   1.643 -0.1086 -0.0888  0.3413
16541W        W34745  15.374   8.402   2.940 -0.2779 -0.1354  0.0136
16542W        W34746  15.875   8.341  14.964 -0.0837 -0.0690 -0.0110
16543W        W34747  18.279  15.495   4.882  0.0069 -0.1542  0.0511
16544W        W34748   7.097   8.266  14.059  0.4128 -0.1378 -0.1345
16545W        W34749  10.937  10.789  13.017 -0.1447  0.0123  0.1781
16546W        W34750  16.151   4.457   3.172 -0.1232 -0.1783  0.0903
16547W        W34751  16.880  10.692  11.667  0.3868 -0.0144  0.1309
16548W        W34752  10.787  17.829  11.062 -0.1538  0.1113  0.4638
16549W        W34753   3.944  15.785   1.242  0.1032 -0.0450  0.0828
16550W        W34754  12.314   7.064   0.645 -0.1320  0.1670 -0.1167
16551W        W34755   2.528  13.901   1.336 -0.1857  0.0735 -0.5383
16552W        W34756  17.050   9.704   0.415 -0.0649  0.1465  0.0702
16553W        W34757   6.825   1.398  13.216  0.1264  0.2330 -0.0297
16554W        W34758   2.210   1.943   4.185 -0.0690 -0.0331 -0.2453
16555W        W34759   7.140  16.070  15.210  0.1097 -0.1573  0.1608
16556W        W34760   0.789   1.396  13.146 -0.0863 -0.1144 -0.0887
16557W        W34761   5.370   7.332   0.694 -0.0457 -0.0976  0.1480
16558W        W34762   4.586   9.862   3.633  0.1548 -0.0262  0.1028
16559W        W34763  12.402   1.681   1.640  0.3609 -0.2685 -0.1230
16560W        W34764  16.239   6.869   1.278 -0.0215 -0.1063 -0.2240
16561W        W34765  13.355  18.499   3.918  0.1241  0.0471 -0.0442
16562W        W34766  17.072   6.233  15.138 -0.1592  0.0178 -0.3093
16563W        W34767  18.613  11.107  14.634  0.0127 -0.0491  0.1716
16564W        W34768  10.859   6.637   2.114  0.0107 -0.1796  0.1847
16565W        W34769   5.600  13.030  11.186 -0.0763  0.1129 -0.1660
16566W        W34770  12.703   6.701  14.680  0.0568 -0.1558 -0.0627
16567W        W34771  12.382   5.498   3.111 -0.1300  0.0770 -0.2447
16568W        W34772   7.110   8.024   2.426 -0.3526 -0.4868 -0.1210
16569W        W34773  17.613   5.334   5.447  0.1385 -0.3149 -0.0873
16570W        W34774   9.519  13.736   0.958  0.0727  0.2149 -0.4886
16571W        W34775  10.949  12.662  14.906 -0.0956 -0.0490  0.0512
16572W        W34776   0.721  14.380  13.928  0.0539 -0.1684 -0.3334
16573W        W34777  17.766   1.135   0.375  0.2036  0.0171 -0.0683
16574W        W34778   6.419   0.690  14.832 -0.2843 -0.1606  0.2190
16575W        W34779  11.994  18.388   0.605 -0.3054  0.4237 -0.0193
16576W        W34780   3.937   3.587   3.981 -0.2823 -0.0520 -0.0414
16577W        W34781   2.068  17.332  11.303  0.2159  0.0287  0.0575
16578W        W34782  12.135   0.102   3.342  0.0026 -0.0570 -0.0094
16579W        W34783  10.381  11.887  14.578 -0.1906  0.0666  0.1757
16580W        W34784  15.118  14.813   4.617  0.2166 -0.0202 -0.0727
16581W        W34785  12.260  11.493   0.943  0.0977  0.0037  0.0964
16582W        W34786  16.859   9.691   4.555  0.1118  0.0025 -0.0432
16583W        W34787  12.295   9.288  14.489  0.1323  0.2734 -0.0681
16584W        W34788  17.742  15.929  13.314 -0.1750 -0.0288  0.0329
16585W        W34789   7.991  17.698  12.927  0.2299 -0.1198  0.1433
16586W        W34790  15.124   5.112  13.424  0.0821 -0.2283  0.3774
16587W        W34791   7.317   1.026   0.980  0.0408  0.4845 -0.0668
16588W        W34792  14.720  16.875   1.181 -0.1080 -0.3618 -0.0274
16589W        W34793   8.842  13.807  15.150 -0.1527  0.0416 -0.0609
16590W        W34794  14.392  17.924   1.526 -0.1275  0.1836 -0.2160
16591W        W34795  17.043   6.474   1.475 -0.0245 -0.4562 -0.0785
16592W        W34796   7.376   8.661  10.475  0.0073 -0.1181 -0.2206
16593W        W34797  10.116   8.242   0.632  0.1328  0.1855  0.1773
16594W        W34798  12.361   2.498   4.310 -0.2207 -0.2389 -0.1837
16595W        W34799   2.436   5.711  12.577 -0.1368 -0.3095 -0.1273
16596W        W34800  18.146  17.391  12.469  0.1306  0.3150  0.1275
16597W        W34801   0.692   0.783   0.484  0.3979 -0.1480 -0.0136
16598W        W34802   2.192   5.032   2.932 -0.2748 -0.0464  0.2471
16599W        W34803   7.449  10.088  10.580 -0.1473  0.1378  0.1867
16600W        W34804   7.076   3.461  11.719 -0.1834 -0.0453  0.0980
16601W        W34805   7.857  18.112   1.805  0.0005 -0.1170 -0.2849
16602W        W34806   7.063  12.586  11.696  0.0659  0.4336 -0.1804
16603W        W34807   4.020   0.613   0.210 -0.0091 -0.0640 -0.1058
16604W        W34808   1.736   9.991   2.336  0.0633 -0.0384 -0.1298
16605W        W34809   9.784  16.262  12.941  0.0002  0.0458 -0.1035
16606W        W34810   6.766  17.362  13.078 -0.2098 -0.3965  0.0532
16607W        W34811  11.648   0.364   4.015  0.0521 -0.0879 -0.2177
16608W        W34812  18.361   1.591  13.867  0.3340 -0.0025 -0.0056
16609W        W34813   3.150   8.189   0.926 -0.0147 -0.1101 -0.1215
16610W        W34814  14.680   0.409  10.089 -0.1309  0.1561  0.1201
16611W        W34815   6.164  10.208  13.849 -0.1309  0.1114  0.1898
16612W        W34816   1.487   1.293   9.842  0.0892 -0.0894  0.1465
16613W        W34817  12.296  11.554   3.753  0.0631  0.2330 -0.0258
16614W        W34818   4.533  11.235  14.821 -0.2921  0.4175  0.0757
16615W        W34819  18.114  11.216  15.254  0.1138 -0.0402 -0.0412
16616W        W34820   6.248   4.565  11.567 -0.0192  0.2698  0.1445
16617W        W34821   8.670   9.423   3.989  0.0635  0.2534 -0.0120
16618W        W34822   2.380   0.406   0.011  0.0728 -0.2694  0.0692
16619W        W34823  11.262   4.462   2.105 -0.0256 -0.0135  0.2182
16620W        W34824  10.175  11.056   0.637  0.0172  0.1222  0.0446
16621W        W34825   8.768   4.582   3.614 -0.0232  0.2288  0.1358
16622W        W34826   6.774   8.792  12.200  0.0057  0.3267  0.2706
16623W        W34827   4.594  18.050   1.181  0.1291  0.1313  0.0211
16624W        W34828   8.791  17.699  11.125 -0.1988 -0.1732  0.1507
16625W        W34829   9.475   8.188  14.142  0.0996  0.0602 -0.0389
16626W        W34830  15.624   4.826   2.530  0.0829 -0.3477  0.0184
16627W        W34831  15.258   0.415  13.923 -0.2495 -0.1742 -0.2047
16628W        W34832  11.554   9.440   0.123  0.0498 -0.1711 -0.2063
16629W        W34833  15.800  13.065   3.374  0.0207  0.0055 -0.0234
16630W        W34834  17.674  13.525  12.143  0.4798  0.2298  0.1810
16631W        W34835  13.377   7.244  14.183  0.3571 -0.2136  0.1634
16632W        W34836   3.430  11.426   2.392  0.4398  0.0099 -0.1226
16633W        W34837  15.627   5.359   5.049 -0.0909 -0.1671  0.0982
16634W        W34838  14.435   8.921  11.391  0.0913  0.1517  0.0460
16635W        W34839   6.518  11.896   2.455 -0.0190 -0.0380 -0.0488
16636W        W34840  17.722  17.162  12.247  0.3888  0.3472  0.0004
16637W        W34841   9.118  16.624   4.764  0.2224 -0.0726  0.2217
16638W        W34842  13.987   8.719  15.373 -0.0533  0.1441  0.0087
16639W        W34843   1.149   1.532  15.035 -0.0883 -0.1384 -0.0678
16640W        W34844   0.334   3.805  12.369  0.2357 -0.1688  0.1649
16641W        W34845   7.776   7.296  13.105 -0.0360 -0.1902  0.0286
16642W        W34846   5.392  17.592  13.301 -0.2239 -0.0341  0.0026
16643W        W34847   5.522   2.906  13.672  0.0829 -0.1957 -0.0624
16644W        W34848  12.729  16.085   4.875  0.0690 -0.1796  0.0170
16645W        W34849  18.617   0.551  10.644  0.0468 -0.2081 -0.1368
16646W        W34850   9.175  13.118  12.384 -0.2447 -0.0971 -0.4098
16647W        W34851   0.868  17.024   2.509 -0.2650  0.0661 -0.0733
16648W        W34852   7.299  11.833   0.291  0.2237 -0.0409 -0.2095
16649W        W34853   6.915  10.511  13.296  0.2145 -0.0370  0.3065
16650W        W34854   5.620  12.634  10.905  0.2246 -0.1146  0.2360
16651W        W34855  11.650  16.625  14.351  0.1312  0.0218  0.0461
16652W        W34856  13.636   5.207  12.266  0.0442 -0.1459  0.1973
16653W        W34857   3.439   8.651   3.656  0.2129  0.1182 -0.3602
16654W        W34858   5.640  13.518  13.291  0.2268 -0.2771 -0.3744
16655W        W34859   4.116   1.017  13.494 -0.0382  0.1185  0.1203
16656W        W34860   4.227  14.722   2.102 -0.1142  0.0847  0.0901
16657W        W34861  12.464  10.698   3.240 -0.2108  0.1212 -0.1227
16658W        W34862   0.066   1.831  10.065 -0.1748  0.0378  0.3214
16659W        W34863  11.051  16.678   2.274  0.2539 -0.0487 -0.3383
16660W        W34864  17.937  14.286  11.999  0.2810  0.1529 -0.1468
16661W        W34865  18.505  16.997  11.888  0.1512 -0.1495  0.5080
16662W        W34866  16.443  10.897  13.624  0.0398  0.2848  0.0791
16663W        W34867   3.259   4.965   0.762  0.0816 -0.1298  0.0034
16664W        W34868  15.927  15.233   2.889 -0.0973 -0.0814  0.1435
16665W        W34869   3.778   5.933   4.937  0.1213 -0.0680 -0.0538
16666W        W34870  17.955   7.713   0.798 -0.3200  0.1151  0.0399
16667W        W34871  12.037  14.085   2.693  0.1085  0.1942  0.0471
16668W        W34872   5.981   9.017   0.111 -0.1306  0.0495 -0.0328
16669W        W34873   6.157   7.793  12.705  0.1579  0.2489  0.3457
16670W        W34874   1.938  15.144  14.450  0.1029  0.2870 -0.0446
16671W        W34875  11.616  11.220  14.182  0.1885 -0.1000  0.0076
16672W        W34876  13.249  12.043  11.391 -0.0663 -0.0649  0.1115
16673W        W34877   9.742  16.613  11.627 -0.1038  0.0530 -0.1814
16674W        W34878   0.864  18.450   3.892 -0.1111  0.4518  0.0189
16675W        W34879   1.850  11.486  12.507 -0.1876  0.1916 -0.1966
16676W        W34880   4.475  17.406   5.317 -0.1995 -0.1930  0.1220
16677W        W34881   1.218   2.771  12.170  0.1100  0.0776 -0.1202
16678W        W34882   0.692   5.559  13.232  0.3564  0.4133 -0.0227
16679W        W34883   6.894  13.971   0.303 -0.0420  0.0047  0.1242
16680W        W34884   0.099   3.564   2.640 -0.2587  0.2545  0.0103
16681W        W34885  15.504  18.336   2.684 -0.1623  0.0443 -0.2440
16682W        W34886   0.014  12.382   1.600  0.1433 -0.1436 -0.1007
16683W        W34887   0.340  16.658  11.233  0.2312 -0.1178  0.1216
16684W        W34888   8.635   6.743  12.537 -0.0468 -0.0388 -0.1030
16685W        W34889  16.563  17.763  13.225  0.0046 -0.1274 -0.0490
16686W        W34890  13.167  11.554  15.255  0.0143  0.1878  0.1769
16687W        W34891   7.582  14.018  11.179  0.0469  0.0807 -0.1509
16688W        W34892   0.031  18.395  13.335 -0.1092  0.0451 -0.3136
16689W        W34893   7.851   1.572  14.273  0.1208 -0.1440  0.3581
16690W        W34894  15.323   9.048  14.570 -0.0735  0.1883 -0.2474
16691W        W34895  16.617   2.632   1.714  0.2221  0.0253  0.0849
16692W        W34896  15.995  13.490  14.430 -0.1289  0.0535  0.0821
16693W        W34897  10.342   1.869  12.568  0.1065 -0.2507 -0.0386
16694W        W34898  15.094   1.023   2.418 -0.1144 -0.1962  0.2186
16695W        W34899   7.278  16.894   5.240  0.1984  0.0570 -0.1646
16696W        W34900  12.240  14.061   5.597  0.0269  0.3145 -0.2768
16697W        W34901  12.070   2.801   2.268 -0.3384 -0.0183  0.1248
16698W        W34902   9.875   0.576  12.766  0.0318  0.2841 -0.0458
16699W        W34903  11.415  18.379  11.154 -0.1725 -0.3258 -0.1366
16700W        W34904  18.450  12.782   3.870 -0.2228  0.2202  0.0232
16701W        W34905   0.341  13.920   3.850 -0.2186 -0.0986 -0.0668
16702W        W34906   2.937   3.182  11.824  0.1507  0.3095 -0.0850
16703W        W34907   1.234   5.330   2.499 -0.2151 -0.1746  0.0973
16704W        W34908  14.695  15.273  14.001 -0.0130  0.0753  0.3789
16705W        W34909   7.487   7.101   1.312  0.1887  0.1781  0.1568
16706W        W34910   2.746   8.006   1.810  0.2070 -0.5681 -0.1039
16707W        W34911   3.664   0.044  11.979 -0.1487  0.1179  0.1080
16708W        W34912  16.251   5.250  13.672 -0.0006  0.1777 -0.1507
16709W        W34913   8.692  16.403   1.571  0.1021 -0.2555 -0.0310
16710W        W34914  17.337  18.221   4.605  0.2419  0.2389  0.1686
16711W        W34915  10.810   6.568   0.489 -0.3537 -0.1281 -0.0254
16712W        W34916  12.973   6.506   2.339 -0.0718 -0.2788  0.0016
16713W        W34917  17.869   8.093   3.509  0.1044  0.0729 -0.0354
16714W        W34918   6.373  17.143  15.288  0.1970  0.1381  0.2521
16715W        W34919   9.381  12.189  14.118 -0.2017  0.1907 -0.0914
16716W        W34920  15.322   1.077  11.079 -0.1853  0.1057 -0.2594
16717W        W34921   2.615  10.581   4.429 -0.1635 -0.1465  0.0916
16718W        W34922  17.468   7.081  13.367  0.1349  0.1779  0.0920
16719W        W34923  10.682  17.462   0.223  0.0533  0.3483  0.1821
16720W        W34924   6.891   6.306  13.830  0.2570 -0.1060  0.1689
16721W        W34925   7.305   6.918   4.489  0.0605  0.0747  0.1045
16722W        W34926   8.261  18.589   3.561  0.0642  0.0738 -0.0201
16723W        W34927  11.654   2.403  10.376  0.0136 -0.0799  0.2035
16724W        W34928   7.269  17.020  15.181  0.0630  0.4337 -0.0807
16725W        W34929  16.709   2.664  14.046  0.3214 -0.0197 -0.1438
16726W        W34930   9.603  17.289   0.944  0.1233 -0.2670 -0.2536
16727W        W34931  14.410   1.372  12.719 -0.0743 -0.1521 -0.0489
16728W        W34932  13.428  18.126   2.595  0.0666 -0.0782 -0.1448
16729W        W34933   8.277   3.912  14.134  0.0822  0.0673 -0.1367
16730W        W34934  13.837  14.808  14.907 -0.0624 -0.0048  0.0192
16731W        W34935   2.062   6.424   2.806 -0.0225 -0.0631 -0.1800
16732W        W34936  12.471  17.592  14.176 -0.1268  0.0081  0.2609
16733W        W34937   4.976   7.095   1.247  0.2122  0.0135 -0.1089
16734W        W34938   8.243  12.277  14.738 -0.1975 -0.2682 -0.2042
16735W        W34939  17.157   1.181  14.333 -0.1927 -0.1335  0.0764
16736W        W34940  17.911   6.858  13.478  0.0708 -0.0497 -0.0289
16737W        W34941  15.695   2.346   4.246 -0.1220 -0.0236 -0.1021
16738W        W34942  16.588   8.368   0.957 -0.2273 -0.3916 -0.0826
16739W        W34943  12.078  15.435  13.137 -0.2076  0.1218  0.1854
16740W        W34944  11.838  17.320   3.711  0.0534 -0.0786  0.0316
16741W        W34945   0.763   2.021  10.459  0.0159  0.1119  0.2794
16742W        W34946   3.618   2.669   3.722 -0.3017  0.1340  0.2760
16743W        W34947   7.989   5.250   2.394 -0.0216  0.0483  0.0847
16744W        W34948   2.387   4.983  14.231 -0.1698 -0.3953 -0.1766
16745W        W34949   8.793  13.455   0.300 -0.1946 -0.2324 -0.0357
16746W        W34950   5.600   2.932  11.485 -0.3841 -0.0274 -0.0953
16747W        W34951   7.674  16.397  13.097 -0.1644  0.3467  0.1749
16748W        W34952  15.968  15.897  15.242 -0.1263  0.1823  0.2356
16749W        W34953   9.665  18.277   3.246  0.0332  0.0582 -0.1458
16750W        W34954  14.609   9.419  13.454 -0.0115 -0.0467  0.0152
16751W        W34955  14.472  15.670   4.181  0.0783  0.0497 -0.1032
16752W        W34956   7.137   3.145  11.213 -0.0223 -0.0746 -0.0590
16753W        W34957   9.401  13.234   0.672  0.0888  0.1306 -0.1268
16754W        W34958  16.503  16.453   2.321  0.0423 -0.2004  0.1166
16755W        W34959   4.619  17.195   3.973  0.1322  0.0733 -0.1802
16756W        W34960   6.199   7.974   2.769 -0.3465  0.2086  0.1719
16757W        W34961  14.233   6.046   4.909  0.0955  0.2587 -0.0703
16758W        W34962   0.028   0.908  11.108 -0.2484 -0.0120  0.1587
16759W        W34963   4.916   4.276   3.555 -0.1402  0.1549 -0.0482
16760W        W34964   6.208  12.854  13.648 -0.2362  0.0338 -0.1724
16761W        W34965  10.998  12.434  11.421  0.0127  0.0067  0.2089
16762W        W34966  17.733  16.371  13.856 -0.0530 -0.0509  0.1279
16763W        W34967   9.795  14.420   1.617  0.0453 -0.0089  0.0063
16764W        W34968   4.942   1.177   3.248  0.1033 -0.1038 -0.2501
16765W        W34969  15.839   9.817  11.212  0.2516 -0.0147  0.2123
16766W        W34970   4.365   5.828  14.434 -0.4889 -0.4059  0.0856
16767W        W34971  14.095  17.178   2.450  0.2068 -0.1845  0.1193
16768W        W34972  14.602   4.108   4.078  0.2238 -0.0579 -0.0049
16769W        W34973   5.319   1.152   3.537  0.0361 -0.0749  0.0945
16770W        W34974  14.879  12.365   3.872  0.0807 -0.1060 -0.0840
16771W        W34975   0.997   2.035  13.831 -0.0284 -0.3078 -0.1778
16772W        W34976  16.308   0.959   3.240  0.0516  0.1851  0.1280
16773W        W34977   5.077  11.127   4.953  0.2438 -0.1857 -0.1887
16774W        W34978  16.786   1.699   0.085 -0.1610  0.3631  0.4691
16775W        W34979   3.179  11.842   4.274 -0.0281 -0.0547 -0.0964
16776W        W34980   7.458   5.565  14.513  0.0484 -0.0015  0.0588
16777W        W34981  15.201   4.707   3.643  0.2559 -0.1373  0.1319
16778W        W34982   0.454  16.622   0.805 -0.0703  0.1239  0.3427
16779W        W34983   0.063  11.991  12.588  0.4298  0.0964  0.1982
16780W        W34984   3.804  13.931  10.362  0.0726 -0.4250 -0.2354
16781W        W34985   0.812   2.332  14.773  0.0540 -0.0317 -0.1954
16782W        W34986   3.718   7.650  14.051 -0.1385 -0.0818 -0.3547
16783W        W34987  13.375   1.718  11.206  0.0937  0.1214  0.1073
16784W        W34988   2.418   5.305  11.703 -0.2127  0.1792  0.1300
16785W        W34989  12.273   4.082   2.534 -0.3586 -0.0717 -0.1153
16786W        W34990   7.223   1.038   4.410  0.0171  0.3439  0.2683
16787W        W34991  16.658   4.984  13.540  0.1467  0.0398 -0.1073
16788W        W34992  17.505   5.629   1.808  0.1633  0.3303  0.1844
16789W        W34993   4.353   1.390  13.780  0.1208 -0.0249 -0.0805
16790W        W34994   8.603   0.914  11.143  0.1347 -0.2859  0.0876
16791W        W34995   8.998   7.001   2.056  0.1413 -0.2357 -0.0834
16792W        W34996   5.503  13.983  12.610 -0.1300  0.6062  0.0455
16793W        W34997   5.862   3.240  10.103  0.1605 -0.0262 -0.2154
16794W        W34998  17.988  15.043   4.756  0.0742 -0.0449  0.1945
16795W        W34999   8.564   0.310  15.286  0.0970  0.1860 -0.0609
16796W        W35000  15.509  17.765  12.571  0.0589 -0.1152 -0.3353
16797W        W35001  13.671  17.688  13.161 -0.0231 -0.0740 -0.1114
16798W        W35002  17.007   8.505   0.663 -0.0142 -0.1786 -0.1394
16799W        W35003   9.203   7.335   0.204 -0.0412  0.0729 -0.1440
16800W        W35004  16.416   3.620   4.026 -0.2151 -0.1420 -0.0310
16801W        W35005   3.595   9.523  14.545 -0.2462  0.0438 -0.1159
16802W        W35006  13.043   4.730  14.982 -0.0088 -0.2270 -0.4155
16803W        W35007   6.139   2.410   3.085 -0.0270 -0.0515 -0.0822
16804W        W35008   9.839  13.720  12.566  0.1422 -0.5680  0.1941
16805W        W35009   4.993   6.670   0.264  0.2277  0.1410 -0.3167
16806W        W35010   0.452   4.707   2.834 -0.0408  0.1105 -0.1747
16807W        W35011  18.576  15.074  11.432  0.3587 -0.0600  0.0221
16808W        W35012   9.918   1.902  13.203  0.0455 -0.1221  0.0493
16809W        W35013   6.680  11.836  15.403  0.1359  0.0193  0.3687
16810W        W35014   8.329   5.424  14.671  0.1215  0.2222  0.1503
16811W        W35015   0.726   4.458  15.028  0.2599 -0.1419  0.1770
16812W        W35016   3.460   6.884  13.460 -0.0613  0.0938 -0.0360
16813W        W35017   5.156  13.821   0.260 -0.0893  0.1089  0.2701
16814W        W35018   4.632   1.291   4.630 -0.0852  0.1028  0.3790
16815W        W35019   0.034  13.703  14.155 -0.2672 -0.3204  0.1518
16816W        W35020   9.284  12.684  13.772  0.0549 -0.0359 -0.0283
16817W        W35021  14.094   5.972   2.237 -0.1013  0.2720 -0.2228
16818W        W35022  12.976   9.122  11.967 -0.0913 -0.1994 -0.0209
16819W        W35023   7.849  14.181   2.452 -0.4029 -0.3371 -0.1214
16820W        W35024   8.761  11.415  15.057  0.1347  0.0241  0.0202
16821W        W35025  11.037  11.249  12.854  0.2263  0.0612  0.2988
16822W        W35026  15.048  11.954   3.292  0.3989  0.1236 -0.0576
16823W        W35027  18.564  11.232   2.426  0.3719  0.2242 -0.3365
16824W        W35028   7.448  14.323   2.292  0.4389 -0.3480 -0.1123
16825W        W35029  14.951  14.526   2.513 -0.1490  0.1569 -0.1801
16826W        W35030   4.121  10.526  11.154  0.3185  0.2513 -0.3470
16827W        W35031   6.921  14.947  11.479 -0.1410 -0.1333 -0.2195
16828W        W35032  14.423  10.170   1.559 -0.0891  0.3101  0.3749
16829W        W35033  11.573   2.591  14.663  0.1967 -0.0358  0.0370
16830W        W35034   9.298   7.856   0.207  0.0310 -0.0922 -0.1340
16831W        W35035  17.023  18.354  15.035  0.1309  0.3469 -0.4321
16832W        W35036   8.751   0.732   2.426  0.1776 -0.0950 -0.4134
16833W        W35037   3.838  15.327  13.591 -0.0877 -0.2333  0.1392
16834W        W35038   8.794   6.931   3.395  0.2438 -0.0689 -0.0935
16835W        W35039   8.370  13.667  14.311  0.0310 -0.1213 -0.0542
16836W        W35040  14.090   8.052   2.314  0.0524 -0.1254  0.2626
16837W        W35041  18.565   0.215  14.237 -0.1815 -0.1721  0.0246
16838W        W35042  16.622  18.421   4.238 -0.4427 -0.0103  0.1553
16839W        W35043  17.010  10.678  14.234  0.0934  0.1858  0.1083
16840W        W35044   9.685   3.557   1.994 -0.1457  0.3351  0.1060
16841W        W35045  18.161  13.102   1.352  0.0088  0.0788  0.3358
16842W        W35046  12.347   9.549   4.586  0.4461  0.0494  0.1773
16843W        W35047  11.589   8.408  11.044 -0.0417 -0.3966  0.1454
16844W        W35048  13.719  15.630  14.645  0.1019  0.3504 -0.1383
16845W        W35049   1.077   8.454   3.923 -0.1094 -0.0326  0.0249
16846W        W35050   9.338  13.988  12.578  0.0992  0.0392  0.3106
16847W        W35051  13.497   0.999  12.458 -0.1414 -0.1430  0.1505
16848W        W35052  16.708  13.874   4.486  0.0791 -0.1023  0.0882
16849W        W35053  18.257  18.492  12.506  0.1555 -0.0650  0.2379
16850W        W35054  11.923  13.116   3.695  0.2638 -0.3901  0.1984
16851W        W35055  16.356   9.683  11.609  0.1943  0.3379  0.2493
16852W        W35056   4.316   8.381  12.365  0.0165  0.0019 -0.2138
16853W        W35057   8.878  12.761   2.198  0.1270  0.0874  0.2717
16854W        W35058  16.980   4.273   0.583 -0.0477 -0.1289  0.4460
16855W        W35059   5.634   4.247  12.964  0.0858 -0.3255 -0.1441
16856W        W35060  17.244   8.061   4.262  0.2259  0.0448 -0.0446
16857W        W35061   2.391   4.097  11.555 -0.3690  0.0787 -0.2047
16858W        W35062   6.279  12.190  13.968  0.0436 -0.2071 -0.2578
16859W        W35063  18.588   6.848  13.239  0.1436  0.2554  0.0909
16860W        W35064  15.768  18.094  12.163  0.1124  0.0848 -0.1571
16861W        W35065   7.637  18.001   3.519 -0.1651 -0.0246 -0.3982
16862W        W35066   9.193   0.336  11.822 -0.2075  0.0866  0.1148
16863W        W35067   7.858  11.116   4.306 -0.2601  0.0870  0.2046
16864W        W35068   5.219   8.202   2.724  0.0033 -0.3487  0.1200
16865W        W35069   0.435   5.201   1.806 -0.1043 -0.0281  0.4600
16866W        W35070  13.642   5.306   4.731 -0.0780  0.0189 -0.0453
16867W        W35071  16.598  11.868   3.151 -0.1047 -0.1687 -0.1221
16868W        W35072   9.888  15.826   0.965  0.0577 -0.0799 -0.0156
16869W        W35073  10.669   5.002  10.793  0.1505  0.0461  0.1627
16870W        W35074   5.374  13.107   1.087 -0.0784 -0.0181 -0.2786
16871W        W35075   8.280   3.939  10.193  0.1879 -0.2276  0.1046
16872W        W35076   6.574   9.262   1.663  0.0104 -0.0999 -0.0222
16873W        W35077   0.168   7.049   0.924 -0.0358  0.4124  0.0732
16874W        W35078   7.032   7.693  12.448  0.3269 -0.0505  0.2220
16875W        W35079  13.413   2.296  10.976  0.2545  0.0793 -0.2567
16876W        W35080   4.367  17.533   3.101  0.2277 -0.0878  0.1609
16877W        W35081  11.001  10.261  12.225  0.2373  0.0206 -0.1455
16878W        W35082  13.086   5.101  12.571  0.1696  0.2082  0.5124
16879W        W35083  13.017   3.650  12.920 -0.1079  0.2650 -0.0741
16880W        W35084   4.207   7.481   5.389  0.1813  0.4055 -0.1935
16881W        W35085   3.549  16.280   4.166  0.0422 -0.2577  0.1203
16882W        W35086  16.403  15.029  14.313  0.1275  0.2875 -0.2574
16883W        W35087   1.241   9.584  12.169 -0.0602 -0.3011  0.0512
16884W        W35088  15.518   1.573  14.621  0.3239  0.0049 -0.0952
16885W        W35089   3.548   2.793   2.100 -0.3439  0.1870  0.1211
16886W        W35090  14.667   5.389  13.787 -0.0663  0.1804  0.1525
16887W        W35091   7.648   6.480  13.538  0.2614  0.2147  0.1275
16888W        W35092   8.538  15.238   4.381 -0.0286 -0.1388 -0.2800
16889W        W35093  15.799   2.834  10.528 -0.1339 -0.1218 -0.1913
16890W        W35094   3.700   2.916   4.218  0.5409 -0.3887  0.1039
16891W        W35095  15.829  16.348  12.818  0.2594  0.0141 -0.0545
16892W        W35096  11.391   5.812  12.808  0.2481  0.1898 -0.1159
16893W        W35097  14.162   6.116   3.204 -0.4624  0.0049  0.0946
16894W        W35098  15.408  16.255  12.104 -0.3742  0.3864 -0.0276
16895W        W35099  11.022  16.208  15.041  0.0743 -0.0437 -0.0330
16896W        W35100  11.869   3.930   2.710 -0.2843 -0.0409 -0.4655
16897W        W35101  14.867   0.099  10.890  0.2050  0.0682 -0.1057
16898W        W35102   1.311   2.938  14.136  0.0635 -0.0354  0.2230
16899W        W35103   6.583   0.785   2.862 -0.1636  0.1220  0.0979
16900W        W35104  18.324  12.425  13.447  0.1820  0.0692  0.3135
16901W        W35105   2.498  11.930  11.587 -0.0949  0.2648  0.0170
16902W        W35106  14.159   6.863  14.813  0.0759  0.0288  0.0542
16903W        W35107  17.478   9.930   4.200  0.0522  0.1226  0.2375
16904W        W35108   6.802   2.176   1.731  0.2371 -0.1142  0.3703
16905W        W35109  15.466   9.324  13.615  0.1414  0.1085 -0.0542
16906W        W35110  16.600   9.718  12.819 -0.1752  0.2630 -0.0553
16907W        W35111   7.548   7.293  11.515  0.1789  0.1418  0.2462
16908W        W35112   1.359  14.702   1.103  0.0046  0.1115  0.3682
16909W        W35113  14.421  10.265  10.961 -0.0135 -0.0808  0.2891
16910W        W35114  17.610  17.881  10.856  0.1209 -0.1369 -0.0313
16911W        W35115  11.582  13.572   3.607  0.0620 -0.3424 -0.0142
16912W        W35116  14.352  10.293   2.672 -0.1592  0.0717 -0.0833
16913W        W35117   1.173  10.275  13.924 -0.0212 -0.1768  0.2357
16914W        W35118  11.982   3.700   1.805  0.4168  0.0527 -0.3089
16915W        W35119   0.719   5.991   0.619 -0.1705  0.2942 -0.1328
16916W        W35120  18.613  17.518  14.828  0.4108  0.0383  0.1398
16917W        W35121  17.663  11.191  10.823 -0.2033 -0.0433 -0.0791
16918W        W35122  16.394   0.309   3.307  0.2736 -0.2218 -0.0184
16919W        W35123   3.497   7.708   2.388  0.1044  0.2245 -0.1607
16920W        W35124   7.805   5.223   4.168  0.0072 -0.1117 -0.2059
16921W        W35125   7.073   7.584   2.660 -0.1495  0.0624  0.3365
16922W        W35126   4.304   5.526   9.668 -0.1972  0.1739  0.0562
16923W        W35127   4.808   5.098   1.018 -0.2817  0.2097  0.0760
16924W        W35128  13.286  13.152  10.681  0.2036 -0.1841 -0.1695
16925W        W35129  13.571  13.003   1.123  0.3281 -0.1748  0.0043
16926W        W35130  13.855   5.661  12.282  0.0349  0.0019 -0.1073
16927W        W35131   4.663  10.949   4.142 -0.1049  0.0694 -0.0071
16928W        W35132  10.752   2.502   4.780 -0.1386 -0.0384 -0.0830
16929W        W35133   1.460   5.558  15.398 -0.1617  0.0046  0.0442
16930W        W35134  12.368   8.769   1.090 -0.4610  0.0804 -0.0148
16931W        W35135   1.019   9.486   1.825  0.0901  0.1045  0.1363
16932W        W35136  17.262   8.247   4.702 -0.2883 -0.0555 -0.0256
16933W        W35137  15.578   8.127  10.936 -0.0599 -0.2982 -0.1240
16934W        W35138  12.982   5.640  14.131  0.0745 -0.0330  0.0759
16935W        W35139   3.697   4.125  10.946 -0.0191 -0.0859 -0.1597
16936W        W35140   3.916   8.248  12.679  0.1208 -0.0757 -0.2531
16937W        W35141   1.858   2.929   1.952 -0.1974  0.1163 -0.0572
16938W        W35142  17.768  15.629  12.209  0.3786  0.0549  0.1279
16939W        W35143  15.360  11.045   1.609 -0.0959  0.0517  0.4913
16940W        W35144   7.199   8.541   1.587  0.1425 -0.0001 -0.3262
16941W        W35145   5.059  18.266   2.827 -0.1006  0.3352  0.3154
16942W        W35146   0.161   3.053  15.171 -0.0707 -0.0689 -0.1085
16943W        W35147  17.771   0.033  14.675 -0.4030  0.2896 -0.0158
16944W        W35148  16.368  18.175   0.617 -0.0962  0.1144 -0.1198
16945W        W35149  18.486   6.223  10.604  0.0594 -0.0791  0.1983
16946W        W35150   9.073   7.143  11.600  0.0590  0.0058 -0.0666
16947W        W35151   3.236   0.110  15.323  0.0117  0.1238 -0.1946
16948W        W35152   9.159   2.408   3.516 -0.0595  0.0445  0.1467
16949W        W35153   4.289  16.000   1.698 -0.1559  0.5858  0.1812
16950W        W35154  18.006  11.835   1.058  0.0426 -0.3041 -0.0340
16951W        W35155   4.033   4.192   3.970  0.1630  0.0764  0.1845
16952W        W35156   5.165  13.743  11.468 -0.1692 -0.2231  0.0816
16953W        W35157  18.395  13.194   1.792  0.1443  0.1889 -0.4369
16954W        W35158   3.372  11.776  15.051 -0.1281 -0.0919  0.0034
16955W        W35159  11.604  18.112   0.408 -0.2540  0.1178 -0.1354
16956W        W35160   6.566  12.102   4.037 -0.1862 -0.3977 -0.0658
16957W        W35161   4.792   2.746   1.903 -0.0208  0.0981  0.1103
16958W        W35162   9.694   6.416   1.997  0.0045  0.1124  0.4629
16959W        W35163   8.256   3.900  13.162 -0.4176  0.3460 -0.1471
16960W        W35164  16.915  11.661  11.422 -0.0994 -0.2956  0.1519
16961W        W35165  15.063  13.380   0.595 -0.1094  0.0306  0.0635
16962W        W35166   6.768   0.275  14.882  0.2259 -0.0910  0.1335
16963W        W35167  15.377   5.905   2.794 -0.0218 -0.1338  0.0171
16964W        W35168  15.781  11.773   0.114 -0.0113  0.2582 -0.0942
16965W        W35169  12.994   1.026   0.537 -0.0159 -0.0964  0.1234
16966W        W35170   1.339   3.135   0.940 -0.0663  0.2137 -0.0286
16967W        W35171   3.904  12.195   1.337 -0.0404  0.0951 -0.0923
16968W        W35172   3.236  13.289   2.002 -0.0206 -0.1614  0.2205
16969W        W35173   9.478  11.381   0.060 -0.1597  0.0527 -0.1308
16970W        W35174  13.983  12.636   5.358  0.3961 -0.2430  0.1105
16971W        W35175   3.072  15.321  13.170  0.0790 -0.1065  0.0149
16972W        W35176   2.063   1.854   0.463  0.0032  0.0682  0.2118
16973W        W35177  15.810  12.500  13.377 -0.0948  0.2766  0.1026
16974W        W35178  15.205   0.477   0.092  0.1708  0.3896  0.0420
16975W        W35179   4.740   2.974  10.767 -0.0920  0.4404  0.1983
16976W        W35180  10.716   2.028  12.240 -0.1188 -0.0029 -0.0691
16977W        W35181  18.029  13.453   3.064  0.0410  0.2344 -0.2523
16978W        W35182   5.084  15.025  11.911  0.2599 -0.2982 -0.4499
16979W        W35183   4.138  14.517  11.914 -0.0967  0.0145  0.2484
16980W        W35184  12.391  13.379  15.248 -0.0678 -0.0697 -0.2258
16981W        W35185  14.178  12.699  12.664  0.0541 -0.1717 -0.1782
16982W        W35186  16.786   1.052  12.112  0.0997 -0.1545  0.1996
16983W        W35187  15.266  13.099  14.127  0.1963  0.1968  0.1400
16984W        W35188  10.451   2.126   2.943  0.1442 -0.1711 -0.0035
16985W        W35189   6.738   4.725   3.280  0.5139 -0.0241  0.0644
16986W        W35190   3.523   6.273   5.246 -0.1970  0.0969 -0.2767
16987W        W35191   4.514  16.854  14.904  0.0314 -0.1651 -0.0747
16988W        W35192   7.973  15.424  14.249 -0.0350  0.2478  0.0874
16989W        W35193   0.794   5.355  11.551  0.2180  0.2370 -0.4691
16990W        W35194  12.677   4.777  12.556 -0.1358  0.0392 -0.0069
16991W        W35195   2.024  17.918  10.933  0.2069  0.0473  0.1352
16992W        W35196   1.479   0.117  13.357  0.2096 -0.1372 -0.3317
16993W        W35197  14.689   6.594   2.837 -0.1387  0.0984 -0.1900
16994W        W35198  13.203   1.746   3.383 -0.2246 -0.0881 -0.0973
16995W        W35199   1.597  14.251  14.574 -0.0216 -0.2425  0.1120
16996W        W35200  16.066   2.190   1.191  0.2236  0.0290 -0.1220
16997W        W35201   6.947  10.488  15.428 -0.1386  0.2492  0.0527
16998W        W35202  17.429   8.867   0.830 -0.0876  0.1252 -0.0953
16999W        W35203   9.409  15.126  10.942 -0.1550  0.1045 -0.0741
17000W        W35204  18.500  11.655  11.780  0.0635  0.1439  0.2837
17001W        W35205  14.248  15.343   4.466  0.2216  0.0999 -0.0206
17002W        W35206   5.723   5.142  13.126  0.0125 -0.1680 -0.4917
17003W        W35207   1.572  10.430  10.883  0.0703 -0.2440  0.0402
17004W        W35208  15.949  14.839  14.349 -0.3696 -0.0138  0.1715
17005W        W35209   3.785   1.911  12.605  0.0662 -0.2117  0.3607
17006W        W35210   6.837  14.744  13.867  0.2240 -0.3940 -0.0330
17007W        W35211   1.399  13.914   2.946 -0.0755  0.0389 -0.1628
17008W        W35212  13.358  13.608  10.996  0.1267 -0.3933  0.1145
17009W        W35213   0.440  12.598   4.634 -0.0430 -0.1550  0.0460
17010W        W35214  12.082  11.150   9.872 -0.0115 -0.0579  0.2536
17011W        W35215  13.468  12.472  14.905 -0.1352 -0.0937  0.2802
17012W        W35216   2.456  14.910   2.994  0.1816  0.1212  0.2543
17013W        W35217  17.653  14.349  12.989 -0.2173  0.0369 -0.3612
17014W        W35218   8.002  10.923   0.820 -0.1390  0.3299 -0.1437
17015W        W35219   7.535  14.199  11.668 -0.2528  0.0583  0.2027
17016W        W35220  15.129   5.465   4.781  0.2598 -0.2413  0.1431
17017W        W35221  18.563   2.516  14.802  0.1311 -0.2283 -0.0034
17018W        W35222  16.846   6.025   3.437  0.1010 -0.0478  0.0485
17019W        W35223  12.020  15.652   9.979 -0.0641 -0.0190 -0.1841
17020W        W35224  16.070   5.346   2.239  0.1784 -0.3188 -0.0304
17021W        W35225  14.498   4.581  14.052 -0.1521 -0.1005  0.3298
17022W        W35226  15.761   9.048   4.168 -0.0344  0.2588 -0.0050
17023W        W35227   0.615   5.240   3.329  0.0329  0.1043  0.0938
17024W        W35228  10.932   9.587   0.317  0.3521 -0.1357 -0.2723
17025W        W35229  16.104  14.224   1.407 -0.3656  0.2673  0.0855
17026W        W35230  17.794   9.202   3.821 -0.1783  0.0017  0.1952
17027W        W35231  16.845   4.365   4.433 -0.0109  0.5198 -0.2157
17028W        W35232   8.133   8.230  10.237  0.1212 -0.1348  0.0276
17029W        W35233  10.121  16.899   2.169 -0.1416  0.1294 -0.1675
17030W        W35234   9.628  16.983   0.179  0.2090  0.3593 -0.2086
17031W        W35235   2.892  14.923   2.755  0.0559  0.0098  0.0972
17032W        W35236   6.319   2.005   0.448 -0.1525  0.0930  0.0412
17033W        W35237   2.455  10.969  12.027  0.0011  0.1695 -0.0050
17034W        W35238  11.317  10.200   3.785  0.1747 -0.2570 -0.0017
17035W        W35239   9.601   2.136  13.482 -0.1843 -0.0999 -0.2835
17036W        W35240  14.200   6.989   1.344  0.4715 -0.0251 -0.2255
17037W        W35241  13.217   9.704   0.963 -0.0672 -0.1777 -0.1569
17038W        W35242  17.750   2.006   2.990 -0.2179  0.1230  0.0659
17039W        W35243   6.769   4.281   0.240 -0.1352 -0.1230 -0.0356
17040W        W35244  17.829   6.461   4.704  0.0141 -0.4295  0.3300
17041W        W35245  15.254   6.532   3.004  0.2323 -0.2881 -0.0772
17042W        W35246  15.429   0.876  15.321  0.1089  0.2921  0.0654
17043W        W35247  16.899   8.237   1.354 -0.0376  0.0011 -0.1704
17044W        W35248  11.141   2.950   0.325 -0.1121 -0.0176  0.3629
17045W        W35249  12.054   6.806  15.449 -0.0950 -0.1520  0.2229
17046W        W35250   4.769  17.106  12.567 -0.0047 -0.0612 -0.0700
17047W        W35251   1.113   7.860   2.311  0.1295  0.2883 -0.1367
17048W        W35252   7.722  11.905   1.092  0.0317 -0.3766  0.4051
17049W        W35253   8.903  11.370   2.552  0.0987 -0.1284 -0.3516
17050W        W35254   7.255   5.434  11.969 -0.0384  0.1730  0.0987
17051W        W35255  13.105   4.381   3.151  0.0423  0.0398 -0.0286
17052W        W35256  16.083   5.041   1.296  0.0515 -0.1003  0.1319
17053W        W35257   5.691  11.901   4.113 -0.1243  0.1675 -0.0369
17054W        W35258   0.483   9.833  11.952  0.1865 -0.0708  0.1851
17055W        W35259  17.649  10.443   4.312  0.1397 -0.1939 -0.2859
17056W        W35260  13.897  16.566  14.819 -0.3680  0.0030  0.0566
17057W        W35261   8.686   2.505  13.185 -0.0573  0.1735  0.1081
17058W        W35262   1.533  15.567   4.491  0.0885 -0.0945 -0.0554
17059W        W35263   7.933   5.864  12.038 -0.2597  0.1118  0.2368
17060W        W35264   0.036  17.851  13.843 -0.0604 -0.1717  0.2575
17061W        W35265   1.191  14.232   1.030  0.1355  0.1247 -0.2805
17062W        W35266   4.284   4.482   0.422  0.1180  0.2611 -0.1488
17063W        W35267   4.372   3.074  13.250  0.0353 -0.1021 -0.1032
17064W        W35268  14.823   6.688   4.944 -0.0511  0.0210  0.0292
17065W        W35269   5.031  16.051   4.100 -0.0763 -0.1057 -0.0496
17066W        W35270  11.265   0.201   2.086 -0.0291 -0.1360 -0.0233
17067W        W35271  16.099   3.033  13.180  0.0987 -0.4844 -0.1776
17068W        W35272  10.073   6.708   0.185  0.1539  0.1217 -0.1473
17069W        W35273   5.999  10.500   9.681  0.2006 -0.0556 -0.0392
17070W        W35274   0.851   6.434  11.501 -0.0063 -0.0620  0.0499
17071W        W35275  15.572   2.285   2.650 -0.0188  0.0731 -0.2405
17072W        W35276   8.665   3.356  12.940  0.0957  0.2804  0.0561
17073W        W35277  18.609   5.106  15.132  0.3197  0.2547  0.0318
17074W        W35278   5.646   2.334   1.613 -0.0886 -0.0614  0.0533
17075W        W35279   2.566   5.123   1.288 -0.0399  0.3736  0.0228
17076W        W35280  16.475   2.504   1.205 -0.0205  0.3901  0.2597
17077W        W35281   7.260  11.432  14.171 -0.1909 -0.0169  0.2443
17078W        W35282  14.486  17.343  12.348  0.0320 -0.0655  0.1967
17079W        W35283   4.530   1.269  12.444  0.1388  0.0836  0.0231
17080W        W35284   2.984  10.107   4.807 -0.2677 -0.0393  0.0365
17081W        W35285  12.342  11.270  15.433 -0.1752  0.1101  0.3133
17082W        W35286   6.808   1.751  14.208 -0.4169 -0.1156 -0.2243
17083W        W35287  17.931   9.766  13.427 -0.2135 -0.2689 -0.1514
17084W        W35288   9.208  15.233   2.012  0.0376 -0.5400  0.1929
17085W        W35289  17.700   3.034   0.978  0.0301  0.0617 -0.1416
17086W        W35290  15.465  12.360   2.895 -0.0745 -0.0974 -0.0652
17087W        W35291   9.230   6.069   3.540 -0.1025  0.1350 -0.0577
17088W        W35292  11.121   1.480  12.513 -0.0960  0.1540 -0.0779
17089W        W35293  14.745   8.804  10.966 -0.1498 -0.1003  0.2593
17090W        W35294  17.630  13.069   4.028 -0.1046 -0.0807 -0.0396
17091W        W35295   7.258   0.144  13.445  0.1903 -0.0948  0.0615
17092W        W35296  15.100   9.363  10.870  0.0980 -0.4427 -0.1393
17093W        W35297  10.934  16.610  13.731 -0.0319 -0.1213 -0.0953
17094W        W35298  15.166  18.034  11.561 -0.0697  0.2192 -0.2864
17095W        W35299   7.359  15.981   0.868 -0.1377 -0.2613  0.0677
17096W        W35300   5.648  17.862   0.653 -0.0210  0.0375 -0.3285
17097W        W35301  15.073   3.305  12.099  0.0086  0.0965 -0.0458
17098W        W35302   2.911  14.856  13.400  0.0151 -0.1061  0.0139
17099W        W35303  18.549  17.572  12.649 -0.1012 -0.1705 -0.0415
17100W        W35304   0.385   4.735   3.366  0.0773  0.2332 -0.1069
17101W        W35305  17.243  17.091   3.400  0.0924  0.3097 -0.0201
17102W        W35306  12.331  14.417   1.815  0.1781  0.1720 -0.3801
17103W        W35307   9.296   9.021   5.187  0.0173 -0.0481  0.0069
17104W        W35308   1.336   0.181   0.359  0.0773 -0.2842  0.3197
17105W        W35309   6.723   7.190   3.515  0.0369  0.1173 -0.1509
17106W        W35310  12.989  11.795   0.290  0.1885 -0.0607 -0.1556
17107W        W35311  16.477   2.845  12.906 -0.0285 -0.0630 -0.0755
17108W        W35312   1.011   9.118  12.085 -0.0482  0.2755  0.1240
17109W        W35313  10.599  12.229  13.255 -0.1825 -0.1632  0.0910
17110W        W35314  16.714  15.099   3.605 -0.0009 -0.0018  0.1154
17111W        W35315   7.621  18.097  14.091 -0.3175  0.1335  0.1567
17112W        W35316   9.761   4.126   4.075  0.0084 -0.1592  0.1763
17113W        W35317   7.007   5.764  12.321  0.0263  0.3323  0.2152
17114W        W35318   9.587  18.446   4.067 -0.1433 -0.1676  0.1195
17115W        W35319   7.275  12.013   1.875 -0.1129  0.0828 -0.4399
17116W        W35320  15.030   4.461  12.153 -0.0750 -0.1623 -0.1768
17117W        W35321  14.315  16.625  10.918  0.0333  0.0034  0.0996
17118W        W35322  10.819  12.670   0.237 -0.0138  0.0861 -0.0475
17119W        W35323  12.134  14.618   3.648 -0.2534 -0.0330  0.1025
17120W        W35324  14.345  12.561   3.702  0.0099 -0.0371 -0.1841
17121W        W35325  15.790  11.809   2.595  0.1325  0.2155  0.1459
17122W        W35326  14.593   3.691  10.656 -0.0153 -0.2900 -0.3931
17123W        W35327  17.845   9.482   2.589 -0.1424 -0.0397 -0.1935
17124W        W35328   7.739  10.333  12.806  0.2007 -0.1193  0.2593
17125W        W35329   5.223   8.718   2.692  0.2492 -0.0769  0.0361
17126W        W35330  14.564  14.043  14.365  0.1786  0.0072 -0.0408
17127W        W35331  11.461  16.618  13.689 -0.1066 -0.0607 -0.0356
17128W        W35332   9.494   6.990   0.794 -0.1592  0.2625 -0.2635
17129W        W35333  12.876  11.662  14.683  0.3104 -0.0555 -0.1428
17130W        W35334   7.759   1.873  12.273  0.3642 -0.0208 -0.3265
17131W        W35335   5.138  13.900  14.718 -0.0171 -0.0757  0.0198
17132W        W35336  16.852  14.662   3.799 -0.0051 -0.0761  0.0423
17133W        W35337   9.486   3.957   3.632  0.1078  0.1458  0.1103
17134W        W35338   0.181  12.570  12.726  0.2187 -0.4478  0.0711
17135W        W35339  15.953   7.502  14.948  0.1843  0.1535  0.2968
17136W        W35340  14.345   8.060   1.270 -0.1600 -0.1865 -0.1324
17137W        W35341   8.928  15.711   3.314  0.1786 -0.0847 -0.0162
17138W        W35342   1.002  17.863  11.516  0.3020 -0.0377 -0.0294
17139W        W35343  12.238   8.392   3.602  0.0250  0.0588  0.2002
17140W        W35344   7.452   1.297   2.979  0.4431 -0.0292  0.1941
17141W        W35345   9.674  16.255  13.398  0.2693  0.0027  0.1550
17142W        W35346  13.301   5.664   1.170 -0.2015 -0.2782 -0.1221
17143W        W35347   3.049   2.370   2.658 -0.0053  0.2685 -0.3660
17144W        W35348   3.312  15.086   2.321 -0.0773  0.1117  0.2527
17145W        W35349   6.411  11.562  10.049  0.2451  0.4312  0.4098
17146W        W35350  16.848   3.272  12.876 -0.1365 -0.0674 -0.2418
17147W        W35351   7.246   0.709  12.762  0.0765 -0.3121 -0.1427
17148W        W35352  11.189   3.074   2.963 -0.1227 -0.0516 -0.0731
17149W        W35353  10.904  17.371   0.665 -0.2157 -0.0628 -0.0435
17150W        W35354  15.964   7.883  13.651 -0.0162  0.0869 -0.0488
17151W        W35355   9.474   7.192  15.212  0.3587  0.1178 -0.1992
17152W        W35356   3.229  10.077   3.283 -0.0415  0.0597  0.3812
17153W        W35357  11.768  11.651  11.137 -0.0177  0.0769 -0.0181
17154W        W35358  16.742   3.623  15.294  0.0704  0.0682 -0.4105
17155W        W35359   3.095  14.583   2.498  0.0298  0.0890 -0.1019
17156W        W35360   3.025   7.191  15.305 -0.1574  0.1054 -0.0069
17157W        W35361  18.520  17.460  10.874 -0.0460  0.0370  0.1409
17158W        W35362   4.047  13.274  11.321 -0.2134  0.1769  0.0209
17159W        W35363  14.870  11.596   0.496 -0.2847  0.2433 -0.2369
17160W        W35364   0.287   8.140   1.358  0.0625 -0.3872  0.0852
17161W        W35365  16.442  12.474  15.206  0.0066 -0.2157  0.1878
17162W        W35366   2.439   3.743   1.573  0.0227  0.1847 -0.1262
17163W        W35367  12.014   2.893   3.549  0.1212 -0.1635 -0.2158
17164W        W35368  12.658  12.106  14.559 -0.3335  0.1401 -0.1259
17165W        W35369   2.897  11.892  15.445  0.0093 -0.0166 -0.3209
17166W        W35370   0.868  10.415  11.362 -0.2154 -0.0489  0.0690
17167W        W35371  14.369  11.088  11.572  0.0856 -0.0006 -0.2909
17168W        W35372  13.310   1.408  12.247  0.0965  0.2134  0.0192
17169W        W35373  14.239  13.660  12.905 -0.0629  0.2917  0.0296
17170W        W35374   3.975   7.673  10.840 -0.0086  0.2228  0.0103
17171W        W35375  13.947  11.782   1.596  0.4730  0.0112  0.1161
17172W        W35376   4.674   3.412  10.010  0.0636 -0.3794 -0.0181
17173W        W35377  13.109  17.957   1.677  0.2505  0.0088  0.3743
17174W        W35378  17.200   7.221  12.187 -0.0688  0.1862  0.2020
17175W        W35379   4.440   1.852   2.881 -0.0333 -0.1382 -0.1535
17176W        W35380   5.833   1.866  12.237 -0.2126  0.2047  0.0664
17177W        W35381  17.554   8.950  14.077 -0.0276  0.3247  0.1283
17178W        W35382   6.578  10.585  12.496 -0.1899  0.1778 -0.0108
17179W        W35383   4.749  15.268   4.610 -0.1834 -0.2159 -0.1185
17180W        W35384  11.491   0.877  11.196  0.2803  0.5820 -0.0110
17181W        W35385   7.751   8.223  13.029  0.3043 -0.1378  0.1194
17182W        W35386   3.272  18.086   3.006 -0.0419 -0.0102 -0.0994
17183W        W35387   0.033  18.145  12.472  0.2212 -0.0732 -0.2700
17184W        W35388   4.276  15.001  11.446  0.0198 -0.3371 -0.5743
17185W        W35389   9.300   0.358   0.903  0.1616 -0.1295  0.4185
17186W        W35390   5.030   8.899   3.106 -0.2624  0.1379 -0.1434
17187W        W35391  16.495   5.325  15.420  0.0501  0.2670 -0.0657
17188W        W35392  14.646  14.489  10.120  0.0820  0.0358 -0.2092
17189W        W35393  14.556  13.508  10.663  0.1656  0.1383 -0.4018
17190W        W35394   7.203  10.704  14.590  0.1444  0.3187 -0.0919
17191W        W35395   6.149  12.900  11.045  0.1380  0.1958  0.2328
17192W        W35396   9.064   6.458  12.389  0.2437 -0.2372  0.1451
17193W        W35397  11.384   4.879  12.990  0.0109 -0.0926  0.1122
17194W        W35398   5.056  14.042  15.245 -0.0700  0.2187  0.2083
17195W        W35399   8.035   9.639  12.183  0.0081  0.1974  0.0144
17196W        W35400   9.115  15.587  13.776 -0.1881 -0.2416 -0.2061
17197W        W35401  10.171   5.935  12.647 -0.2404  0.3539  0.1488
17198W        W35402  18.559   7.079   0.416  0.0405 -0.1994  0.0396
17199W        W35403   1.133   2.155   4.644 -0.2885 -0.0985  0.0288
17200W        W35404   5.827  14.765   3.621 -0.0532 -0.1717  0.3494
17201W        W35405   5.086  10.655  14.085 -0.2062  0.1444  0.0437
17202W        W35406  16.528  18.131  10.450  0.1833 -0.1327 -0.0877
17203W        W35407   2.505  10.392   1.019 -0.0961 -0.3590 -0.1282
17204W        W35408  14.041   3.609   1.874  0.0300  0.0750 -0.1493
17205W        W35409   5.235   0.646   0.034 -0.0077  0.1037 -0.0431
17206W        W35410   8.559   1.362   1.236  0.0582 -0.1509  0.1816
17207W        W35411  12.089  17.824  15.381  0.2096 -0.0124  0.2579
17208W        W35412  18.042   4.038  14.033  0.2873  0.2616  0.0564
17209W        W35413   8.146   1.095  15.193  0.4045  0.1190 -0.1305
17210W        W35414   2.453   3.661  15.191  0.0607  0.0188 -0.1719
17211W        W35415  11.080   3.872   4.029 -0.2503  0.2223  0.1619
17212W        W35416  17.366  13.571  11.726 -0.2355  0.3286 -0.2402
17213W        W35417   3.837  11.600  14.441 -0.0713  0.0676  0.1191
17214W        W35418  10.695   2.733  14.471  0.1336 -0.2129  0.0055
17215W        W35419  14.816  10.015   1.913 -0.0061 -0.2045 -0.1712
17216W        W35420   1.831   0.127   0.671 -0.1941 -0.3845 -0.2375
17217W        W35421   0.645  11.675  12.065  0.1180  0.2218 -0.3137
17218W        W35422   7.527   6.191  11.176 -0.2610 -0.2022 -0.1682
17219W        W35423   4.461  10.709  12.086  0.3619 -0.3678  0.1119
17220W        W35424  10.090  12.323   3.322 -0.0771 -0.4937 -0.1675
17221W        W35425   2.928  15.210   1.848 -0.3063 -0.0796  0.0134
17222W        W35426   9.002   6.698   3.792  0.1679  0.4515  0.1976
17223W        W35427   4.051   4.133  14.275  0.2261  0.2244  0.0144
17224W        W35428   7.736  14.465   0.398 -0.1074  0.0574 -0.0375
17225W        W35429   9.694   1.783   3.493  0.3582 -0.1516  0.0904
17226W        W35430  13.839  10.346  11.775 -0.0875  0.0510 -0.0745
17227W        W35431   0.241   3.213   0.624 -0.1080 -0.4502  0.0704
17228W        W35432   4.527   0.858   1.467  0.0753 -0.1291  0.1929
17229W        W35433  10.041  17.116   1.120 -0.0015 -0.1305  0.0722
17230W        W35434  12.501   8.062   1.467 -0.5152 -0.0021  0.2513
17231W        W35435  18.382   2.013  14.650  0.2321  0.0031  0.2175
17232W        W35436   6.036   6.220   1.233 -0.3796  0.1973 -0.1175
17233W        W35437   8.095   7.602  12.566  0.2533  0.1617  0.0311
17234W        W35438   4.425   6.214  12.746  0.2436 -0.1570  0.1261
17235W        W35439   0.697  14.532   2.294  0.1996  0.0417  0.1440
17236W        W35440  12.660  10.012   0.934  0.3793  0.2051 -0.3741
17237W        W35441   3.945   9.240   0.183  0.2856 -0.1560  0.0368
17238W        W35442  11.339  10.814   2.861 -0.3737 -0.0644 -0.4525
17239W        W35443   9.553  12.685   3.482 -0.2368  0.1512  0.1631
17240W        W35444   6.216   9.497   1.435 -0.2421 -0.1798  0.2252
17241W        W35445   9.619  17.403   3.279 -0.1877 -0.0241  0.3054
17242W        W35446  10.505   2.715   3.767  0.0708  0.0817 -0.2916
17243W        W35447   4.845   2.457  12.426 -0.0702  0.0868  0.1696
17244W        W35448  16.905   3.643  13.754 -0.0274 -0.0525 -0.2152
17245W        W35449   5.517   0.040   0.518  0.0736  0.0817 -0.2689
17246W        W35450   3.589  11.616   4.446 -0.2279 -0.2756  0.0298
17247W        W35451   9.044   6.651  14.479  0.0475 -0.0326  0.1690
17248W        W35452   0.583   2.850   2.644  0.0092 -0.1081  0.1271
17249W        W35453   9.484  10.833  12.148 -0.4146 -0.1816 -0.2964
17250W        W35454   5.598  10.916  14.152 -0.0305 -0.3602  0.2832
17251W        W35455   6.366  12.078   0.198 -0.1475 -0.2337 -0.5518
17252W        W35456   1.788  12.459  12.944 -0.1921  0.1243  0.2280
17253W        W35457  10.726   3.841   0.616  0.0533  0.0739  0.1082
17254W        W35458   0.116  11.997   0.500 -0.0871  0.1543 -0.2721
17255W        W35459  14.716  17.279   1.577  0.2516 -0.3117 -0.1792
17256W        W35460   1.465  16.257  11.930  0.2218  0.3644  0.2050
17257W        W35461  11.477  13.074  12.978 -0.2341  0.0570  0.0335
17258W        W35462   1.252   1.111   0.553  0.1312 -0.1162  0.2574
17259W        W35463  18.496   5.405   1.055  0.3021 -0.2768 -0.1379
17260W        W35464  16.334   2.779   3.731 -0.0638  0.0542  0.1015
17261W        W35465  16.086  13.022   5.046 -0.0428  0.1057  0.1976
17262W        W35466  13.277  12.868  13.076 -0.1417  0.0712  0.1313
17263W        W35467   9.133   1.155  11.403  0.1162  0.0549 -0.0619
17264W        W35468  17.966   4.725  11.732 -0.0831 -0.1111 -0.1618
17265W        W35469   4.651  12.175  15.179 -0.0764  0.2568  0.0226
17266W        W35470  17.506  17.330   1.925  0.3131  0.0180 -0.3385
17267W        W35471   1.286  14.076   2.358  0.0952  0.0463 -0.2488
17268W        W35472   8.108   7.346  12.059 -0.1162 -0.0987 -0.2551
17269W        W35473   0.084   7.916  13.555 -0.0118 -0.1435 -0.3018
17270W        W35474  10.860  17.878  15.430  0.2019 -0.1191 -0.0144
17271W        W35475   5.144  18.486   0.810 -0.0539  0.3637 -0.1762
17272W        W35476  13.411   8.260  10.784 -0.0054  0.1212  0.2321
17273W        W35477  16.623   1.486   9.875  0.2040  0.2415 -0.2968
17274W        W35478   3.912   9.683   2.155 -0.0194 -0.2181 -0.1258
17275W        W35479   8.270  16.765  12.738 -0.2591  0.1398 -0.2427
17276W        W35480  10.348  14.622   1.447 -0.0442  0.1837 -0.1607
17277W        W35481   2.373   7.660  13.078  0.0486 -0.0575  0.2164
17278W        W35482   3.499   4.197   1.384  0.1291 -0.0180  0.0607
17279W        W35483   1.521   2.023  13.805 -0.1605 -0.1038 -0.1847
17280W        W35484   3.959  12.697  12.077 -0.0344 -0.0975 -0.1251
17281W        W35485  15.364  14.425   2.852 -0.0392  0.2694 -0.3272
17282W        W35486  17.860   1.449   4.434  0.0554  0.0769  0.1793
17283W        W35487   5.987   8.866  12.387  0.2628 -0.3534 -0.1054
17284W        W35488   6.362   3.295  10.590  0.0202  0.1449 -0.0145
17285W        W35489   7.959   5.961   0.520 -0.0907  0.2371 -0.3743
17286W        W35490   9.358   1.579   5.054 -0.1689 -0.0368 -0.5984
17287W        W35491   5.051  14.236  12.398 -0.2406 -0.0413 -0.0699
17288W        W35492   1.913   0.629   3.261  0.1221 -0.1252 -0.0164
17289W        W35493   6.051   2.327   1.838 -0.3498 -0.2948 -0.1378
17290W        W35494  17.747  11.670  14.633  0.0992  0.0750 -0.1881
17291W        W35495  12.737   4.099   5.225 -0.0716 -0.1036  0.0215
17292W        W35496   8.779   6.634   0.214 -0.0122  0.0138 -0.0018
17293W        W35497  13.816  16.005   5.029 -0.2228  0.2694 -0.0207
17294W        W35498  16.659   5.209   0.463  0.1908  0.1036 -0.1689
17295W        W35499   4.257   6.012   5.149  0.0107 -0.0713 -0.3468
17296W        W35500  10.375   6.070  13.464  0.2309  0.0456 -0.0537
17297W        W35501   7.389   0.166  12.211 -0.3109  0.1921  0.0172
17298W        W35502   8.647   5.219  14.237 -0.0729 -0.0645  0.1076
17299W        W35503  13.190  10.767  10.860 -0.3645 -0.2154 -0.0336
17300W        W35504  10.167   3.770   1.228 -0.0700  0.0941  0.0071
17301W        W35505   8.569  13.927  12.177  0.0889 -0.3062  0.0309
17302W        W35506   8.003  14.111  11.960  0.1813 -0.2477  0.2975
17303W        W35507  11.131   3.420   4.366 -0.1038 -0.0180  0.3012
17304W        W35508  14.146   1.662  14.512 -0.0906 -0.2346  0.4397
17305W        W35509  17.566   7.644  14.091  0.0084 -0.0672 -0.1051
17306W        W35510  15.538   2.390   0.999 -0.0598  0.0508  0.0811
17307W        W35511   7.954   4.580   2.575 -0.1125  0.2385  0.0599
17308W        W35512  13.723  10.750  13.887  0.3052  0.2161 -0.0827
17309W        W35513   1.498  12.638   1.821  0.3360 -0.1296  0.1554
17310W        W35514   1.876   0.873  13.890  0.0493  0.0339  0.1040
17311W        W35515  18.522  10.967   0.492  0.0850 -0.0205  0.0257
17312W        W35516  12.353  16.510   2.837  0.1881 -0.1850  0.0296
17313W        W35517   2.053   7.212   3.593 -0.1186 -0.2696  0.2393
17314W        W35518   0.926   3.102   3.956 -0.3459 -0.0996 -0.4657
17315W        W35519  18.537  17.685   4.650 -0.1946 -0.1889  0.1760
17316W        W35520  17.433  11.585   4.876  0.1310 -0.0435 -0.1507
17317W        W35521   3.287   6.769  11.916  0.2222  0.0106  0.0201
17318W        W35522  12.551  10.308   1.957 -0.2278  0.0160  0.2026
17319W        W35523  12.422   5.423   4.571  0.0114  0.2557 -0.1962
17320W        W35524  13.409   1.847   1.398  0.2229  0.0281  0.2298
17321W        W35525  15.345   8.680   2.059 -0.2423  0.0490 -0.1034
17322W        W35526   7.998   3.133   3.107 -0.3447  0.0874 -0.3571
17323W        W35527   9.649   1.379  14.375 -0.0031  0.1170  0.2840
17324W        W35528  13.967  10.847   4.633 -0.2977 -0.2398 -0.0270
17325W        W35529   8.361   1.698  14.500 -0.0707 -0.1784 -0.1596
17326W        W35530   2.072   6.811  13.253 -0.4198  0.1406 -0.3714
17327W        W35531   4.320  16.962   5.186  0.1611 -0.0946  0.1365
17328W        W35532   7.688   9.871  11.888 -0.1363  0.0691 -0.0391
17329W        W35533  14.156   6.176  15.199 -0.3125 -0.1334 -0.0850
17330W        W35534  11.335  16.379  15.426 -0.0901  0.0502 -0.0675
17331W        W35535  14.584  10.071   1.078  0.0465  0.0861 -0.1696
17332W        W35536  17.297  13.665   2.506  0.0370  0.1342  0.2758
17333W        W35537  12.678  17.850   0.829 -0.0544 -0.0949 -0.1602
17334W        W35538  13.153   0.713   3.632  0.0801 -0.1300 -0.1304
17335W        W35539  14.930  15.413   2.705 -0.1207  0.0810  0.1857
17336W        W35540  13.365  14.586   1.871 -0.0311 -0.1131 -0.2548
17337W        W35541   1.839   3.445   4.264 -0.0261 -0.2370 -0.2576
17338W        W35542   7.529   0.924   4.008 -0.0120  0.1166 -0.2161
17339W        W35543  12.776  16.044  13.672 -0.1498 -0.3444 -0.0052
17340W        W35544   9.079  14.917  14.341 -0.1610  0.2597  0.1794
17341W        W35545   3.821  14.130   3.307 -0.0018  0.1204 -0.1107
17342W        W35546  11.432   7.356   3.711 -0.0810 -0.2413  0.0719
17343W        W35547  12.766   0.269  11.179 -0.0589 -0.0134 -0.1945
17344W        W35548   4.429  17.762  12.170 -0.2164  0.2340 -0.0750
17345W        W35549  18.328   7.240  14.885  0.0819  0.1627 -0.1206
17346W        W35550  14.005  14.168  11.104 -0.1583  0.0162  0.0524
17347W        W35551  11.343  16.615   0.878  0.0914 -0.1634  0.0374
17348W        W35552  11.446  13.939  13.556 -0.0838 -0.2665 -0.4810
17349W        W35553   6.000   1.450  13.427 -0.1561 -0.3000  0.1125
17350W        W35554   8.397  14.451  13.316 -0.1034 -0.0019  0.0466
17351W        W35555  10.888   9.478  13.370  0.2978 -0.0085 -0.1451
17352W        W35556   7.453   1.911   3.569  0.1600 -0.1566 -0.0672
17353W        W35557   3.161  12.455  12.008 -0.1976 -0.0057 -0.2317
17354W        W35558   0.339  14.418  11.836  0.0547 -0.1734  0.1872
17355W        W35559  12.891  13.178  12.973 -0.1540  0.1192 -0.0268
17356W        W35560  14.179   6.007   0.251  0.3714  0.1068  0.0002
17357W        W35561   5.433   8.743  13.494  0.0040 -0.2686  0.1826
17358W        W35562  16.286   4.609  13.336  0.0177 -0.2786  0.1179
17359W        W35563   9.734   5.761  14.806  0.0059 -0.0449 -0.0961
17360W        W35564   4.817   4.176   4.119 -0.0182  0.2056 -0.0518
17361W        W35565   0.136   7.635  12.982  0.2569 -0.0076  0.0825
17362W        W35566   5.453  18.088   2.503  0.1817 -0.2882 -0.1674
17363W        W35567   3.291   3.254  13.756  0.1415  0.1496  0.1775
17364W        W35568  16.902  11.394   0.538  0.1544 -0.2732  0.2051
17365W        W35569  14.437   3.261  11.457  0.0587  0.0888 -0.1891
17366W        W35570  10.513  15.688   5.689  0.0358  0.1898  0.0695
17367W        W35571   5.578  12.427  15.103 -0.4563  0.1300 -0.0391
17368W        W35572  12.982   4.272   3.607  0.2391 -0.0564  0.0216
17369W        W35573  18.211  17.777   0.133 -0.0812  0.3642  0.2085
17370W        W35574   1.304  18.353   0.165  0.2610  0.1310 -0.0045
17371W        W35575   0.319   5.709   2.380  0.1712 -0.1985  0.1014
17372W        W35576   4.756  18.420   1.836  0.0494  0.0477 -0.2229
17373W        W35577   3.931   8.648   0.077  0.0291 -0.0488  0.2305
17374W        W35578  16.420  11.480   0.581 -0.1513 -0.2325  0.1499
17375W        W35579  18.363   6.710  13.727  0.2435  0.0668  0.0299
17376W        W35580  11.136  16.774  13.318  0.0840  0.1360  0.0712
17377W        W35581   5.194   1.991  14.521 -0.2802  0.1918  0.1047
17378W        W35582  18.385  14.171  14.995  0.0762 -0.1100  0.0033
17379W        W35583  13.304  18.517  15.043 -0.2163  0.4142 -0.3273
17380W        W35584   9.972   9.573   3.683  0.1621 -0.1555  0.2273
17381W        W35585   3.000  14.192   2.003  0.2715  0.1826 -0.1008
17382W        W35586   7.445  11.437   2.822  0.2431  0.1222 -0.0733
17383W        W35587  18.145   1.646  12.302  0.0466 -0.2095  0.3395
17384W        W35588  12.859   0.426   4.611  0.3797  0.0435  0.2561
17385W        W35589   5.059   0.138  11.625 -0.1667  0.1679 -0.1064
17386W        W35590  18.131  16.695   2.387 -0.0053 -0.5413  0.1338
17387W        W35591  13.698   7.641  12.457 -0.1681  0.1641 -0.2726
17388W        W35592   8.752   2.271   2.443  0.0020  0.3606  0.2983
17389W        W35593   4.715  12.864   1.937  0.0720  0.2852 -0.0163
17390W        W35594   6.318  10.708   3.623 -0.0769  0.1943 -0.1789
17391W        W35595   4.795  17.398  11.088 -0.0894  0.4190 -0.0372
17392W        W35596  15.536   6.599   2.222 -0.0292  0.0711  0.1435
17393W        W35597   6.549  13.835   1.228  0.1068  0.0282  0.2491
17394W        W35598   0.100   4.085   0.211  0.1102 -0.1574 -0.0623
17395W        W35599   9.317  10.830   0.173 -0.0374 -0.4801  0.1141
17396W        W35600   4.393  12.447   1.778  0.0996 -0.0550  0.0418
17397W        W35601  18.445   9.429  13.599  0.0832 -0.1568 -0.2417
17398W        W35602   7.993  10.407   0.725  0.0338 -0.1182  0.1667
17399W        W35603  18.573   7.632   5.604 -0.2628 -0.0188  0.0326
17400W        W35604   7.476   3.089  10.770  0.1729  0.0296 -0.0340
17401W        W35605  15.319  11.627   3.474  0.0702 -0.2635 -0.0986
17402W        W35606  13.984  18.373   0.259 -0.0792 -0.1114 -0.0533
17403W        W35607   5.413  15.744  11.869 -0.0168 -0.2871  0.0578
17404W        W35608   4.475   0.212   2.972 -0.2032  0.1241 -0.0350
17405W        W35609  13.599   1.649  14.514 -0.1013 -0.3735  0.0716
17406W        W35610   9.588   2.353  13.940  0.1184  0.2485  0.0007
17407W        W35611  15.445  16.058   1.263  0.0927 -0.0029 -0.1541
17408W        W35612   1.815   6.094   1.405  0.3397  0.0903  0.0903
17409W        W35613   5.878  17.189  15.344 -0.0659  0.2099  0.2180
17410W        W35614  17.341   4.351   4.198  0.0223  0.0956  0.0703
17411W        W35615  15.717  14.645   0.605  0.0843 -0.1594  0.2263
17412W        W35616   0.026   5.476   3.486  0.2988  0.1044 -0.2223
17413W        W35617  12.213   2.929   0.321 -0.1344 -0.1104  0.2558
17414W        W35618   6.149  12.141   4.348  0.0583  0.0189 -0.2083
17415W        W35619   7.863   7.507   5.028 -0.1602 -0.1867  0.2076
17416W        W35620   4.310   9.483  12.345 -0.0490 -0.1507  0.1044
17417W        W35621   6.958  17.097   0.133  0.0845 -0.0169 -0.1720
17418W        W35622  18.078   1.042   0.945  0.0160 -0.1129  0.0461
17419W        W35623  14.136   5.628   1.366 -0.1134  0.2081 -0.0477
17420W        W35624  10.390  16.714  14.939  0.0191  0.0341  0.0745
17421W        W35625  18.331  13.397   5.912 -0.1577 -0.0694  0.1933
17422W        W35626  18.396  15.708   3.994  0.1679  0.0656  0.1315
17423W        W35627  17.940   6.015  15.109 -0.0644  0.1795 -0.0779
17424W        W35628  18.407   0.076   1.050 -0.0156 -0.0384 -0.3107
17425W        W35629   8.415  11.940   3.656  0.1904 -0.1624  0.3978
17426W        W35630   4.994  15.354   2.475 -0.1137 -0.1475  0.0293
17427W        W35631  11.285   1.413   0.704  0.0233 -0.0543 -0.1506
17428W        W35632  15.584   3.073  12.079  0.1159 -0.0730 -0.0377
17429W        W35633   1.669  18.438  13.716  0.3987  0.0357 -0.0060
17430W        W35634  11.219   3.667  11.751 -0.1348  0.2666  0.0286
17431W        W35635  15.126   2.325  13.577  0.1616  0.0826  0.0952
17432W        W35636   9.996  18.257   3.708 -0.0893  0.0680 -0.1830
17433W        W35637   3.418   3.721  12.697  0.4380 -0.0635 -0.3271
17434W        W35638   6.911   5.367   4.113 -0.0710  0.3542 -0.1567
17435W        W35639   8.300   3.902   2.789  0.0290  0.1898 -0.3952
17436W        W35640   1.334   4.033   3.283 -0.0605 -0.3341  0.1357
17437W        W35641   8.862  15.643  11.048 -0.0326  0.0005  0.0592
17438W        W35642   0.732  13.969  13.632 -0.1852  0.0807  0.3099
17439W        W35643  11.027   3.883   1.045 -0.1150  0.0322 -0.1548
17440W        W35644   6.940  14.311  10.169  0.1072  0.0750 -0.0404
17441W        W35645   2.800  11.156   0.404  0.1400 -0.1844 -0.2304
17442W        W35646  13.759  11.213  14.848  0.0724  0.2144 -0.1426
17443W        W35647  15.279   4.227   3.080  0.0346  0.0435 -0.0894
17444W        W35648   2.349   4.492  13.202  0.1408 -0.2021  0.4336
17445W        W35649  10.511  13.770   1.661 -0.1644  0.2994  0.2095
17446W        W35650   0.591  16.579  13.673  0.0152 -0.1139 -0.1125
17447W        W35651   0.098   6.202  13.238  0.1495 -0.1396 -0.1461
17448W        W35652  15.396  14.423   2.222 -0.0056  0.0370  0.0311
17449W        W35653  12.504   7.405  13.588 -0.1378 -0.0213 -0.0645
17450W        W35654   5.588   8.368   4.129 -0.1898 -0.0955  0.0919
17451W        W35655   9.720   7.674  13.993  0.0626 -0.0231 -0.1240
17452W        W35656   3.942   4.361   1.822  0.0228 -0.0329  0.4030
17453W        W35657  12.159   7.356   1.102 -0.0719  0.1508 -0.2201
17454W        W35658  10.871   4.346   2.464  0.2026  0.1059  0.0176
17455W        W35659   9.154  16.238   2.602 -0.0680 -0.1266 -0.5774
17456W        W35660   9.892   8.544  11.064  0.1208 -0.0201 -0.0422
17457W        W35661   7.539   4.119   0.167 -0.0709  0.2072  0.1845
17458W        W35662  11.775   4.422   2.309 -0.0147 -0.5010 -0.0411
17459W        W35663  12.633  16.163   1.348  0.1363 -0.2787 -0.0639
17460W        W35664   3.334   1.064   1.156  0.0328 -0.2609  0.0708
17461W        W35665   1.146   6.637  14.020 -0.3060 -0.0487  0.0659
17462W        W35666  15.353  10.845   4.037  0.0649 -0.0933  0.0703
17463W        W35667  15.173   0.434  15.034  0.0040 -0.2442  0.0275
17464W        W35668   3.805  11.886   2.995  0.2595 -0.3050 -0.2067
17465W        W35669  11.851   2.463   3.286 -0.1366 -0.0950 -0.1525
17466W        W35670   1.503   6.467   0.105  0.0974 -0.0780 -0.1714
17467W        W35671  16.745   0.801   0.686 -0.0661 -0.0059  0.0805
17468W        W35672  11.800  11.081  14.766 -0.1974  0.0644  0.0079
17469W        W35673   0.576  11.186  10.152  0.3007 -0.2327  0.0762
17470W        W35674   8.423   2.032  13.143  0.1275  0.0943 -0.0223
17471W        W35675  13.223   2.715   3.823  0.1425 -0.0009 -0.0049
17472W        W35676   0.268  13.758  14.933 -0.2250 -0.0179 -0.1769
17473W        W35677   9.611  11.299   3.291 -0.5095  0.1183  0.2918
17474W        W35678  10.416  10.543  10.080  0.3318  0.1780  0.1279
17475W        W35679  11.559   8.513  10.536 -0.3790  0.0336 -0.1953
17476W        W35680   8.710  12.937  12.060 -0.0384  0.1219  0.2383
17477W        W35681   7.609   4.766   0.313 -0.2823 -0.2034 -0.2347
17478W        W35682  11.251  13.519  12.763 -0.0366  0.2807  0.1687
17479W        W35683  17.191  14.124   5.874  0.4049 -0.0433 -0.0362
17480W        W35684   9.116  13.949   4.538  0.2050  0.0119  0.2100
17481W        W35685   4.526   3.125   1.811 -0.0858  0.1444  0.2111
17482W        W35686   3.023  12.630   4.294  0.2651  0.0003 -0.1569
17483W        W35687  14.852   5.376  12.985 -0.2731  0.2361 -0.0859
17484W        W35688   0.151  17.241   3.202  0.0867 -0.1077  0.1569
17485W        W35689   5.051  11.786   3.016  0.1588  0.0821  0.2442
17486W        W35690   2.639   1.234  11.159  0.0409  0.0547 -0.1476
17487W        W35691  13.064   9.965  13.020 -0.2399 -0.3634  0.0694
17488W        W35692  12.555  12.432  14.900 -0.0175 -0.0778  0.0864
17489W        W35693   7.721   4.615  11.349  0.0258  0.2795 -0.0633
17490W        W35694   8.306  15.592   0.521  0.3308 -0.4623  0.1444
17491W        W35695   0.644   1.357  12.632 -0.2171  0.1235 -0.1456
17492W        W35696  14.572   3.579   0.968 -0.0624  0.2455 -0.1283
17493W        W35697  17.492  15.080   0.637  0.0859 -0.3601  0.0961
17494W        W35698  12.766   6.175  12.576 -0.2203  0.0140  0.0186
17495W        W35699  12.228  10.554  13.882 -0.0621  0.0802  0.4737
17496W        W35700  13.037   7.544  13.768 -0.1304  0.2707  0.1049
17497W        W35701   2.550  10.675   3.306 -0.0476 -0.1399  0.3369
17498W        W35702   5.444   9.303  14.365  0.2904 -0.2278  0.1495
17499W        W35703   3.751  10.179   3.684  0.1062  0.2168 -0.0577
17500W        W35704  13.280  13.421   2.765 -0.1668  0.0964 -0.3189
17501W        W35705   3.461  10.312   1.460 -0.2535  0.1293 -0.0892
17502W        W35706   8.353   5.367   1.446  0.0847  0.0561  0.0934
17503W        W35707   3.330   9.131  13.110  0.2211 -0.0287 -0.3069
17504W        W35708   6.437   8.842   3.271  0.1335  0.0996  0.3755
17505W        W35709   1.536   5.207  14.176  0.0460  0.2204 -0.2915
17506W        W35710   4.300   7.874   1.728  0.2568  0.3691 -0.2124
17507W        W35711   7.710  13.367   2.452  0.0567 -0.4282  0.3920
17508W        W35712   3.388   0.804   2.748  0.1542  0.1445 -0.1910
17509W        W35713   0.690  11.209   3.950 -0.1244  0.1169 -0.2062
17510W        W35714  10.341   8.146  12.872 -0.1973  0.0996 -0.2701
17511W        W35715   5.932  18.606  13.840 -0.1157  0.2471  0.2034
17512W        W35716   2.992  13.596   4.874 -0.2456  0.0424 -0.0839
17513W        W35717   6.434  11.720  14.162  0.0931 -0.3689  0.0280
17514W        W35718   1.946  15.578   0.402 -0.0341  0.1883  0.4142
17515W        W35719   4.936  10.307   1.327 -0.2931  0.4227 -0.0111
17516W        W35720  10.396   2.658  13.631 -0.0231  0.0528  0.0088
17517W        W35721  14.045  15.758   2.716  0.0397 -0.2830  0.1314
17518W        W35722  12.783  14.992  14.735 -0.0042 -0.1160 -0.0285
17519W        W35723  13.114   5.319   3.847 -0.1380 -0.0497 -0.5072
17520W        W35724  13.122  17.771   4.233  0.2917  0.1069 -0.1464
17521W        W35725   5.106   9.483  13.033 -0.0184 -0.2556 -0.0733
17522W        W35726   4.946   8.620  14.972 -0.1233 -0.5337 -0.2936
17523W        W35727  10.520   1.820  11.267  0.0978  0.2015 -0.0221
17524W        W35728  13.107  16.535  13.213 -0.0032 -0.1273 -0.0050
17525W        W35729  13.423  15.945   1.962 -0.1363  0.1232 -0.3822
17526W        W35730   7.479   4.571  12.977 -0.1451  0.0236  0.1895
17527W        W35731  12.212   1.156  10.786 -0.2074 -0.5506 -0.0318
17528W        W35732  11.922   1.479  14.310 -0.1660  0.2658 -0.1171
17529W        W35733  10.959   7.938   0.647  0.1749 -0.0439  0.1039
17530W        W35734  15.928   4.942  10.199 -0.1362 -0.0071  0.1528
17531W        W35735  11.149  12.211  15.009 -0.2956  0.1795 -0.1679
17532W        W35736  10.710   0.639   4.051 -0.0830 -0.1349  0.0648
17533W        W35737   7.871   4.010  11.438  0.0335 -0.0084  0.1744
17534W        W35738   5.015  15.830   2.329  0.0455 -0.1081 -0.0120
17535W        W35739   1.949  16.450   4.497  0.1591 -0.1223 -0.3769
17536W        W35740   4.717   7.572   0.394 -0.0476 -0.1338  0.2880
17537W        W35741  11.784  11.568  12.934  0.2540  0.0734 -0.6233
17538W        W35742   3.207  18.197   4.633  0.0873 -0.2098 -0.0297
17539W        W35743  11.445  17.661  11.330 -0.2423  0.0984 -0.0571
17540W        W35744  18.517  17.872   1.058 -0.1753  0.1034  0.1029
17541W        W35745   7.349   3.931   3.432 -0.0448 -0.1719 -0.0434
17542W        W35746   8.694   8.285  12.366  0.0229 -0.1237  0.3622
17543W        W35747  12.124   7.788  13.526  0.1991  0.0296 -0.3238
17544W        W35748   5.661   4.249   1.539 -0.0940  0.0776 -0.0492
17545W        W35749  16.466  18.575  12.750  0.0900 -0.0397 -0.1489
17546W        W35750  11.454  10.557  11.618  0.0111 -0.2269 -0.1795
17547W        W35751   1.961   2.289   0.702  0.0497 -0.0942 -0.0732
17548W        W35752   7.985  13.013   1.667 -0.0980  0.2273  0.3146
17549W        W35753   9.487  14.495   0.435  0.1694  0.2123  0.0105
17550W        W35754   8.621  10.359  12.562 -0.0985  0.0000 -0.0061
17551W        W35755   9.189  15.792   0.525  0.0321 -0.0836 -0.1618
17552W        W35756   1.354   5.000   1.728 -0.0051  0.0451  0.1570
17553W        W35757   3.611   8.737  13.025 -0.1775  0.3060  0.2805
17554W        W35758  15.879   5.194  11.163 -0.0103 -0.0532 -0.0372
17555W        W35759   3.375  18.398  14.891 -0.0582 -0.0882  0.1985
17556W        W35760   1.748   2.252   1.141  0.0361 -0.0760 -0.2614
17557W        W35761  10.234   3.395   2.141 -0.0944  0.1209 -0.2589
17558W        W35762  12.825   5.418  11.199 -0.0402  0.0195 -0.2035
17559W        W35763  13.329   2.213   3.598  0.1875  0.1344 -0.1520
17560W        W35764  11.738   2.336   4.268 -0.2859  0.0992  0.0431
17561W        W35765  18.029   0.226  13.799  0.3998  0.1430 -0.0424
17562W        W35766  14.587   1.801  14.898 -0.1662 -0.0549 -0.3305
17563W        W35767   4.177   8.652  13.598  0.2114 -0.0275  0.2661
17564W        W35768   7.202   7.399   3.371  0.1628 -0.3205  0.0250
17565W        W35769   8.267  13.379  10.867  0.2210  0.0863  0.0462
17566W        W35770   9.494  17.771   1.099 -0.2758 -0.0124  0.0650
17567W        W35771  14.374  11.626   2.461 -0.0094 -0.1171 -0.0334
17568W        W35772  14.915   0.199  14.202  0.0326 -0.1781 -0.0778
17569W        W35773   3.546   6.993  12.973 -0.0033 -0.0833  0.0658
17570W        W35774  10.494   8.720  15.051 -0.0491 -0.1136  0.1359
17571W        W35775  12.908   8.033   5.191  0.1724  0.0382  0.0131
17572W        W35776   7.224  17.466   5.233  0.0013 -0.1220  0.0318
17573W        W35777   0.302  11.615  11.561 -0.0170 -0.2322  0.0024
17574W        W35778   1.204   3.957  12.097  0.0357 -0.0692  0.2509
17575W        W35779  15.304   4.586  15.253  0.0173  0.4454 -0.1583
17576W        W35780   9.347  12.855  14.758  0.1973  0.1480  0.0319
17577W        W35781   6.962  13.207  13.327  0.0153  0.1139  0.0977
17578W        W35782   3.583   8.337   4.345 -0.0009 -0.1637  0.0680
17579W        W35783   5.167   3.458   2.193  0.0112 -0.1213  0.3914
17580W        W35784  18.090  18.031   3.090  0.0270 -0.1232  0.0064
17581W        W35785   2.328  17.850   1.152 -0.2617  0.1267  0.1435
17582W        W35786   6.347   8.032   0.522  0.3701  0.1988  0.0477
17583W        W35787   7.543  11.724  13.877 -0.1829  0.0172 -0.0190
17584W        W35788   4.142  18.612  12.138 -0.1527 -0.0986 -0.1742
17585W        W35789  15.626   5.195  12.897 -0.0058  0.4612  0.1259
17586W        W35790  11.313   0.431   0.233  0.1300  0.0081 -0.1485
17587W        W35791   7.768   0.847  13.591 -0.0259  0.4571 -0.1039
17588W        W35792  11.128   0.513  11.431 -0.0633  0.1235 -0.0026
17589W        W35793   6.087   4.160   2.448  0.0626 -0.3261 -0.0605
17590W        W35794  15.902  15.898   0.303 -0.1624  0.1828 -0.3420
17591W        W35795   4.689   9.114  12.103 -0.0651 -0.2321  0.0273
17592W        W35796  13.348  12.533  12.590  0.0483 -0.2618 -0.1115
17593W        W35797   4.281   1.872  13.566 -0.2584 -0.1808 -0.0410
17594W        W35798   5.378   9.746  10.712  0.1836  0.0538  0.0257
17595W        W35799  15.038  18.369  12.837 -0.3200  0.1360  0.1008
17596W        W35800  16.623   2.827   3.320 -0.0494 -0.1808  0.0056
17597W        W35801  18.470  11.886   1.833 -0.0844  0.0461 -0.1051
17598W        W35802  16.754   3.414   1.245  0.0645  0.0467  0.1334
17599W        W35803  12.055  13.853  11.305  0.0919 -0.2386 -0.0711
17600W        W35804   6.094  13.542   4.576 -0.1113 -0.3043  0.1845
17601W        W35805   1.342  17.690   2.587 -0.0391 -0.0661  0.2238
17602W        W35806   0.833  12.548   3.499  0.0502 -0.2210  0.0401
17603W        W35807   2.827   2.164   3.550 -0.0138  0.1200 -0.1236
17604W        W35808  18.573   8.181   3.751 -0.0820  0.1105  0.1168
17605W        W35809  12.089  10.222  12.015 -0.1247  0.4561 -0.0173
17606W        W35810   2.265   0.294   0.478 -0.5663  0.0161  0.0204
17607W        W35811  17.501  11.205  12.865 -0.1201  0.1531 -0.1835
17608W        W35812  15.652   4.873  11.914 -0.0756  0.0938 -0.2130
17609W        W35813  17.594   7.002  11.393  0.0615 -0.4771 -0.1238
17610W        W35814   1.628   3.405  12.829  0.0008 -0.1915 -0.0794
17611W        W35815  16.724   8.088   9.953  0.1245 -0.2554  0.0557
17612W        W35816   5.222   5.500   1.954 -0.0866  0.0600  0.3832
17613W        W35817   7.542  12.689  11.428  0.0106  0.0438 -0.1736
17614W        W35818  13.819   9.127   0.851  0.3538 -0.3231 -0.0994
17615W        W35819  10.373   8.229  13.375  0.1831 -0.2472 -0.0491
17616W        W35820   2.712  12.422  12.218  0.1905  0.1677  0.0392
17617W        W35821  12.537  15.212  13.004 -0.0578 -0.1085  0.2781
17618W        W35822   1.715   4.147  13.527 -0.1538  0.1485  0.0837
17619W        W35823   4.651   8.804  14.398 -0.1012  0.0727 -0.0836
17620W        W35824   0.351   6.466   1.786 -0.1368  0.1309 -0.0686
17621W        W35825   4.468  13.623   3.864 -0.2382  0.0856  0.0827
17622W        W35826  14.477   7.335   3.330  0.4392 -0.0533 -0.1601
17623W        W35827  14.402   5.155  12.035 -0.0065  0.0430  0.0071
17624W        W35828   6.604  17.138   2.796  0.1216  0.1545  0.0957
17625W        W35829  14.162   7.225   2.559 -0.2507 -0.0440 -0.0694
17626W        W35830   0.717   2.918   1.321 -0.1064 -0.0201  0.1160
17627W        W35831   4.606   1.967  13.216  0.2149  0.1947 -0.0499
17628W        W35832   2.511  11.367   0.994 -0.0087 -0.0058  0.2967
17629W        W35833   2.885   8.269  12.944  0.0562 -0.1977  0.0778
17630W        W35834  17.657  10.772  14.194  0.2237 -0.0423 -0.1294
17631W        W35835  13.676  14.200  13.686 -0.1989 -0.0406 -0.2178
17632W        W35836   6.281  10.754  13.081 -0.1694  0.1815  0.0608
17633W        W35837   6.338   4.122  12.791  0.1227 -0.2129 -0.1252
17634W        W35838  17.340  17.968   2.783 -0.0516  0.0370 -0.1588
17635W        W35839  11.634  15.196  13.272  0.1273  0.1540  0.0833
17636W        W35840  14.438  11.288  12.046 -0.0725 -0.0942 -0.0385
17637W        W35841   8.110   1.701   0.549  0.1541  0.2227  0.0628
17638W        W35842   3.136  12.762   2.288 -0.0247  0.0205 -0.2262
17639W        W35843   7.846   7.797  11.377  0.1128  0.0281  0.0057
17640W        W35844  11.356  12.940   1.265  0.0374  0.3599 -0.1543
17641W        W35845  13.785  13.346  13.811 -0.4699 -0.0574 -0.1677
17642W        W35846  13.461  12.029   1.828  0.0176 -0.1745  0.1261
17643W        W35847  12.959  17.565  14.185  0.3562  0.2998 -0.0174
17644W        W35848   6.962   1.735  11.686 -0.0326  0.2202 -0.0410
17645W        W35849   5.986  13.194  11.466 -0.2436 -0.0195 -0.0929
17646W        W35850  17.600   5.321  11.993 -0.0525  0.1492  0.1084
17647W        W35851  16.430   4.940   2.287  0.2097  0.2430  0.0402
17648W        W35852  13.586   8.371  13.088  0.0098 -0.1409 -0.2240
17649W        W35853   1.005  15.067   2.990  0.2706 -0.1986  0.1347
17650W        W35854   7.314   7.928  13.725 -0.2420 -0.2779  0.1183
17651W        W35855   0.278  10.693   0.863 -0.0399 -0.0970 -0.2738
17652W        W35856  15.841  10.513   4.580  0.2549 -0.0326 -0.2126
17653W        W35857   8.421   6.520   3.210  0.0468 -0.1950 -0.0076
17654W        W35858   9.810   8.812   1.824 -0.0806  0.0857 -0.0478
17655W        W35859   9.729   9.929   0.360  0.4908  0.0361  0.2122
17656W        W35860   2.563   7.336  12.772 -0.0035 -0.1125  0.1252
17657W        W35861   4.393  13.917   4.958 -0.4580  0.0639  0.0500
17658W        W35862  12.794  13.554   4.407  0.0654 -0.2334  0.1106
17659W        W35863   3.078   8.079   3.538  0.2056  0.3018  0.2368
17660W        W35864  17.239   9.268  14.285 -0.0820  0.1398  0.0826
17661W        W35865  17.389   0.876   2.843  0.0238 -0.1855  0.0322
17662W        W35866   9.312   4.439   2.852  0.1794  0.1777  0.0076
17663W        W35867   9.330   4.278   4.004 -0.0505  0.0181  0.0706
17664W        W35868   1.466   4.933  12.919 -0.0771  0.1459 -0.0398
17665W        W35869  11.320   3.848   2.810 -0.1139 -0.1315 -0.0050
17666W        W35870  15.611   6.931   3.795  0.1284 -0.2169  0.0044
17667W        W35871  10.296   6.457  14.399  0.0835  0.0318 -0.1619
17668W        W35872  16.386  17.930   3.426  0.2004 -0.0207 -0.0428
17669W        W35873   4.537  18.171  13.614 -0.0648 -0.1941 -0.2337
17670W        W35874   8.113   5.235  14.064  0.0623 -0.2584  0.0055
17671W        W35875  11.556   1.918  13.550 -0.0983 -0.0097 -0.0851
17672W        W35876   4.633   0.721   3.375 -0.1514 -0.0045  0.1041
17673W        W35877   6.225  13.422   1.308  0.2342 -0.1329 -0.1733
17674W        W35878  14.767  10.521   0.938  0.2776  0.1191  0.2311
17675W        W35879  10.209  18.350   1.554 -0.0794  0.0323 -0.2649
17676W        W35880  15.377   1.927  14.311  0.0512 -0.0655  0.1375
17677W        W35881  12.627   0.897   0.213  0.2027  0.1087 -0.4269
17678W        W35882  11.438  15.939  15.013 -0.4242  0.1568 -0.1327
17679W        W35883   1.196  14.477  14.398 -0.0847 -0.1620  0.0794
17680W        W35884  12.615   0.972   9.870  0.0051 -0.1255  0.5911
17681W        W35885  11.449   4.781   3.026  0.0228  0.0552  0.0630
17682W        W35886   8.786  14.064   4.209 -0.2403  0.1970  0.1531
17683W        W35887   8.896  14.206   2.798 -0.1691 -0.2808 -0.1404
17684W        W35888  14.134   4.851   2.475  0.0952 -0.0373 -0.1572
17685W        W35889   9.553   4.281  15.247 -0.1549 -0.3279 -0.3126
17686W        W35890   1.217   1.305  12.583 -0.2289  0.1601 -0.0424
17687W        W35891   2.734   9.646  12.936  0.2557  0.2583 -0.2474
17688W        W35892  13.016   0.749   1.772  0.1641  0.1219 -0.1210
17689W        W35893  17.377  13.898   2.057 -0.3357  0.0478  0.0958
17690W        W35894  15.025  16.316   4.272  0.3544  0.2548 -0.0737
17691W        W35895  14.366  10.792  12.390  0.1177  0.3187 -0.3710
17692W        W35896   1.256  18.608  13.996 -0.0727  0.2116  0.3222
17693W        W35897   8.045  12.789  14.813  0.1925  0.4712  0.1748
17694W        W35898  14.170   5.765   0.726 -0.1699  0.1573  0.3323
17695W        W35899  15.906   4.749   1.663  0.0678  0.2347 -0.2208
17696W        W35900   9.131  10.087   1.317 -0.0233 -0.4477 -0.0465
17697W        W35901   3.350   9.980  11.934  0.1184 -0.1619 -0.0651
17698W        W35902  17.872  12.346   2.722  0.0351 -0.0589 -0.1027
17699W        W35903  16.208   3.195  13.723  0.0637  0.1710 -0.2747
17700W        W35904  10.077   4.003  15.307  0.0889 -0.1304  0.1825
17701W        W35905  14.638   0.986  11.210  0.1633  0.0692  0.3110
17702W        W35906   1.873  17.050  11.922  0.1265  0.0697  0.1505
17703W        W35907  17.331   4.555  14.019  0.2668  0.1095 -0.1156
17704W        W35908  15.393   9.332   1.579 -0.0046 -0.0013  0.3193
17705W        W35909  13.755  10.192   9.954  0.0719  0.0185 -0.1514
17706W        W35910   1.363   2.419   4.272  0.0029 -0.1633  0.0873
17707W        W35911   2.839  13.981  11.407  0.0759 -0.0844  0.1663
17708W        W35912   5.233   5.098   0.329 -0.2304  0.0891 -0.1593
17709W        W35913  10.694   7.761  12.653  0.0456  0.1523 -0.0677
17710W        W35914   7.688   4.459  13.907 -0.0183 -0.1188 -0.0155
17711W        W35915   6.851   6.992   4.028  0.1540 -0.0544 -0.1578
17712W        W35916   0.820  11.813  15.251 -0.0728 -0.2421 -0.0683
17713W        W35917   2.171  17.473  12.653  0.1465 -0.0539 -0.0781
17714W        W35918   8.182   8.330   2.903  0.0953 -0.0137 -0.1212
17715W        W35919   6.110   2.629   4.351 -0.0452 -0.0068  0.2284
17716W        W35920   9.820   4.863   2.847  0.0574 -0.0550 -0.0380
17717W        W35921   4.823   9.490  11.471  0.1002  0.2229 -0.0709
17718W        W35922   2.668  17.679  13.445  0.0439 -0.0043 -0.4317
17719W        W35923   5.648  17.272  13.778  0.0459  0.1434 -0.0408
17720W        W35924   5.425  13.963   3.373  0.0035 -0.0377  0.0201
17721W        W35925   6.512   9.376   0.090  0.1412 -0.1096 -0.0753
17722W        W35926  16.770   4.187  13.205 -0.2599  0.0064  0.2755
17723W        W35927  11.429  13.106   3.885 -0.1228 -0.0703 -0.3291
17724W        W35928  12.710   3.911   3.189  0.0144  0.3612 -0.2220
17725W        W35929  16.901  16.094   0.014 -0.0104  0.1146 -0.0714
17726W        W35930  11.402   3.228  15.031 -0.3572 -0.0825 -0.0546
17727W        W35931   8.113  14.280  14.710  0.2214  0.1433  0.0322
17728W        W35932   2.095  11.233  14.597  0.3219 -0.0345 -0.1131
17729W        W35933   8.116   2.885   0.705 -0.3113  0.1620  0.1177
17730W        W35934  14.232  10.424   1.125  0.3558 -0.1368  0.1084
17731W        W35935   5.876  13.863  13.627  0.1471  0.2162 -0.1426
17732W        W35936   7.590  10.274   4.335  0.0852  0.1020 -0.0500
17733W        W35937  10.018  14.774   0.173  0.0772 -0.4638 -0.0114
17734W        W35938  12.320  11.752   0.167  0.3966  0.0503  0.2874
17735W        W35939   5.410  13.742  14.322 -0.0015 -0.0299 -0.0547
17736W        W35940   6.844  12.303   2.689  0.2532 -0.1966  0.2073
17737W        W35941   8.003  15.592  11.939  0.0925  0.1462 -0.0586
17738W        W35942  15.994  16.366   0.201  0.0183 -0.0886  0.3077
17739W        W35943   9.513  11.318  13.132  0.1896 -0.0272  0.2093
17740W        W35944   6.356  12.062   3.467 -0.0625  0.0242  0.0447
17741W        W35945   7.207  18.190  14.289  0.2569 -0.3515  0.0074
17742W        W35946   9.162  10.894   1.244 -0.0690  0.0357  0.1636
17743W        W35947   0.828   2.255  14.236 -0.2619 -0.0405 -0.0331
17744W        W35948  18.136   0.807  12.779  0.2029 -0.0631 -0.1425
17745W        W35949  15.907  10.855  13.165  0.0150  0.0813 -0.0073
17746W        W35950  11.251  13.474  13.662  0.2938 -0.4152  0.2696
17747W        W35951   0.371  10.141  15.332 -0.0960  0.2061 -0.1564
17748W        W35952   4.845   5.953  14.533 -0.0175  0.0063  0.0457
17749W        W35953  14.048  15.247  14.805 -0.3484  0.2897 -0.2048
17750W        W35954   0.262   5.322   0.497  0.2421  0.3327  0.1363
17751W        W35955   5.624  10.939   2.671  0.0987 -0.2182 -0.1000
17752W        W35956   8.809  18.623   1.526  0.2074 -0.0621 -0.4378
17753W        W35957   6.529   0.416   1.188  0.2393  0.1024  0.0371
17754W        W35958   8.759   3.551   0.522 -0.0295  0.1393 -0.0716
17755W        W35959  11.960  10.065  14.648 -0.1464 -0.0584 -0.4062
17756W        W35960   7.419  16.023  12.337  0.1791 -0.0882  0.0859
17757W        W35961   4.433  18.249  11.957 -0.0475  0.0495 -0.1819
17758W        W35962  16.932   6.140   1.861  0.0254  0.0465  0.1105
17759W        W35963  12.275   2.858  11.414  0.2757 -0.1642  0.1822
17760W        W35964  14.018   6.432  10.661  0.1340  0.2451  0.2332
17761W        W35965  17.532   2.057  10.935 -0.2204 -0.0212 -0.1926
17762W        W35966   0.256   9.907  13.788  0.0228 -0.0749 -0.3691
17763W        W35967  16.202  15.589   0.101 -0.2229 -0.2164  0.2871
17764W        W35968   2.331   8.624  12.164 -0.0261 -0.1213  0.1098
17765W        W35969   7.075   9.030   1.683 -0.1423 -0.1859  0.2011
17766W        W35970  11.635   7.126  13.252 -0.0837  0.1617 -0.0105
17767W        W35971   4.566   7.470  11.004 -0.0023 -0.1772  0.0244
17768W        W35972  14.749   2.944   2.017 -0.0033 -0.0509 -0.1847
17769W        W35973  12.351  18.591   1.859 -0.1168 -0.3013  0.2151
17770W        W35974  15.535   7.669  12.686 -0.1278  0.0980 -0.2006
17771W        W35975  12.640   5.880   3.223  0.0526  0.0661  0.1076
17772W        W35976  15.067  14.344   4.020 -0.1775  0.0560  0.0922
17773W        W35977  18.168  13.098  13.058 -0.0060  0.0435 -0.1926
17774W        W35978   1.443   5.482   3.011 -0.1417  0.2472 -0.3058
17775W        W35979  12.073   0.404  13.427  0.1033  0.0242  0.0050
17776W        W35980  15.758   8.139   2.700 -0.1944 -0.1585 -0.0769
17777W        W35981  12.550   6.370  13.174  0.2589  0.1398  0.0102
17778W        W35982   3.404   9.814  11.431 -0.2005  0.3549 -0.5184
17779W        W35983  13.234   6.068  12.799 -0.2873  0.1154  0.1716
17780W        W35984   5.261  11.795  10.894 -0.0304 -0.2495 -0.1332
17781W        W35985  18.089   6.485  15.059 -0.1152  0.0549 -0.3947
17782W        W35986  12.683  12.188  13.145  0.0954  0.3585 -0.2661
17783W        W35987   1.207   6.649   2.689 -0.0274 -0.1410  0.0092
17784W        W35988   8.372   5.164   0.778  0.2336  0.2203  0.3467
17785W        W35989  16.620   3.604  12.567  0.1184 -0.0128 -0.1806
17786W        W35990   4.047  16.581  13.264  0.0496 -0.1035 -0.0084
17787W        W35991   6.792  12.827   4.473 -0.1525 -0.4466  0.0379
17788W        W35992   8.741   1.118  12.101 -0.3946 -0.1993  0.1449
17789W        W35993  13.995  16.399  12.413 -0.0877 -0.1682 -0.4885
17790W        W35994   9.064  17.396  11.854 -0.1685  0.0209 -0.0865
17791W        W35995  17.459  13.780  12.595 -0.2111  0.2298 -0.0257
17792W        W35996  15.736  15.637  11.567 -0.0482 -0.1154 -0.2260
17793W        W35997  11.587  18.223   5.105 -0.0477  0.5783  0.2439
17794W        W35998  10.958  14.277   4.453  0.0662  0.1985 -0.1899
17795W        W35999   9.453  15.245  14.610  0.0191 -0.0265  0.4209
17796W        W36000   2.197   8.948  12.915 -0.1218 -0.3087  0.0847
17797W        W36001  11.766  14.401  14.280  0.1174 -0.0406 -0.3392
17798W        W36002   6.471  18.331   0.513 -0.1757  0.2827 -0.1213
17799W        W36003  11.046   3.685  13.328 -0.0692  0.1533  0.1713
17800W        W36004  13.883  13.058  12.282 -0.0323 -0.1494  0.0885
17801W        W36005   9.617   6.310   1.054  0.0830 -0.0159 -0.1601
17802W        W36006   9.999   5.893   0.167  0.0078  0.1436  0.1443
17803W        W36007  16.920   9.725  14.605  0.0593 -0.0562 -0.1320
17804W        W36008   3.086   9.444  14.762  0.1816 -0.1304  0.1084
17805W        W36009   0.269  16.086   2.623 -0.2516  0.1158 -0.0488
17806W        W36010   3.087   5.831   2.132 -0.0152 -0.2518 -0.2522
17807W        W36011   1.960  18.274   2.208 -0.0385 -0.0406  0.0524
17808W        W36012  16.442   6.813   2.248  0.3466  0.0656 -0.3293
17809W        W36013   0.093   6.228   1.392 -0.2176  0.2684  0.3036
17810W        W36014  18.150   5.298  11.671 -0.2773  0.1605  0.1681
17811W        W36015   7.089  11.615   1.102  0.2596  0.1841 -0.0663
17812W        W36016  12.897   2.636  13.459 -0.0291 -0.0801  0.1247
17813W        W36017   0.587  13.134   5.394 -0.1299  0.0127 -0.0600
17814W        W36018  18.191   1.574  14.413  0.4284  0.0422 -0.1120
17815W        W36019   2.823  13.343  12.019 -0.2384  0.0741  0.2445
17816W        W36020   9.006   5.647   0.840  0.2833 -0.0775  0.1417
17817W        W36021  11.949   5.854  11.013 -0.1201 -0.0608 -0.0720
17818W        W36022   6.741  14.135  12.262 -0.0777  0.3689  0.2820
17819W        W36023  12.329   2.381   0.962 -0.0744  0.0727  0.0035
17820W        W36024  12.581   5.932   5.360  0.3059 -0.0688  0.2963
17821W        W36025  11.677  16.155  13.614 -0.3848 -0.0863  0.2182
17822W        W36026  14.583   8.477   0.749  0.1056  0.1659  0.1091
17823W        W36027  17.350  10.376  12.360 -0.1929  0.0542  0.1474
17824W        W36028  10.043  14.463   3.382  0.1107 -0.2507 -0.0591
17825W        W36029   3.662  10.121  13.920 -0.4072  0.1946 -0.1497
17826W        W36030   6.643   1.801   4.501 -0.0933 -0.1635  0.1845
17827W        W36031   1.221  15.089  10.755 -0.1907  0.0649  0.1021
17828W        W36032  18.475   0.595   2.463  0.2642 -0.1888 -0.0091
17829W        W36033   3.837   7.340   4.271  0.0791  0.3145 -0.4284
17830W        W36034   0.321  17.783   4.264  0.0295  0.2467  0.1455
17831W        W36035  15.619  13.517   0.189 -0.3536  0.0569 -0.0320
17832W        W36036   2.559  16.978  13.919 -0.2085  0.5118 -0.3034
17833W        W36037   8.096   9.202  14.247 -0.2896  0.0242 -0.1124
17834W        W36038  15.198   4.586   4.547  0.0104 -0.2276  0.0930
17835W        W36039  18.368  13.662  12.344  0.1073 -0.0761 -0.2057
17836W        W36040   7.173  12.079  13.653 -0.0621  0.3716  0.0170
17837W        W36041  15.711  12.014  13.005  0.4512  0.2647  0.1646
17838W        W36042  10.195   3.255   4.453 -0.1187  0.1173  0.3035
17839W        W36043   4.312   4.979   0.718 -0.0344 -0.0914 -0.0479
17840W        W36044  12.564   8.998   2.349 -0.2032  0.3148  0.1691
17841W        W36045   3.855  17.360  12.567 -0.2260 -0.0037 -0.1394
17842W        W36046  10.205  16.863  12.210  0.1229 -0.1384  0.1938
17843W        W36047  13.473  14.272  12.505  0.3077 -0.2840 -0.0349
17844W        W36048  12.157  17.318  11.654 -0.1489  0.1886  0.0450
17845W        W36049  10.719   2.705   4.206 -0.0584  0.0261  0.0447
17846W        W36050   4.093  15.727   0.347 -0.2856 -0.0357  0.2606
17847W        W36051   0.548   3.404  14.333 -0.0374  0.1982 -0.0617
17848W        W36052  17.403   8.682  15.409  0.0661 -0.2793 -0.3618
17849W        W36053  13.953   8.040  12.976  0.0301 -0.1562 -0.0323
17850W        W36054  15.288  12.498  11.425  0.1565  0.0863  0.0766
17851W        W36055  16.831  12.876   1.826  0.1211  0.1028  0.1657
17852W        W36056   3.863   6.815  14.937 -0.0682  0.1393 -0.0129
17853W        W36057   3.803  18.440  14.563  0.0886  0.0822 -0.0187
17854W        W36058  13.826  14.288  14.965  0.2607  0.1284 -0.3343
17855W        W36059  13.423  11.732   3.205  0.1998  0.2865  0.0133
17856W        W36060  12.309   7.724   4.551 -0.6041 -0.0963 -0.0563
17857W        W36061   9.182   5.674  14.565  0.0376  0.0776 -0.0739
17858W        W36062   8.229  12.922   4.623 -0.1745 -0.2157  0.1195
17859W        W36063  18.388  16.519   2.832 -0.1517  0.2904  0.1614
17860W        W36064  12.200  12.352  10.456 -0.0008  0.3320 -0.2010
17861W        W36065  14.639   0.559  12.742 -0.0219  0.0113 -0.2194
17862W        W36066   9.409  14.872   3.857  0.1619  0.0493  0.0325
17863W        W36067   8.368  11.211  12.339 -0.2638  0.1767 -0.2013
17864W        W36068  18.500  18.596  13.768  0.5125  0.1486  0.2112
17865W        W36069   7.846  17.852  11.480 -0.1246 -0.1420  0.0563
17866W        W36070   9.944   7.288  15.321  0.2096  0.1704  0.2168
17867W        W36071  18.356   2.073   0.080 -0.0273  0.2555  0.0989
17868W        W36072  11.455   6.124  13.270  0.0051 -0.1108  0.2068
17869W        W36073  10.995   5.018   0.361  0.3157 -0.1186 -0.2021
17870W        W36074   7.447   7.535  15.040  0.1979  0.1630  0.0531
17871W        W36075  12.799   8.320   3.228  0.0746  0.2279 -0.1099
17872W        W36076  16.968  13.856   3.387  0.2009  0.2159  0.0640
17873W        W36077  12.893  11.192   4.017 -0.0294  0.0687  0.0530
17874W        W36078   1.526   0.923  13.000  0.0385  0.0241  0.0555
17875W        W36079  11.997   2.969   0.760  0.0406 -0.1722 -0.0978
17876W        W36080  15.116   8.155  12.269  0.1036 -0.0794  0.3917
17877W        W36081   6.057   7.800  14.581  0.0356  0.0661 -0.2299
17878W        W36082   1.406   4.302  11.411 -0.2628  0.1099 -0.1379
17879W        W36083   5.567   5.275   4.081  0.1257 -0.3210  0.2203
17880W        W36084  17.271   3.973   2.973 -0.0565  0.0460 -0.0032
17881W        W36085  15.860   5.791   1.950  0.3083  0.1226 -0.1092
17882W        W36086   2.072   8.745  14.762 -0.3197  0.0661 -0.0591
17883W        W36087  17.022   3.073   4.142  0.0048 -0.0489  0.1449
17884W        W36088   2.910   2.629   4.388 -0.0526  0.1131 -0.2555
17885W        W36089   5.193   9.665  11.182 -0.0397  0.1623 -0.0505
17886W        W36090  15.090   8.319   0.717 -0.1983 -0.0248  0.3465
17887W        W36091   6.237   6.239  11.798  0.0130 -0.1293 -0.0698
17888W        W36092  17.883  14.441  15.206 -0.0823  0.3089 -0.0049
17889W        W36093  16.395   2.171  14.300 -0.0483  0.1731 -0.2592
17890W        W36094   3.878   3.147   5.153  0.2066 -0.1322  0.0727
17891W        W36095   7.177  13.028   9.895 -0.1617 -0.1526  0.0589
17892W        W36096  15.346   4.182   2.060  0.3168 -0.0874  0.3250
17893W        W36097  10.364   7.104  14.730 -0.0284 -0.3023 -0.1014
17894W        W36098   1.584  16.501   2.355 -0.6174  0.0036 -0.3295
17895W        W36099  14.607   2.565   3.273  0.1427  0.0566  0.2861
17896W        W36100   3.870   6.857  12.326  0.1526 -0.2953  0.1840
17897W        W36101   0.292  14.016  13.906  0.0333 -0.0516  0.2311
17898W        W36102   4.414   2.154  11.391  0.3193 -0.1857  0.0101
17899W        W36103   0.934  10.737  13.869  0.3069 -0.2157 -0.0669
17900W        W36104   2.137   3.410   1.233  0.0516  0.2708  0.0669
17901W        W36105   2.190  15.375   2.677 -0.2208 -0.0989  0.1694
17902W        W36106   0.940  13.135   0.558  0.4682 -0.2653 -0.0296
17903W        W36107   9.139  11.356   0.474 -0.0182  0.1196 -0.1048
17904W        W36108   3.623  18.285   1.153  0.0821 -0.1663 -0.1628
17905W        W36109  17.159   0.095   0.879  0.2526 -0.0921 -0.3444
17906W        W36110   7.788  12.366  10.973  0.0805 -0.0578  0.1983
17907W        W36111   3.558  10.608  11.018 -0.3226 -0.3426 -0.2419
17908W        W36112   4.789  12.510  11.987  0.0391 -0.2531  0.3536
17909W        W36113  16.490   4.114   4.143 -0.0214  0.0420  0.3043
17910W        W36114   9.476  12.274  12.228  0.3835  0.0389 -0.0539
17911W        W36115   7.892   7.241   3.645  0.0572  0.0551 -0.0523
17912W        W36116  12.438   4.066   3.549  0.1539 -0.1110 -0.0739
17913W        W36117  14.333   7.675   4.554  0.1440 -0.0074 -0.1961
17914W        W36118   8.287   5.364  12.162  0.2697  0.1317  0.0898
17915W        W36119  13.650  17.206  15.435  0.1674  0.1346 -0.2572
17916W        W36120   8.305  13.036   3.876  0.0512  0.0924  0.0505
17917W        W36121   0.757   8.536   2.150  0.1173 -0.3802  0.4639
17918W        W36122   4.342  13.883  14.211  0.0137 -0.1553 -0.0807
17919W        W36123   4.909   3.239  15.408 -0.1335 -0.0265  0.0382
17920W        W36124   1.392   5.952   1.737  0.3776  0.0829  0.1397
17921W        W36125   3.910   4.351   3.475 -0.0770 -0.0534  0.0051
17922W        W36126   5.533   0.286  13.749 -0.0051 -0.0178  0.3263
17923W        W36127   4.322  13.967   0.036 -0.0457 -0.2264  0.0599
17924W        W36128   8.919  16.341  13.883 -0.2557 -0.1910  0.2466
17925W        W36129   9.116  17.250   0.272  0.1309 -0.1608  0.1322
17926W        W36130   4.400  17.844  13.211 -0.0538  0.1265  0.0120
17927W        W36131   0.485   4.442   2.407 -0.1393 -0.0246 -0.0660
17928W        W36132   2.696  17.926   3.483 -0.0440 -0.1884  0.0716
17929W        W36133   2.290   9.530   1.079  0.1979 -0.2900  0.3585
17930W        W36134   4.487   0.367   9.883  0.0404 -0.0265  0.0268
17931W        W36135   9.661   6.010   3.800 -0.2789 -0.1738 -0.0078
17932W        W36136   4.894   5.984  12.543 -0.1101 -0.3772 -0.2072
17933W        W36137  16.151   9.855   1.473  0.1602  0.1378  0.1250
17934W        W36138   2.474  13.527  13.561  0.2069 -0.4222 -0.1362
17935W        W36139   3.616  13.685  11.568  0.0394  0.1425  0.2234
17936W        W36140  11.033   3.507  12.659  0.5686 -0.1421  0.2651
17937W        W36141  17.487   6.620  11.712 -0.0403  0.1312  0.1910
17938W        W36142   8.306  15.285   2.074  0.1397 -0.2196 -0.2021
17939W        W36143   4.303  17.455   2.618 -0.4349 -0.0451 -0.3521
17940W        W36144  18.345   9.051  12.862 -0.0339 -0.0323 -0.3867
17941W        W36145   0.685  15.273   3.630  0.3976  0.2243  0.1413
17942W        W36146  13.727  12.015  12.443  0.1348 -0.1801 -0.3697
17943W        W36147   7.811   9.327   2.014  0.0084 -0.0674  0.0930
17944W        W36148   6.052   9.329   0.937 -0.0472 -0.0557 -0.0360
17945W        W36149   5.546   5.171   1.509 -0.0990  0.1344 -0.2419
17946W        W36150  12.694  12.146  13.664  0.1186  0.2916  0.1914
17947W        W36151  14.017  17.482  14.221 -0.2146 -0.0396 -0.1543
17948W        W36152   9.386   3.358   2.775 -0.2082  0.0929 -0.0908
17949W        W36153  10.499   7.969   4.382  0.2110  0.1463  0.1513
17950W        W36154  17.817  17.093   2.291 -0.1480 -0.0122 -0.0022
17951W        W36155   6.758  10.185  11.717 -0.0249 -0.1067 -0.3140
17952W        W36156  12.467   2.013   0.228  0.2769 -0.0485 -0.1265
17953W        W36157  11.693  10.109  12.753 -0.0263 -0.0062 -0.0864
17954W        W36158  10.087   9.052  13.278 -0.1375  0.0558 -0.1234
17955W        W36159   6.569  14.834   0.177 -0.0850  0.0005 -0.0251
17956W        W36160   4.809   2.107   3.252 -0.1126  0.0155 -0.2364
17957W        W36161  10.794   3.283   3.304  0.0413  0.1214 -0.1720
17958W        W36162   2.193   9.445  13.750  0.1799 -0.3610 -0.0576
17959W        W36163   4.248  13.609  12.522  0.1804  0.0652 -0.0735
17960W        W36164   6.835   8.580   3.755 -0.0412  0.1000 -0.0014
17961W        W36165  14.848  14.903  12.942 -0.1206  0.4069 -0.0566
17962W        W36166  11.414  15.310  15.394  0.0990  0.2918  0.1873
17963W        W36167   9.286  17.119   4.600  0.0494  0.4033 -0.0548
17964W        W36168  12.342  18.405  15.167 -0.3528 -0.0037 -0.1222
17965W        W36169   0.371   5.139   0.035  0.0926  0.0196 -0.1826
17966W        W36170   0.494   8.670  13.881  0.0964  0.1599  0.1164
17967W        W36171  15.161   7.927   3.978  0.1649  0.0967  0.3701
17968W        W36172   2.889  13.218   0.458  0.0788 -0.1345 -0.2895
17969W        W36173  13.878  11.655   0.355  0.3139  0.1746  0.1081
17970W        W36174   0.397   5.104  14.309 -0.1708 -0.0443  0.1558
17971W        W36175   5.517   4.469   2.079  0.3528 -0.1421 -0.1557
17972W        W36176  10.243   4.206   4.367 -0.0300 -0.1057  0.2135
17973W        W36177  15.607   0.986   1.467 -0.0646 -0.0111  0.0855
17974W        W36178  13.581  17.995   0.356  0.0239  0.0068 -0.1306
17975W        W36179  18.248   9.180   5.560 -0.2032 -0.3099 -0.2039
17976W        W36180   7.356  10.078   2.566 -0.1569  0.2322  0.2178
17977W        W36181  11.530   7.805  14.090 -0.0907 -0.0661 -0.3221
17978W        W36182   1.408   7.615  12.160  0.1508 -0.0536 -0.3049
17979W        W36183   6.667  17.146  12.282  0.1616  0.2039 -0.0170
17980W        W36184   7.026   3.163  12.157 -0.1168 -0.0428  0.1512
17981W        W36185   9.152   5.413   3.109 -0.0325 -0.3027 -0.0307
17982W        W36186  14.958  17.503   2.459  0.2669  0.1236  0.1918
17983W        W36187   6.490  10.621  15.104 -0.1322  0.0599  0.0378
17984W        W36188  17.995   1.372  14.815 -0.1359  0.1496 -0.1456
17985W        W36189  11.299  18.513  14.874  0.1084  0.2174 -0.0592
17986W        W36190  15.178   7.536   1.504 -0.1157  0.1814 -0.1220
17987W        W36191   9.919  17.009  15.220  0.0739 -0.0205 -0.1936
17988W        W36192  10.127   9.431  11.209  0.1728  0.0818  0.1545
17989W        W36193   1.628  17.862  15.337  0.0763 -0.1883 -0.1417
17990W        W36194   0.566   7.722   1.528 -0.1098 -0.1178  0.0086
17991W        W36195   6.030  12.464  11.315  0.1726  0.0164 -0.1364
17992W        W36196  17.754  12.564   0.561  0.2339  0.2049 -0.0897
17993W        W36197  17.855   6.521  12.067  0.1623 -0.3229 -0.0122
17994W        W36198   0.756   5.149  13.923 -0.0219  0.2442  0.2005
17995W        W36199   0.617   4.661   1.575  0.2354 -0.1714  0.2492
17996W        W36200   3.660  10.974   5.622  0.1000 -0.4494  0.0941
17997W        W36201   2.010  18.446   3.002  0.3296 -0.2101 -0.2029
17998W        W36202   6.667  13.588  15.415  0.2263 -0.2449 -0.5297
17999W        W36203  12.834  15.756  12.259  0.0741 -0.0347  0.1729
18000W        W36204   2.109   0.094  14.004 -0.1332 -0.1959 -0.0438
18001W        W36205   2.263  11.779   0.714  0.0611 -0.0021 -0.0194
18002W        W36206   8.751  17.220   0.701 -0.0394 -0.2909 -0.2026
18003W        W36207  15.487  12.923   3.001 -0.0039 -0.0118 -0.0827
18004W        W36208   5.008  12.086   2.508  0.1128  0.2752  0.0785
18005W        W36209   0.332   7.630  11.333 -0.1711 -0.1164 -0.0138
18006W        W36210  17.026  12.942  13.274  0.0397  0.1100  0.3470
18007W        W36211  12.873  15.041   4.320 -0.0493 -0.0090 -0.1090
18008W        W36212   0.756   7.020   2.545 -0.1510 -0.1991  0.1088
18009W        W36213  10.429   1.062   0.744  0.0158 -0.3019 -0.0584
18010W        W36214   7.643   3.534   4.762  0.0825  0.0241 -0.1957
18011W        W36215   2.539   6.472   1.817  0.2510 -0.0886  0.2383
18012W        W36216  16.545   7.710  12.573  0.4632 -0.2444  0.0293
18013W        W36217  17.805   5.907   2.613 -0.2011 -0.3691 -0.0186
18014W        W36218   7.165  17.826   2.185 -0.2470  0.0857  0.1774
18015W        W36219  11.699  15.907   1.354  0.1469  0.0272 -0.1696
18016W        W36220   5.266   6.407   1.109 -0.0039 -0.0664  0.0900
18017W        W36221   0.289  16.755  12.550  0.1157  0.0291  0.1604
18018W        W36222   0.533  12.892  14.124  0.2391  0.1127 -0.0579
18019W        W36223   5.627  13.678  11.352 -0.2351 -0.0955  0.2030
18020W        W36224   2.549  12.719   4.974  0.1277 -0.2240 -0.1729
18021W        W36225   6.379  17.659   1.163  0.0983 -0.0964 -0.1165
18022W        W36226   3.341  11.635  14.561  0.1838 -0.0763  0.0152
18023W        W36227   1.054   4.609   1.776 -0.3590  0.0480 -0.1848
18024W        W36228  12.847  16.966  13.343 -0.3418  0.2107  0.1565
18025W        W36229   8.485   5.044  15.113  0.1497 -0.0973  0.0012
18026W        W36230  15.458  15.011   2.297  0.0210 -0.0201  0.0992
18027W        W36231  10.721  18.543   1.527 -0.5278 -0.1171 -0.0030
18028W        W36232  13.177   9.556  13.923 -0.2374  0.1585 -0.0147
18029W        W36233   6.475  13.863  14.285  0.2071  0.0756 -0.1096
18030W        W36234   1.342  10.826  13.056  0.0898 -0.0727  0.0359
18031W        W36235   6.860  18.409   4.638 -0.1522  0.0065  0.2014
18032W        W36236  14.974  18.245   0.989 -0.0275  0.1901 -0.1565
18033W        W36237  10.916  11.533   1.221 -0.1033 -0.2278  0.1174
18034W        W36238  16.274  12.633   4.246 -0.0648 -0.0767 -0.0915
18035W        W36239  12.893   6.896   2.898 -0.2736 -0.0037 -0.1264
18036W        W36240  13.112  12.361  13.006  0.2908 -0.0534  0.0213
18037W        W36241   2.713  16.387   4.475  0.1177  0.0930 -0.0866
18038W        W36242   3.355   7.548  10.886 -0.2935  0.1635 -0.0734
18039W        W36243  12.499  17.682   1.727  0.0205  0.2228 -0.0047
18040W        W36244  14.786  17.593   0.175  0.0200 -0.0721  0.0282
18041W        W36245   8.846  11.442  10.587  0.1771  0.4849  0.1973
18042W        W36246  18.209  13.881   1.882  0.1464  0.2164 -0.1343
18043W        W36247  13.000   8.396  12.196  0.0951  0.0777  0.3298
18044W        W36248   2.146   3.322   3.488  0.2697  0.1096 -0.1334
18045W        W36249   8.258   8.910  13.167  0.0744  0.0796 -0.0005
18046W        W36250   2.882   6.991   3.598  0.3341 -0.0247 -0.1687
18047W        W36251  13.658   3.002   4.213  0.1489 -0.0958  0.0813
18048W        W36252   7.329   2.776   0.124 -0.1618 -0.1675  0.0514
18049W        W36253  10.369   5.670  13.774  0.2385  0.4532 -0.0325
18050W        W36254  11.536  15.287  12.547 -0.1581  0.3195 -0.1544
18051W        W36255   6.229   2.805   4.860 -0.1380  0.2230 -0.0347
18052W        W36256  14.329  10.849  10.112 -0.1534  0.2426  0.0481
18053W        W36257   6.129  16.730   1.488 -0.1914 -0.0047  0.1684
18054W        W36258  18.457   4.552   3.894 -0.1769 -0.1367 -0.1016
18055W        W36259  15.392   7.328  13.160 -0.0802 -0.0955 -0.0156
18056W        W36260   2.280   9.835  15.149  0.0515 -0.0391  0.0267
18057W        W36261  10.970   6.605  11.594 -0.0174 -0.1239 -0.0281
18058W        W36262   3.032   5.060  15.371  0.1139 -0.0702  0.0357
18059W        W36263  15.816  11.926  13.583 -0.3749  0.0535 -0.2308
18060W        W36264   6.555  13.344   0.936  0.2367  0.0109 -0.0623
18061W        W36265   6.370   4.597   2.847 -0.0158  0.0194  0.0978
18062W        W36266  14.508  14.883   1.471 -0.2047 -0.1712 -0.1240
18063W        W36267  14.623  12.139  10.818 -0.1470  0.1500  0.2227
18064W        W36268   0.842   8.847  11.085 -0.3755 -0.2472 -0.2932
18065W        W36269  15.478   9.326   3.330 -0.1609 -0.0347  0.2868
18066W        W36270   0.564   6.353  14.183 -0.1923  0.1424  0.2166
18067W        W36271   4.512   9.627   1.822 -0.1558  0.2257  0.0221
18068W        W36272   0.803   2.183   1.544 -0.2579 -0.1432 -0.1053
18069W        W36273  14.908  13.001   3.068  0.0664  0.0160  0.0260
18070W        W36274   4.992  11.456  11.328  0.1446  0.3213  0.1825
18071W        W36275  13.630   3.783  13.529  0.2100 -0.0119 -0.1566
18072W        W36276   2.883  14.310  15.211 -0.3533 -0.2448 -0.0966
18073W        W36277   1.611   4.629   1.966 -0.0377 -0.0455 -0.1859
18074W        W36278  10.767   9.995  14.146  0.0596 -0.0388 -0.2547
18075W        W36279   0.698  14.313   3.650 -0.0109  0.0483  0.1737
18076W        W36280   3.016   7.654  15.177  0.0891  0.0395  0.4698
18077W        W36281   6.986  18.560  15.166  0.0557 -0.1070  0.0150
18078W        W36282  16.757  13.533   5.088 -0.0349 -0.0676 -0.2231
18079W        W36283  12.372   3.008   4.096  0.0863  0.2121  0.0643
18080W        W36284   8.946  14.967   4.105  0.1392 -0.3014  0.0645
18081W        W36285   3.154   9.651  14.190 -0.0467 -0.1978 -0.1614
18082W        W36286  11.763   2.812   1.217  0.0254 -0.1521  0.1169
18083W        W36287  16.191   8.359   1.283 -0.0246 -0.4978  0.0804
18084W        W36288  10.574  10.839   1.381  0.0477  0.0374 -0.2214
18085W        W36289  14.989  13.138  12.494  0.0016  0.0409  0.4010
18086W        W36290   6.427  15.181  14.661  0.0767  0.2527  0.2501
18087W        W36291  17.909  18.214  12.236  0.0784  0.1547 -0.1402
18088W        W36292  14.243   0.388   0.967  0.1680  0.1186 -0.1226
18089W        W36293  10.492   3.782   3.025  0.4055  0.0786 -0.1264
18090W        W36294   8.942   9.996   0.867 -0.0420 -0.0947 -0.0337
18091W        W36295   8.244   9.710   1.410 -0.2118  0.2905 -0.1474
18092W        W36296  11.533   8.995   3.282 -0.1617  0.1709 -0.0322
18093W        W36297  13.369   4.950  13.027 -0.0911  0.0882 -0.0837
18094W        W36298  12.928   0.691  13.734  0.0699 -0.1325 -0.0144
18095W        W36299  18.588  12.260   0.020  0.2313  0.0975  0.1517
18096W        W36300   6.715   5.326   0.959  0.0752 -0.1083 -0.1112
18097W        W36301   7.480   3.615   3.060 -0.1183 -0.1131 -0.2658
18098W        W36302   7.447  14.001   4.528  0.1330  0.2975 -0.2746
18099W        W36303   9.900   1.269  13.482  0.1414  0.2442  0.2652
18100W        W36304   1.054   0.356   1.586 -0.0957 -0.2965  0.1933
18101W        W36305  14.990  17.728   2.920 -0.1969 -0.0904  0.2443
18102W        W36306  15.938   5.534  10.564 -0.2075  0.1626  0.1529
18103W        W36307  11.237  17.481  11.847 -0.0415  0.1289 -0.3396
18104W        W36308   2.660   7.342  11.417 -0.2008  0.0782 -0.0038
18105W        W36309  15.666  12.470  12.794 -0.2457  0.1371 -0.1875
18106W        W36310   5.688  17.334  12.891  0.2318 -0.1525 -0.1305
18107W        W36311  12.717   4.754   2.503  0.0171  0.0586  0.0150
18108W        W36312  16.575  13.868   3.974 -0.0346 -0.2707  0.0151
18109W        W36313   8.854   7.167  13.649  0.2087  0.0264  0.2225
18110W        W36314   3.501  10.518   3.422  0.1762  0.1123  0.5498
18111W        W36315  14.473   2.568  14.261  0.1402 -0.1831 -0.2150
18112W        W36316   1.323  17.208  14.854 -0.0688  0.0596  0.0373
18113W        W36317   8.048   4.129  15.412 -0.1827  0.4508 -0.1461
18114W        W36318   5.229   7.342  14.309  0.2044 -0.3184  0.0058
18115W        W36319  16.835   7.105  11.431 -0.0799  0.3510  0.0269
18116W        W36320  10.505  12.603   4.929 -0.3010 -0.2310 -0.2283
18117W        W36321  15.556   6.820   2.715 -0.2842 -0.0653 -0.2629
18118W        W36322  17.091   1.861   1.520 -0.0005 -0.1115 -0.0428
18119W        W36323  15.773   3.096   1.423  0.0657  0.1964 -0.1316
18120W        W36324  12.291   4.636  11.703  0.0765  0.0198 -0.1203
18121W        W36325   0.603   7.646   0.219 -0.2551 -0.0323 -0.0776
18122W        W36326   2.047  11.338  13.037  0.0272  0.1503 -0.3170
18123W        W36327   6.226  18.492   0.060 -0.0563  0.3425  0.2644
18124W        W36328   2.299   4.577  15.170  0.2845 -0.2333 -0.1557
18125W        W36329   1.887  16.838  14.322  0.0839  0.1139 -0.0772
18126W        W36330  11.523  15.798  11.967  0.0755  0.0864 -0.0606
18127W        W36331   2.495   8.892  14.076  0.0644 -0.1742 -0.1009
18128W        W36332  13.629   1.498  14.977  0.0733 -0.2433 -0.0592
18129W        W36333   0.194   1.050  14.630  0.1322  0.0118  0.1280
18130W        W36334  14.288  11.953  14.182 -0.1469 -0.1061  0.2455
18131W        W36335  12.565   0.696   3.751 -0.0388 -0.0026  0.1414
18132W        W36336  15.819   7.566   2.658 -0.0752 -0.2098  0.3178
18133W        W36337   9.085   5.108  12.183  0.1184 -0.3999 -0.1092
18134W        W36338  16.855  10.552  13.776  0.1765  0.0996 -0.0541
18135W        W36339   5.309   1.865  12.239 -0.1930 -0.0551 -0.0123
18136W        W36340  17.508  17.538  11.222  0.4797 -0.3867 -0.1406
18137W        W36341   5.113   8.635   3.998  0.0620  0.2732  0.1527
18138W        W36342   7.341  14.793   3.366 -0.1030  0.0251  0.2919
18139W        W36343  14.948   8.865   4.058 -0.0572  0.0292  0.0691
18140W        W36344   2.842   8.821   1.509 -0.2162  0.1178 -0.0755
18141W        W36345   5.247  17.557   3.131  0.0470  0.3019 -0.1697
18142W        W36346  13.817   7.505  11.287 -0.1983  0.0617  0.2334
18143W        W36347  18.591   7.316   3.101 -0.0087  0.3854 -0.2948
18144W        W36348   0.895  12.931   3.104  0.1477  0.0141 -0.1135
18145W        W36349   8.520  11.357  14.569  0.0056  0.0173 -0.2104
18146W        W36350   9.513   5.458  10.872 -0.0191 -0.0906  0.1736
18147W        W36351  14.390   9.669   1.934  0.2854 -0.5202  0.2390
18148W        W36352  13.001  15.736   3.456  0.0480 -0.3822  0.0846
18149W        W36353   7.068   8.450  12.992  0.0507 -0.3323 -0.2487
18150W        W36354   5.248   6.243  11.597 -0.0847 -0.0088  0.0810
18151W        W36355  11.764   6.033  14.470 -0.0916  0.1715  0.1137
18152W        W36356  14.617  11.502   0.912  0.0580  0.1857 -0.3588
18153W        W36357   1.217   8.740  14.399 -0.1397 -0.1887 -0.1322
18154W        W36358  14.408   3.659   3.812  0.1186  0.3375 -0.1479
18155W        W36359  10.100  16.436  13.257 -0.1942 -0.0732  0.0843
18156W        W36360   6.769  14.145  13.422 -0.0964  0.0502  0.1075
18157W        W36361   6.632  18.082  14.313 -0.2809 -0.2337 -0.1789
18158W        W36362   3.053  12.822   2.852 -0.1624 -0.1614  0.1170
18159W        W36363  16.912   1.323   0.428  0.2949  0.0565  0.1541
18160W        W36364   0.703   8.207   4.204  0.1057  0.1672 -0.2820
18161W        W36365   6.183  15.832  12.801 -0.2267 -0.0298 -0.0516
18162W        W36366   4.647   0.683  12.322 -0.2637  0.0303 -0.2928
18163W        W36367  17.032  18.493  11.652 -0.0298  0.0814 -0.0030
18164W        W36368  15.149  12.206  14.170  0.0871  0.1883  0.0296
18165W        W36369  13.771   5.025  11.844 -0.0076  0.0902  0.1233
18166W        W36370  10.900   0.984   3.755  0.0783 -0.1062 -0.1009
18167W        W36371  12.564  16.105   3.367  0.1210 -0.3214 -0.0190
18168W        W36372   2.766   5.169  14.545 -0.3390  0.1828  0.2383
18169W        W36373  15.861   0.462   2.304 -0.0341  0.0517  0.2355
18170W        W36374   0.384   9.558  12.626  0.0808  0.2585  0.2499
18171W        W36375   5.332  13.390   3.625 -0.3805  0.1549  0.1879
18172W        W36376  14.173   0.272  10.929  0.0207  0.0634 -0.2892
18173W        W36377  16.265   8.373  15.308  0.1631 -0.0927 -0.0763
18174W        W36378  12.461  13.068  13.234 -0.1395 -0.1757 -0.1414
18175W        W36379   9.007   4.019  11.648  0.0912 -0.0353 -0.1120
18176W        W36380   5.452  18.185  11.270 -0.2056  0.0535  0.1070
18177W        W36381   8.387  13.238   3.041  0.1712  0.0693 -0.0225
18178W        W36382   2.668   1.227   3.029 -0.0234 -0.4778  0.1824
18179W        W36383  10.000   0.101   4.211  0.2698 -0.1166 -0.2364
18180W        W36384   4.866  14.957  12.408  0.4054 -0.1092 -0.1734
18181W        W36385  17.624   3.658   3.167 -0.0123 -0.2583 -0.0171
18182W        W36386   9.800   9.656  10.861  0.1799 -0.0587  0.0898
18183W        W36387   3.500   5.461   0.923  0.3736 -0.1001  0.0917
18184W        W36388  15.476  11.093  13.392  0.0486  0.1413  0.2350
18185W        W36389  11.020  15.696   4.547  0.4845 -0.2489  0.0729
18186W        W36390  10.461  18.142   3.505  0.4181  0.2136  0.2045
18187W        W36391   9.587   4.588  12.628 -0.0163  0.1385  0.0608
18188W        W36392   2.577  18.463   4.163 -0.0977  0.1393 -0.2570
18189W        W36393   7.083  13.887  11.132  0.3067  0.0197 -0.2431
18190W        W36394   0.899  11.454  12.631 -0.1586 -0.1559  0.0311
18191W        W36395  15.886  12.647   2.758 -0.2849 -0.0267  0.0252
18192W        W36396  11.356   2.862  12.993 -0.4446 -0.0698  0.0749
18193W        W36397  10.751  17.614  15.012 -0.1583 -0.1030 -0.0659
18194W        W36398  15.151   4.794   0.358 -0.0699  0.1189  0.0072
18195W        W36399   3.936  12.348  14.146 -0.2391 -0.1748 -0.0260
18196W        W36400   4.752  17.061   2.231  0.0982  0.2830  0.1500
18197W        W36401  11.389  10.003  11.211  0.0705  0.2731 -0.0883
18198W        W36402   8.923   3.695   5.169 -0.1057  0.3115  0.1833
18199W        W36403  17.912   9.500   0.499 -0.3149 -0.3928  0.1317
18200W        W36404   8.224   8.461  12.209 -0.3925 -0.0295  0.3475
18201W        W36405   2.601  15.525   3.878  0.1617  0.3919 -0.0277
18202W        W36406   9.305   8.414   4.054  0.0279 -0.2569 -0.1577
18203W        W36407   6.189   1.461   1.842 -0.0796 -0.1828 -0.0025
18204W        W36408   6.427  15.532  13.203 -0.0994  0.2631 -0.1391
18205W        W36409  17.635  15.854  13.845 -0.1718  0.2634  0.0245
18206W        W36410  18.516   5.209  12.887  0.2641  0.0516  0.3465
18207W        W36411  14.821   1.975  11.630  0.0360  0.0178 -0.2694
18208W        W36412   5.894   7.591   3.088  0.0550  0.2478  0.1707
18209W        W36413   4.599   9.791   0.809 -0.0490 -0.1061 -0.2034
18210W        W36414   0.643  17.860   1.887 -0.2676  0.1052 -0.1071
18211W        W36415   1.830   6.864   0.010 -0.0846 -0.1098  0.2570
18212W        W36416   9.689   5.238   4.939  0.0073  0.0812  0.0916
18213W        W36417   7.298  15.749  13.748 -0.0392 -0.0618  0.3785
18214W        W36418  15.626   5.391   3.542  0.0632  0.1296 -0.3597
18215W        W36419  16.982  11.240  12.938  0.2401  0.0411 -0.0617
18216W        W36420   9.396   2.455   2.642 -0.2554  0.0835  0.1035
18217W        W36421  15.833  12.767  14.083  0.0378  0.0779 -0.0756
18218W        W36422  18.226   5.061   1.304  0.2933 -0.0314 -0.1668
18219W        W36423   9.059  11.093   3.859  0.3976  0.0732 -0.3668
18220W        W36424   4.150  13.264   3.739  0.3098 -0.0247  0.1577
18221W        W36425   6.663  15.737  12.505 -0.1297  0.0238  0.1002
18222W        W36426  11.577  11.652   3.842  0.0081  0.0114  0.1826
18223W        W36427  11.700  12.525  10.937  0.0967 -0.2230 -0.1479
18224W        W36428  16.704  12.145   2.608 -0.0292  0.2349 -0.2120
18225W        W36429   3.922   9.296   1.592  0.1851  0.2236  0.1555
18226W        W36430  15.367   3.546  11.743 -0.1869  0.0478 -0.0569
18227W        W36431  12.814   2.406   2.131 -0.2090  0.1165  0.2271
18228W        W36432   4.238  12.796  12.803 -0.0379  0.2326  0.1083
18229W        W36433   7.872  18.209   1.344  0.1124  0.0773 -0.1722
18230W        W36434   7.867   9.180  11.991  0.1617  0.0233 -0.0578
18231W        W36435   0.462   6.050   2.987  0.2125 -0.0466 -0.0815
18232W        W36436   0.900   5.776   5.263  0.2533 -0.0766  0.1289
18233W        W36437   6.783  15.769   0.375  0.0158 -0.1479 -0.1770
18234W        W36438  14.862  14.004   1.739 -0.0823  0.0680 -0.3761
18235W        W36439  14.433  12.514   2.645 -0.3197 -0.1171 -0.3346
18236W        W36440   8.277  10.154   2.439  0.1600  0.0032 -0.0680
18237W        W36441   0.641   3.250   2.322  0.1907  0.0643  0.2446
18238W        W36442   1.190   9.192  12.539  0.2128  0.1645 -0.0774
18239W        W36443  14.864   0.805  15.417 -0.0126 -0.1538 -0.0425
18240W        W36444   9.755  14.081   3.312  0.3824  0.0243 -0.2339
18241W        W36445   5.400   1.177   4.026 -0.0846  0.0817 -0.3135
18242W        W36446  18.338  16.370  12.591 -0.2698  0.1803  0.0487
18243W        W36447   9.192   9.884   2.673  0.0265  0.3373  0.1815
18244W        W36448   7.651   9.054   0.492 -0.0579 -0.1880  0.1688
18245W        W36449   6.498  10.669  11.019  0.2731  0.1332 -0.0417
18246W        W36450   7.522  13.609  15.134  0.0416  0.1686  0.2689
18247W        W36451   1.771  11.322   3.742 -0.1600  0.0393  0.3231
18248W        W36452   2.608  12.792  12.506 -0.0551  0.1850 -0.1390
18249W        W36453  16.028  17.388   4.202  0.3774 -0.0878 -0.1466
18250W        W36454   4.439   3.781  14.592 -0.1036 -0.2665 -0.0785
18251W        W36455  13.198   4.749  13.641  0.0212 -0.0534  0.1672
18252W        W36456   2.159  15.026   1.283 -0.1630  0.2895 -0.1391
18253W        W36457   4.401   9.952  13.164 -0.1388 -0.1171  0.1451
18254W        W36458   2.010   2.847  11.043 -0.0504  0.4524  0.0532
18255W        W36459   9.924   1.258   1.026  0.2852 -0.4654 -0.0061
18256W        W36460   3.836   0.622   2.886  0.0348 -0.4500  0.0856
18257W        W36461  18.269   2.995   3.288 -0.0466 -0.1673 -0.0799
18258W        W36462  11.707  11.633   1.113 -0.2345 -0.2073 -0.2278
18259W        W36463  14.824  13.659  13.589  0.0389  0.1149  0.2284
18260W        W36464   8.113  12.051   2.248 -0.3126 -0.4261  0.0793
18261W        W36465  10.465   8.316  13.832 -0.2978 -0.1450 -0.3716
18262W        W36466  16.393   9.294   2.362 -0.2239  0.0570  0.3253
18263W        W36467  10.209  10.767  11.687 -0.1671 -0.1135  0.0641
18264W        W36468  16.463  17.306   0.254 -0.1221  0.0331  0.0975
18265W        W36469  16.456   2.311  12.820  0.2283  0.0905 -0.0801
18266W        W36470  12.354  14.069  12.900  0.0448  0.1858  0.0379
18267W        W36471   8.618   3.055   0.806 -0.3530  0.0808  0.1618
18268W        W36472  18.038  12.285  12.711  0.1246  0.3509  0.2494
18269W        W36473  10.154   9.318  12.808  0.2265  0.0824  0.1006
18270W        W36474  10.891  16.636  14.858 -0.3430 -0.0589 -0.0417
18271W        W36475  15.152  14.924   1.539  0.2452  0.0936  0.2300
18272W        W36476   9.534   5.951  10.994  0.0225  0.0696 -0.0678
18273W        W36477   9.941  13.228  14.758  0.0232 -0.1319 -0.1582
18274W        W36478   5.072   5.866   2.411  0.1546 -0.1887  0.2399
18275W        W36479  12.123  18.524  14.622  0.0509  0.1094 -0.0938
18276W        W36480   2.215   7.149  12.356 -0.2916 -0.1875 -0.0922
18277W        W36481   2.005   6.151  11.119 -0.1603 -0.1147  0.1156
18278W        W36482   7.816  14.661   2.162  0.3132 -0.1602 -0.0408
18279W        W36483  12.332  17.467   2.906  0.2801  0.1537 -0.0809
18280W        W36484   6.869  13.478   5.125 -0.0177  0.1466 -0.0392
18281W        W36485  11.113  13.375  11.018 -0.0002  0.1230  0.2144
18282W        W36486  15.726  10.066   1.700  0.1143 -0.0381 -0.5244
18283W        W36487  13.270  11.580   3.698  0.0080 -0.1491  0.2387
18284W        W36488   6.585  11.189  14.753  0.0481  0.0829  0.0542
18285W        W36489   3.469   4.969   2.405 -0.3597 -0.1469  0.2279
18286W        W36490   5.644  17.902  10.918  0.2867 -0.0555  0.0547
18287W        W36491  14.659  15.936  13.399 -0.0020 -0.0446 -0.0406
18288W        W36492  15.831   7.501   4.506  0.1945 -0.0707 -0.0723
18289W        W36493  13.893   6.567  14.515  0.0073 -0.3214 -0.0539
18290W        W36494   8.487   4.578  10.875 -0.2145 -0.0653  0.0163
18291W        W36495   1.639   4.259   2.821 -0.0057  0.0692 -0.1479
18292W        W36496  17.128  12.776   5.293 -0.3787  0.2723 -0.1670
18293W        W36497   5.428  17.147  11.880  0.0965 -0.3164 -0.0337
18294W        W36498  14.658   5.467   2.680 -0.1182  0.1165 -0.3585
18295W        W36499   9.667  12.439  13.015  0.0351  0.1558  0.2143
18296W        W36500  15.082  16.682   2.701 -0.1425  0.2042  0.2717
18297W        W36501  12.741  13.302   2.677 -0.1753  0.0409 -0.2096
18298W        W36502   4.474   8.605  15.327  0.0312  0.2089 -0.0498
18299W        W36503  12.712   0.364   1.913  0.1167 -0.1527 -0.0151
18300W        W36504  12.544   2.976   3.352  0.3866  0.1517  0.3536
18301W        W36505  13.297  13.376   2.085  0.3472 -0.0457  0.0623
18302W        W36506   5.434  15.193   3.294  0.3587  0.1341 -0.0418
18303W        W36507  14.207   6.645   1.768 -0.0638  0.1251  0.1609
18304W        W36508  14.755  15.368  12.882  0.2148 -0.0487 -0.1741
18305W        W36509   4.128  13.098   2.282 -0.0950 -0.0544  0.1896
18306W        W36510  16.063   8.769  14.107  0.1421  0.1199  0.1994
18307W        W36511  10.643   5.875  12.830  0.0477 -0.2029 -0.2499
18308W        W36512  12.267   3.072  12.828 -0.1452 -0.1045  0.4335
18309W        W36513  13.718  10.459   1.280  0.1672  0.1630 -0.1770
18310W        W36514   3.521  15.814   3.556 -0.0276  0.1582  0.1122
18311W        W36515   9.201  10.068   3.662 -0.0076 -0.1055  0.1007
18312W        W36516  10.642   3.721  13.594  0.0410  0.0277  0.2653
18313W        W36517  10.734   7.979   2.913 -0.3157  0.1435 -0.2198
18314W        W36518  12.767   3.131   3.803  0.1172 -0.1613  0.2538
18315W        W36519   1.641   5.736  12.683  0.0717 -0.0727 -0.0908
18316W        W36520  11.624  15.663   0.910 -0.0174 -0.2966  0.1918
18317W        W36521  18.195  17.539   1.215  0.1400  0.5296 -0.1799
18318W        W36522   3.045  18.474  12.700 -0.3358  0.1418  0.2460
18319W        W36523   6.346   1.708   3.034 -0.1583  0.1722 -0.1730
18320W        W36524   8.934   8.984  10.779 -0.0892  0.2274  0.0109
18321W        W36525   2.503   4.168   4.238 -0.3918 -0.2928 -0.4109
18322W        W36526  14.329   1.678   1.040  0.0078 -0.1312  0.0337
18323W        W36527   2.687   2.811  15.153 -0.1511 -0.2341  0.2067
18324W        W36528   0.169  18.238  10.160  0.2740  0.0702 -0.3291
18325W        W36529  13.001  13.813   1.195 -0.1037  0.1930 -0.0094
18326W        W36530   0.300   3.802  14.591 -0.3330  0.4118  0.1228
18327W        W36531   4.548   9.379   1.342 -0.1313 -0.0904 -0.1358
18328W        W36532   4.193  16.136   2.527  0.2455  0.1068 -0.1623
18329W        W36533  15.764   9.025   0.584 -0.0543 -0.2794 -0.4357
18330W        W36534  12.806   0.512   1.361  0.0082 -0.0081  0.1984
18331W        W36535  18.464   7.329   4.221  0.1392 -0.0780  0.2210
18332W        W36536   9.615  15.360   3.635  0.2801 -0.0185 -0.0386
18333W        W36537   1.407   4.591   2.533  0.2110 -0.0985 -0.4062
18334W        W36538  13.559  11.406  14.438  0.2675  0.0439 -0.3729
18335W        W36539   2.755  11.183  11.485 -0.0916 -0.2733 -0.1041
18336W        W36540   6.905  15.770   2.824  0.0206  0.1431  0.1244
18337W        W36541   5.031   6.447   3.505 -0.2465 -0.0976 -0.0658
18338W        W36542   2.261  15.764  10.593 -0.0467  0.2179  0.2569
18339W        W36543   1.122   7.416   4.596  0.5031 -0.1493 -0.0644
18340W        W36544  11.526   0.238  11.873  0.0183  0.3753  0.2352
18341W        W36545  10.032   8.726  15.250  0.2493  0.1390 -0.0049
18342W        W36546  15.594   3.117  13.382  0.0529  0.0200 -0.0963
18343W        W36547  14.078  16.644   4.206 -0.0542 -0.0862 -0.1121
18344W        W36548   7.226   3.671  13.276  0.2935 -0.0076 -0.1030
18345W        W36549   5.840   8.850   0.814 -0.0906  0.0729 -0.0706
18346W        W36550   1.877   4.670   3.062 -0.0583  0.1979  0.0330
18347W        W36551   6.831   2.826  11.386 -0.4857 -0.0448  0.2486
18348W        W36552   6.727  13.021  11.567  0.1544  0.0166  0.0295
18349W        W36553   3.982  12.208  11.584 -0.0543 -0.0308 -0.0540
18350W        W36554   8.859  13.935  12.622 -0.1057 -0.2555  0.3362
18351W        W36555   8.779   6.330   1.099  0.0248 -0.2989  0.1522
18352W        W36556  17.545  16.915   4.602 -0.2263  0.1871 -0.0826
18353W        W36557  11.382  14.640  14.492 -0.1830 -0.1031 -0.0482
18354W        W36558   8.889   6.354   2.866  0.3021  0.0905 -0.0702
18355W        W36559   7.708   3.722  12.420 -0.3490  0.0977 -0.1942
18356W        W36560   8.372  16.225   4.605  0.2238  0.0297  0.1899
18357W        W36561  17.533  13.109   1.541  0.1459  0.1578 -0.2302
18358W        W36562   7.178  13.914  11.754 -0.0020  0.0238  0.0651
18359W        W36563   7.792  11.828   3.804 -0.1614  0.1047 -0.1763
18360W        W36564  14.846   4.419   3.809 -0.0002  0.2104 -0.1009
18361W        W36565  12.070  12.868  14.560  0.0802  0.0990  0.1501
18362W        W36566   3.473   8.302  11.329 -0.0248  0.0651  0.0764
18363W        W36567   7.380  12.730  12.437 -0.0575 -0.0724 -0.1991
18364W        W36568  14.019  17.853  12.848 -0.0263 -0.0310  0.0902
18365W        W36569   9.208   5.111   4.364 -0.1254 -0.0541 -0.3232
18366W        W36570   8.778   8.904  14.101 -0.1868  0.4397  0.1628
18367W        W36571   9.213  13.683   0.532  0.2696  0.0612 -0.3953
18368W        W36572   8.771  12.726   3.791  0.0558 -0.0562  0.4998
18369W        W36573   1.804  10.177  15.077 -0.1921 -0.2884  0.1999
18370W        W36574  15.941   4.894  13.849  0.0635 -0.0857  0.1370
18371W        W36575  11.301   6.219  14.654 -0.0899 -0.1746  0.1892
18372W        W36576  15.480  15.493   4.343  0.0505 -0.0620 -0.1634
18373W        W36577   1.210   2.412  13.383 -0.0103  0.0502  0.0049
18374W        W36578   5.550   5.363  14.818  0.1046  0.1657  0.2636
18375W        W36579  13.306   6.091   0.268 -0.0594  0.1275 -0.0612
18376W        W36580   8.626   6.288   2.420 -0.3395  0.0064  0.0752
18377W        W36581  17.377   9.127  15.120  0.2602 -0.0708  0.0517
18378W        W36582   0.183   9.220   3.299 -0.2197 -0.2525 -0.0717
18379W        W36583  12.191   8.924   3.392  0.1314  0.4524  0.0640
18380W        W36584  14.648   8.406   1.527  0.0961  0.4282 -0.0191
18381W        W36585   1.400  12.472   1.354 -0.0819 -0.0487  0.1566
18382W        W36586   3.456  14.998  12.825  0.0815  0.1911  0.1106
18383W        W36587   9.923   0.528   2.799  0.3290  0.3277  0.0724
18384W        W36588   0.126  17.471   2.683 -0.2634  0.1410  0.1835
18385W        W36589  12.702   4.033   3.956 -0.0588  0.0945  0.2090
18386W        W36590  16.677  13.183  14.661  0.0537 -0.0333  0.1871
18387W        W36591  15.365   3.434   1.224 -0.0451 -0.1017  0.0903
18388W        W36592   8.919   8.792  14.649 -0.2281  0.0634  0.0678
18389W        W36593  11.729   6.500   4.448 -0.2118  0.0827 -0.0934
18390W        W36594   8.886   2.562   4.516 -0.0438 -0.1330 -0.1202
18391W        W36595  15.182   7.894   0.505  0.1846  0.3505  0.0038
18392W        W36596  11.555   3.213   2.172  0.1365 -0.2394  0.3516
18393W        W36597  15.089  11.949  11.732  0.0648 -0.0634 -0.1134
18394W        W36598   5.347   6.372  10.411 -0.1630  0.0209  0.1611
18395W        W36599  13.775  15.289   3.625 -0.2481 -0.1138  0.0921
18396W        W36600   6.845   8.043  11.555  0.0539 -0.2131  0.2436
18397W        W36601  12.136  13.701   0.159  0.1432  0.0774 -0.0368
18398W        W36602  13.278   0.938   0.130  0.1139 -0.0043 -0.0334
18399W        W36603  15.287   1.499  14.105 -0.0502 -0.3126  0.1741
18400W        W36604   9.207  13.970   2.088  0.2029  0.0151  0.2501
18401W        W36605   2.536  12.200   1.440  0.1751 -0.2619  0.0064
18402W        W36606   3.136   3.068  14.198 -0.3103 -0.0275  0.3348
18403W        W36607   7.679  12.550   1.236  0.0265 -0.0485 -0.1901
18404W        W36608   8.541   4.279   0.149 -0.0368  0.0794 -0.0591
18405W        W36609   4.814  16.974  13.147 -0.2021  0.0688 -0.3374
18406W        W36610  14.871  17.444  11.957 -0.0408 -0.0109 -0.1234
18407W        W36611   9.316  17.092   1.783 -0.0307 -0.1460 -0.0371
18408W        W36612   5.106   1.237  13.637  0.2025  0.0434 -0.0327
18409W        W36613   6.471  16.755  12.652 -0.2107 -0.1075 -0.1502
18410W        W36614   3.067   0.531  14.488  0.0145 -0.0998 -0.2298
18411W        W36615   6.847  13.946   1.605 -0.0087 -0.0702  0.0642
18412W        W36616  15.517   9.157  14.045 -0.0392 -0.1134  0.0811
18413W        W36617   9.427   4.984   1.142  0.2792  0.1697 -0.0381
18414W        W36618   0.707  17.011   4.551  0.1067  0.2853 -0.1076
18415W        W36619   6.110   5.015  12.869 -0.2936 -0.1010 -0.0956
18416W        W36620  15.959   7.962   1.983 -0.0816 -0.2625  0.1143
18417W        W36621   7.876  10.053  12.391  0.0543  0.0593  0.2091
18418W        W36622  11.763  15.675  13.456 -0.2122 -0.2183 -0.0265
18419W        W36623  14.671  17.296  15.097 -0.0827 -0.0001 -0.0671
18420W        W36624  12.957   0.022   2.459 -0.3095 -0.1096 -0.2389
18421W        W36625   9.271   0.023   3.232 -0.2355 -0.0477  0.1536
18422W        W36626  14.577   1.391  13.264 -0.1529 -0.1050 -0.2912
18423W        W36627   4.887   4.811  12.754  0.1721 -0.0321 -0.1487
18424W        W36628  12.732  13.353   2.165 -0.0430  0.2280  0.0430
18425W        W36629  12.485  15.655   3.714 -0.2024 -0.0290  0.0325
18426W        W36630   4.776  12.949  13.640  0.0701  0.0775  0.1000
18427W        W36631  10.092   5.433  13.428 -0.1116  0.1288  0.1603
18428W        W36632   0.657   6.788   0.106 -0.1919  0.1868  0.0854
18429W        W36633  13.525   8.507   4.621  0.0961 -0.0309  0.1010
18430W        W36634   6.498   7.661   5.296 -0.0645 -0.1952 -0.1356
18431W        W36635  13.353   1.081  15.110 -0.1050  0.0080 -0.1505
18432W        W36636   8.899   8.485  11.445 -0.0712  0.0993 -0.4172
18433W        W36637  15.802  14.613   1.365 -0.3803 -0.2458 -0.1222
18434W        W36638   1.515   7.573   4.166 -0.3166  0.0310  0.2562
18435W        W36639  13.826   9.797  10.547  0.0036 -0.1770  0.0364
18436W        W36640   4.377   0.237   0.240  0.0475 -0.1398  0.2076
18437W        W36641   4.994  14.696   0.678 -0.1133 -0.2091 -0.1154
18438W        W36642   0.037  13.373  13.629  0.0213  0.1229 -0.0057
18439W        W36643  13.169   4.633  12.607 -0.0619  0.0636  0.2651
18440W        W36644   7.853   6.755   3.961 -0.0471 -0.1199  0.0483
18441W        W36645   5.637  16.311   0.713 -0.1066 -0.0302  0.3078
18442W        W36646  15.841   1.063  11.788  0.1647 -0.0116 -0.2278
18443W        W36647  10.734   1.259   2.635  0.2593  0.0943 -0.3576
18444W        W36648   1.325  17.614  11.157  0.0999  0.1668  0.0570
18445W        W36649   7.863   2.798  12.286 -0.0005 -0.1456  0.0054
18446W        W36650   7.210   4.015   2.933 -0.0542  0.0402 -0.2556
18447W        W36651   0.741   4.869   4.307 -0.3154 -0.1258  0.0003
18448W        W36652   2.368  17.339  11.688  0.0106 -0.3257  0.0155
18449W        W36653  15.802  18.258  11.281 -0.0637 -0.1565 -0.1924
18450W        W36654   5.180  12.661  14.570 -0.2786  0.1750 -0.1524
18451W        W36655   5.831   2.355  12.465  0.1805  0.0637 -0.0033
18452W        W36656  18.530   9.431   2.925 -0.1447 -0.2943  0.0831
18453W        W36657  10.687   5.481  10.448 -0.0912  0.4247 -0.0839
18454W        W36658  17.391  15.056  12.073 -0.1292  0.1488 -0.2294
18455W        W36659   3.559   6.005   3.130  0.1747 -0.3565 -0.1400
18456W        W36660   3.488   6.080   9.922  0.3182  0.0297 -0.0737
18457W        W36661   7.625  15.483  15.090  0.0423 -0.1830 -0.2419
18458W        W36662  12.137   7.662  11.021 -0.1119  0.1328  0.1579
18459W        W36663  14.909   6.585  13.196  0.0611  0.0673  0.2168
18460W        W36664  13.936   4.591  11.286 -0.0627 -0.4761 -0.2716
18461W        W36665  10.609  15.295   2.048 -0.1346  0.0394  0.0989
18462W        W36666   8.295   6.216  13.973  0.0568 -0.1094  0.1223
18463W        W36667  13.688   4.581  13.860  0.0190  0.2136 -0.0177
18464W        W36668  10.565   3.876  15.246  0.2567 -0.0744 -0.1619
18465W        W36669  12.695   5.881  13.047  0.0137  0.3983 -0.1693
18466W        W36670   0.678   6.426  12.382  0.0838 -0.1255 -0.1739
18467W        W36671  10.951  14.357   3.612  0.1667  0.2045  0.0963
18468W        W36672   5.719   1.061  11.798  0.0312 -0.0660  0.0873
18469W        W36673  14.745  12.970  12.882 -0.2035 -0.0740  0.1126
18470W        W36674   6.134   4.522   4.062 -0.0497  0.3070  0.1179
18471W        W36675  15.668  17.781   2.564 -0.0372  0.0855 -0.0145
18472W        W36676  15.338   0.912   3.769 -0.1876 -0.0322  0.1433
18473W        W36677  15.189   0.396  14.558  0.1132  0.0439  0.0432
18474W        W36678   7.236  10.013  11.791 -0.1068 -0.1660 -0.1375
18475W        W36679   7.673   8.089  10.911 -0.1806 -0.0479 -0.1185
18476W        W36680  12.655   1.134  13.763 -0.1435  0.4047 -0.1380
18477W        W36681   7.368   0.934  14.334  0.0258 -0.1468 -0.0666
18478W        W36682  15.620  16.021  12.493 -0.2019 -0.3018 -0.2586
18479W        W36683  12.886   8.363  13.574  0.0339  0.0324 -0.0940
18480W        W36684   7.283  13.259   1.363  0.0352  0.2024 -0.4225
18481W        W36685  12.679  11.320   3.588  0.2652 -0.2786 -0.1414
18482W        W36686   2.905   5.687   4.563 -0.0152  0.0465  0.2090
18483W        W36687  12.266   5.968   2.227  0.1473 -0.0421 -0.0483
18484W        W36688  10.514  11.818  10.858 -0.0756 -0.0479  0.0841
18485W        W36689   1.972  15.152   1.744  0.1332 -0.6160 -0.2803
18486W        W36690   6.058   0.439  13.569 -0.0789  0.0492  0.2615
18487W        W36691   2.354   9.253  14.567 -0.0009 -0.0829  0.2074
18488W        W36692  10.632   8.764  14.016 -0.1327 -0.1615 -0.2120
18489W        W36693  17.841   2.649   4.756 -0.1545  0.2062  0.2026
18490W        W36694   4.045   4.738   3.102 -0.1342  0.2957 -0.0262
18491W        W36695  11.135  16.566   4.813 -0.0674  0.0446  0.0189
18492W        W36696  10.746  16.385   1.502 -0.1458  0.0607 -0.1453
18493W        W36697  16.515   5.905  11.188 -0.0214  0.0430 -0.1557
18494W        W36698  14.979  16.021  11.752  0.1396 -0.1266 -0.2613
18495W        W36699  16.183  13.102   4.498  0.0268  0.0949  0.0485
18496W        W36700  15.900  16.324   4.352  0.0642 -0.1018 -0.0214
18497W        W36701  11.667   1.220  11.522  0.3088 -0.0288 -0.0911
18498W        W36702   1.910   8.043   2.484 -0.2659 -0.2434 -0.2363
18499W        W36703   7.366  13.059  14.236 -0.0743 -0.0308  0.0571
18500W        W36704   9.102  10.570  13.389 -0.0008  0.0275 -0.1085
18501W        W36705  18.209   8.468  11.647 -0.0530 -0.1803 -0.4031
18502W        W36706  11.204  17.592   0.344  0.0355  0.0157 -0.1661
18503W        W36707  11.010  13.419   2.710 -0.0756  0.1383  0.0961
18504W        W36708  12.031  10.109  15.219  0.2800 -0.1659 -0.3091
18505W        W36709   5.469   6.693  10.791 -0.0844  0.1273 -0.1626
18506W        W36710  10.043  10.770   5.099  0.3741  0.0437  0.1441
18507W        W36711  11.101   8.362   0.895  0.1263  0.0687 -0.0567
18508W        W36712   4.677   5.125   9.747  0.1215  0.0060  0.1821
18509W        W36713  14.069   3.310   1.465  0.3067 -0.2282  0.0893
18510W        W36714   9.807   5.389   0.792  0.2056 -0.1677  0.1032
18511W        W36715  17.651  14.487  13.840 -0.3800  0.0602  0.1220
18512W        W36716   1.946  13.550   2.148  0.0632  0.2993  0.0276
18513W        W36717  16.745   9.537   5.063 -0.1726  0.1542  0.0621
18514W        W36718  14.341  16.987   2.942 -0.3760 -0.1916 -0.0575
18515W        W36719  16.783   3.884   3.106 -0.0401  0.1265  0.0632
18516W        W36720  14.439   8.006  11.851 -0.1714 -0.2396 -0.0500
18517W        W36721  11.160   4.206   4.375 -0.1607  0.1210  0.2555
18518W        W36722  13.268  11.972   1.281 -0.4405  0.1742 -0.1450
18519W        W36723  17.394   4.467   3.661 -0.0689  0.1311 -0.0837
18520W        W36724  14.042  14.221  14.218  0.1142 -0.1564  0.1619
18521W        W36725  11.023  13.214   4.375  0.0216 -0.0219  0.3311
18522W        W36726   4.409   6.331   2.789  0.2760  0.0188  0.0423
18523W        W36727   2.995   9.216  12.145 -0.0474 -0.1794  0.2179
18524W        W36728  13.675  17.436   2.468 -0.2156 -0.0730  0.2455
18525W        W36729  17.030  10.416  15.052  0.0597  0.4079  0.3333
18526W        W36730   7.253   7.074  13.188  0.1531  0.0547  0.0759
18527W        W36731   8.092   3.725  13.716  0.1068 -0.0612 -0.4830
18528W        W36732  17.020   3.581   3.858  0.0173  0.2630 -0.2574
18529W        W36733   9.133  18.179  14.370 -0.0498 -0.0701 -0.1156
18530W        W36734   6.696  16.577   5.345  0.0110  0.1528 -0.1913
18531W        W36735  15.658  17.637   0.818  0.0980  0.3515  0.2424
18532W        W36736  11.964   9.124  14.157 -0.1193  0.1639 -0.0585
18533W        W36737   8.988   0.839  15.362 -0.0274 -0.1303 -0.3256
18534W        W36738  10.110   0.026  12.124  0.0032  0.1668 -0.3556
18535W        W36739  13.486  17.232   0.856 -0.0618  0.0436  0.0122
18536W        W36740  14.819  11.048  12.259  0.1404 -0.2065  0.0351
18537W        W36741  17.452   5.673  11.689 -0.0221  0.1992 -0.0048
18538W        W36742   1.521   0.786  15.221 -0.0603 -0.0085 -0.0349
18539W        W36743   2.239  15.111  12.002  0.0025  0.0454  0.0266
18540W        W36744  12.086   9.841   3.096 -0.1151 -0.1454 -0.2396
18541W        W36745  13.901   9.986   2.188 -0.3061 -0.1135 -0.1203
18542W        W36746  14.716   7.433   2.720  0.3458 -0.1298  0.1821
18543W        W36747   9.334   8.251   1.037 -0.0245 -0.1030 -0.3458
18544W        W36748  14.932  16.693   0.623 -0.0352  0.1194  0.2191
18545W        W36749   4.636  11.163   1.368  0.0314  0.1165 -0.1156
18546W        W36750  17.893  10.897   1.223 -0.0869 -0.2196 -0.1549
18547W        W36751  17.448   6.490   2.855  0.0974 -0.0472  0.2225
18548W        W36752  13.496  14.698  12.849 -0.0050  0.1077  0.0737
18549W        W36753  14.835   8.334  14.198  0.0733 -0.0736 -0.3165
18550W        W36754   9.301  15.407   0.202  0.0603  0.2023  0.1294
18551W        W36755  14.733  11.841   3.760  0.2874 -0.2113 -0.0304
18552W        W36756   4.103  10.310   2.846  0.1916 -0.1262 -0.1514
18553W        W36757   4.170  16.305   1.143  0.2390  0.5562  0.0741
18554W        W36758  18.113   9.047   2.578 -0.0170  0.2181 -0.1057
18555W        W36759   3.091  12.436  14.117 -0.0387 -0.0171 -0.0483
18556W        W36760  13.306   2.963  14.682 -0.0885 -0.2527 -0.0960
18557W        W36761   5.381   8.511   3.167  0.1912  0.2757 -0.2373
18558W        W36762   3.172   0.409  11.904 -0.1324 -0.0325 -0.0348
18559W        W36763  14.751  12.319  12.059  0.1764 -0.3935  0.0295
18560W        W36764  14.706  18.072  15.387 -0.2985 -0.1526 -0.1841
18561W        W36765   2.626  11.128  12.475 -0.1035  0.0279  0.1954
18562W        W36766   2.866  13.920  10.816 -0.0889 -0.3730  0.2531
18563W        W36767   2.454   6.431  14.995  0.3479 -0.1916  0.0478
18564W        W36768  16.990  12.979  12.290 -0.0336 -0.1195 -0.2491
18565W        W36769   1.633  17.200   1.306 -0.2133 -0.2625  0.0183
18566W        W36770   8.704   0.395   0.698  0.0507  0.0886  0.0736
18567W        W36771   5.900  18.210  14.360  0.1482 -0.0440 -0.2550
18568W        W36772   8.803   2.343  14.498 -0.0499 -0.1715  0.1571
18569W        W36773   6.931   8.910   4.242 -0.0369  0.2709  0.1109
18570W        W36774  15.764  14.225  15.150 -0.2482  0.1679 -0.0257
18571W        W36775   2.347  12.391   2.209  0.1215  0.1361  0.3509
18572W        W36776   6.787   0.847  12.421  0.3356  0.0177 -0.0764
18573W        W36777   6.863  10.161   0.791  0.0630 -0.0007 -0.0509
18574W        W36778   0.486  11.214   3.165 -0.0284 -0.0678  0.1103
18575W        W36779   7.944   0.829   4.900 -0.2111 -0.4076  0.0651
18576W        W36780  10.904   1.694   2.457 -0.1340  0.0803 -0.4413
18577W        W36781  16.998  16.441   1.282  0.0203 -0.6000 -0.0483
18578W        W36782   3.067  12.641  14.994  0.1916  0.0816  0.1574
18579W        W36783  14.030   3.887   1.446 -0.2637 -0.3322  0.0905
18580W        W36784  15.185   4.081   3.574  0.2009  0.0804 -0.0926
18581W        W36785  12.908   1.678   1.330 -0.2698 -0.0260 -0.1789
18582W        W36786  15.647   6.215  11.008 -0.2875  0.0047 -0.0286
18583W        W36787  12.474  12.535  10.062 -0.0055  0.2124  0.0132
18584W        W36788   3.171   4.109  13.996 -0.0248  0.0718  0.0182
18585W        W36789   3.566  18.005   1.583  0.0817 -0.0053  0.1106
18586W        W36790  13.703  12.393  10.976 -0.0296  0.0625  0.4111
18587W        W36791  11.357  17.387  14.278 -0.2395 -0.0604  0.1498
18588W        W36792  12.613   8.076   3.677 -0.0338  0.2249 -0.1055
18589W        W36793  12.290   0.368  14.373 -0.2856 -0.0406 -0.2259
18590W        W36794   4.432   3.763  10.677  0.1193  0.0557  0.2349
18591W        W36795  10.544   6.781  12.405 -0.0642 -0.2880  0.1959
18592W        W36796  11.051   7.362  12.382  0.4219  0.1005  0.1028
18593W        W36797   3.450   7.680   3.407 -0.0930  0.0821  0.0036
18594W        W36798  10.960  11.818  13.972 -0.0962  0.0628  0.0413
18595W        W36799   1.295  11.577   0.255  0.0069  0.1000  0.0197
18596W        W36800  17.133   9.948  14.978 -0.1860  0.1229 -0.4364
18597W        W36801  12.307   5.033   0.029  0.1624 -0.0218 -0.1296
18598W        W36802  18.608  11.331   1.564 -0.2447  0.0559  0.0966
18599W        W36803  14.071   7.310   3.815  0.3180  0.2340  0.0317
18600W        W36804   0.864  16.240   4.004  0.0294  0.0082 -0.1597
18601W        W36805   7.736   5.420  15.057 -0.0231 -0.0095 -0.1281
18602W        W36806   9.660   9.308   1.079 -0.0642 -0.2907 -0.1007
18603W        W36807  13.063  15.439  15.248  0.0798 -0.0474 -0.1217
18604W        W36808   9.709  18.536  11.038 -0.2611  0.1014  0.3018
18605W        W36809   2.003  12.986   2.910 -0.1068 -0.3345 -0.3261
18606W        W36810  16.546   2.046   4.506 -0.3419  0.1500 -0.0593
18607W        W36811   8.617  13.390  13.503 -0.4299 -0.2616  0.0733
18608W        W36812   1.101   9.781   0.377 -0.0807 -0.4555  0.0532
18609W        W36813  13.973   9.132   3.071 -0.1659 -0.0765  0.0809
18610W        W36814   9.474   7.640   1.145 -0.0888 -0.1360 -0.1287
18611W        W36815   9.912   7.767   1.401 -0.1152  0.2217 -0.1735
18612W        W36816  17.741   5.549   4.419  0.0107  0.1215 -0.2706
18613W        W36817   7.072  10.896   3.730  0.0845  0.0090  0.0509
18614W        W36818  18.605   8.993  14.969 -0.0896 -0.2355 -0.2197
18615W        W36819  16.693  17.517   1.248  0.0873  0.1019 -0.0850
18616W        W36820   3.849  10.327   0.941 -0.1469 -0.0842 -0.0734
18617W        W36821  17.024   6.101   4.493 -0.1523 -0.2778 -0.0180
18618W        W36822  16.256   7.496   0.738 -0.0267 -0.4122  0.2324
18619W        W36823   3.088   6.963  13.843 -0.4060 -0.1417  0.3276
18620W        W36824   7.573  13.530   0.274 -0.4291  0.5001 -0.3451
18621W        W36825  14.009   4.520   2.132  0.1215 -0.2411  0.1125
18622W        W36826  11.495   4.619   4.253  0.0690  0.1756 -0.2559
18623W        W36827   0.262   5.303  12.414 -0.0596 -0.0786  0.4147
18624W        W36828   5.024   0.692   5.642 -0.1027  0.4482  0.1537
18625W        W36829   6.264  13.786  12.156  0.2837 -0.1076 -0.2799
18626W        W36830  14.545   9.145  14.047 -0.1137  0.0866 -0.0635
18627W        W36831  18.531   6.384   2.810 -0.1928  0.2205 -0.1759
18628W        W36832  14.345   0.612  11.325 -0.0430  0.0143  0.2818
18629W        W36833   5.200   0.173   1.222  0.1450 -0.0188  0.2200
18630W        W36834   5.206  14.609  10.078 -0.0745  0.2783 -0.0163
18631W        W36835  12.789  14.967   0.096  0.1408  0.3000  0.0793
18632W        W36836  12.537   0.087  12.726 -0.2892 -0.1507 -0.0628
18633W        W36837   9.547  14.609   2.041 -0.1668  0.2019 -0.1306
18634W        W36838   5.824   9.317  14.042  0.2740 -0.0150 -0.2280
18635W        W36839  15.494  13.470   3.519  0.1189  0.0246  0.0937
18636W        W36840   1.971  17.559   4.192  0.1724 -0.0279  0.1664
18637W        W36841  11.809  16.301   4.111  0.0417  0.1986  0.0493
18638W        W36842  13.316  11.711   4.680  0.2743 -0.0588  0.0668
18639W        W36843   3.158   8.670  13.357  0.0655 -0.1466 -0.0807
18640W        W36844  13.301   6.588   1.400 -0.4966  0.3608  0.0300
18641W        W36845  11.779  14.367   1.716 -0.0387 -0.0827 -0.1612
18642W        W36846   4.298   8.173  13.788  0.4324 -0.5380  0.0105
18643W        W36847  18.094   2.541  12.373  0.0309  0.1336 -0.0427
18644W        W36848   0.946  15.569   4.494  0.0333 -0.0903  0.1466
18645W        W36849  17.212   0.993  12.416  0.0582 -0.2069  0.1994
18646W        W36850   0.833   8.691  12.195  0.2191  0.2312 -0.2760
18647W        W36851   8.598   8.179   4.797 -0.2640 -0.0435  0.3525
18648W        W36852   0.382   0.357   1.710  0.2607  0.2153  0.1197
18649W        W36853   7.551  14.467  13.200  0.0762  0.1988  0.0225
18650W        W36854   0.148  16.971   3.665 -0.0098 -0.0858  0.0463
18651W        W36855   7.170  14.640   3.851  0.1897  0.2512  0.1414
18652W        W36856  13.481   3.114  14.037 -0.1080  0.2858  0.2265
18653W        W36857  15.034   1.330   4.559  0.0485 -0.4020 -0.1134
18654W        W36858  13.160  17.273   4.316 -0.6574  0.1909  0.0114
18655W        W36859   3.502  12.271  14.954 -0.1730 -0.2386  0.1894
18656W        W36860   4.135   4.118  10.642 -0.0141 -0.0674 -0.0203
18657W        W36861   7.555   1.672   1.626  0.0997  0.3714  0.3075
18658W        W36862  18.409   3.290  11.847 -0.1776 -0.4132 -0.0914
18659W        W36863  16.202   2.456  15.250  0.1329  0.0138 -0.1342
18660W        W36864  17.044  13.651  10.084  0.0904 -0.1170 -0.0662
18661W        W36865   2.863  13.127   3.179 -0.4661  0.0758  0.5050
18662W        W36866   1.469  17.375  11.999  0.1850  0.0808  0.0768
18663W        W36867   2.109  13.553   0.511  0.0232 -0.0756 -0.0400
18664W        W36868  12.308  18.624   0.232  0.0237  0.0085  0.0329
18665W        W36869  18.002   4.554  12.230  0.0623 -0.0885 -0.1414
18666W        W36870   1.663   1.240   1.501 -0.0657  0.0037  0.0747
18667W        W36871   2.907   9.114  10.066  0.0516  0.1289 -0.0680
18668W        W36872  17.785  17.930  13.556  0.0093  0.1430 -0.1050
18669W        W36873  11.908  17.114   0.501 -0.0746 -0.0324  0.1436
18670W        W36874  18.108  11.202   4.358 -0.3584 -0.3023 -0.1807
18671W        W36875   8.926  15.341  12.984 -0.0048 -0.0041  0.1594
18672W        W36876   5.174   2.651   4.293  0.0664  0.0676  0.1160
18673W        W36877   4.653   2.881   3.758 -0.3132 -0.2774  0.1498
18674W        W36878   8.473   2.052   0.340 -0.0587 -0.2278 -0.1605
18675W        W36879  10.501   0.510   2.582 -0.2182 -0.0441  0.0181
18676W        W36880   0.597  16.645   3.280  0.2025  0.1242  0.1562
18677W        W36881  13.156  13.826  13.490 -0.0234  0.1710  0.0254
18678W        W36882   5.982   0.555   1.232 -0.4041  0.0738 -0.1313
18679W        W36883  16.215   1.896   3.408  0.2379 -0.1667  0.0559
18680W        W36884  17.498   9.340  11.157 -0.0858 -0.0169 -0.0986
18681W        W36885  12.798  13.421  12.113 -0.1081 -0.2100 -0.1219
18682W        W36886  11.939   8.902   2.911  0.2960 -0.0252 -0.2873
18683W        W36887   6.120   5.911   3.114 -0.0929 -0.2361  0.1322
18684W        W36888  13.549   2.782  12.783 -0.0243 -0.0659 -0.2066
18685W        W36889  15.163   8.856  14.986 -0.2252  0.0143  0.0281
18686W        W36890  10.971  12.082   2.601 -0.0441 -0.1067 -0.0058
18687W        W36891  18.422   5.802   1.593  0.0276 -0.0937 -0.4077
18688W        W36892   7.151   3.389   3.294 -0.0501 -0.0870 -0.1205
18689W        W36893   1.780  13.390  12.289 -0.1393  0.2752 -0.0965
18690W        W36894   4.272  18.575  11.161  0.0706 -0.2950  0.1898
18691W        W36895   6.822  18.409  14.014 -0.2200 -0.2164 -0.1490
18692W        W36896   1.857   7.689  11.084  0.0433  0.0035 -0.1189
18693W        W36897  11.358  12.026  14.219  0.1465  0.0740  0.1441
18694W        W36898  11.584  10.992   2.202  0.1911 -0.1135  0.2839
18695W        W36899   1.188  17.038   4.374  0.0387  0.3747  0.0962
18696W        W36900   9.724   2.822  14.152 -0.0038  0.2961  0.1611
18697W        W36901   3.242  15.623   3.145 -0.2613 -0.0027 -0.0162
18698W        W36902  18.020  10.438   3.560 -0.0844 -0.1248 -0.0705
18699W        W36903  14.075  11.660   0.770 -0.0234 -0.0185 -0.1045
18700W        W36904  17.596   1.067  13.940  0.2673  0.4264 -0.0675
18701W        W36905  15.174  12.267   1.108 -0.2481  0.0547  0.2550
18702W        W36906  15.853   7.137  10.997  0.0705  0.1544  0.0497
18703W        W36907  17.054  13.047  12.770 -0.0276 -0.3134 -0.0731
18704W        W36908   2.643   0.545   1.099  0.1771  0.1368  0.1149
18705W        W36909   9.528  14.713  15.275  0.0197  0.3532  0.2298
18706W        W36910  12.421   0.122   1.052 -0.2232  0.0431  0.2293
18707W        W36911   4.967   3.593  14.780 -0.1362 -0.0643 -0.0764
18708W        W36912   0.499  18.390  14.848 -0.1603 -0.1908  0.0832
18709W        W36913   7.195   3.266   0.354 -0.1503  0.2464  0.0389
18710W        W36914  14.560   7.586  11.553 -0.1397 -0.2544 -0.0749
18711W        W36915   8.927  15.472   4.195 -0.0181  0.3239  0.0259
18712W        W36916  12.691  13.442   3.877  0.0016  0.0287  0.3611
18713W        W36917  10.788   7.541   0.964  0.0984  0.3194 -0.0956
18714W        W36918  10.667   9.252   2.923  0.1298  0.1067  0.2030
18715W        W36919   9.604  10.636  11.725 -0.2441  0.2299  0.0140
18716W        W36920   0.528  12.010   2.992 -0.3312 -0.0519  0.0150
18717W        W36921   8.671  12.540   1.739 -0.1628 -0.1198 -0.0806
18718W        W36922  15.538  10.523  12.726  0.0799  0.2423 -0.1106
18719W        W36923   4.854   1.238  14.149 -0.1201 -0.1914  0.0136
18720W        W36924   8.750   6.666   5.158  0.0957  0.1788 -0.1035
18721W        W36925   2.439  13.977  11.063  0.0171  0.0025  0.1330
18722W        W36926   0.781  16.282   0.907  0.0552  0.1928 -0.3641
18723W        W36927  18.024   0.558  12.326  0.1352  0.2496  0.1427
18724W        W36928   5.476   1.003  12.798  0.2417  0.0184  0.0293
18725W        W36929   6.619  12.670   1.746 -0.1112  0.1657  0.1515
18726W        W36930  10.756   7.994  13.129 -0.0742 -0.1970 -0.0955
18727W        W36931  10.182   5.070   4.161 -0.2446  0.0502  0.0471
18728W        W36932   7.766  14.241  13.841 -0.0439 -0.0112  0.1298
18729W        W36933   5.359  15.620  15.100 -0.1584  0.5601 -0.1924
18730W        W36934   0.851  17.521  12.378  0.3578  0.0391  0.0502
18731W        W36935  13.991  16.177   3.374 -0.0639 -0.0109  0.3682
18732W        W36936  15.809   3.951  13.593  0.0403 -0.3852  0.2361
18733W        W36937  10.496   8.692   0.574  0.0379  0.3940  0.1699
18734W        W36938   0.340  14.219  12.959 -0.3896  0.1484 -0.2330
18735W        W36939   5.537   8.604  14.131  0.4874 -0.4643  0.0872
18736W        W36940  15.763  13.914   3.495 -0.0936 -0.2601 -0.0056
18737W        W36941  12.834  15.837   2.508  0.0788  0.0815 -0.0857
18738W        W36942   9.147  17.136   5.790  0.3092 -0.1414 -0.0841
18739W        W36943  12.955   0.185  13.523 -0.1451 -0.1790 -0.0138
18740W        W36944  16.970   8.292  14.654 -0.1681  0.2033  0.0755
18741W        W36945  12.442   7.696   0.154  0.0929  0.1746  0.2473
18742W        W36946  15.058   5.165   3.173 -0.2486 -0.0820 -0.0177
18743W        W36947   6.958   9.271  12.227 -0.0532 -0.0381 -0.1191
18744W        W36948   3.798  15.552   3.889  0.0336  0.2627  0.0269
18745W        W36949  10.562  13.437   2.453  0.0745 -0.0380 -0.0818
18746W        W36950  18.159  12.237   1.521  0.2587 -0.0852  0.0201
18747W        W36951  16.396  12.296   3.049  0.1059  0.1421  0.3042
18748W        W36952  17.383   1.998  10.019 -0.2259  0.2907  0.3829
18749W        W36953  15.826   5.835   4.287  0.3292 -0.2808 -0.0897
18750W        W36954   7.827  17.450   0.978  0.4089  0.2678  0.0024
18751W        W36955  18.100   3.127   3.907 -0.0434 -0.1676 -0.2069
18752W        W36956  17.879   8.461  10.970  0.1069  0.2832  0.1113
18753W        W36957  15.524   3.024  15.153  0.0569 -0.0281 -0.0456
18754W        W36958   0.537   0.678  15.365 -0.0982 -0.0622  0.0205
18755W        W36959  16.606  11.018   1.225  0.2309 -0.2859 -0.0232
18756W        W36960   7.064   6.804   3.490 -0.0630 -0.1181  0.2528
18757W        W36961   8.403   5.863  11.243  0.1748 -0.2730  0.1584
18758W        W36962  13.069  18.385  14.043 -0.0717  0.1311  0.1356
18759W        W36963   3.667  11.204  14.131  0.1969 -0.0441 -0.1349
18760W        W36964   1.598   3.569  13.316 -0.2104  0.0932 -0.0531
18761W        W36965   4.515   5.270  12.176 -0.0999 -0.3022 -0.1178
18762W        W36966   1.545   3.394   2.716 -0.1052 -0.3007  0.2742
18763W        W36967   8.294  10.840  11.084  0.1253  0.0507  0.1254
18764W        W36968   1.943  12.209  14.772 -0.1903  0.2349  0.1351
18765W        W36969   2.571  12.837  15.176  0.2518  0.0319 -0.1202
18766W        W36970  11.137   2.896   1.050  0.0167 -0.6031 -0.2375
18767W        W36971  11.379   9.524   4.520  0.2510  0.0802  0.0340
18768W        W36972   3.183  16.342  14.186 -0.3291 -0.0388 -0.2782
18769W        W36973   9.324  14.197  15.312 -0.1649 -0.0320 -0.0605
18770W        W36974   9.841  18.339   1.851 -0.0018  0.1921 -0.1066
18771W        W36975   0.414   8.780  11.488  0.0022  0.0073  0.0698
18772W        W36976  11.483   1.032   5.020  0.0523 -0.0197  0.0968
18773W        W36977  10.912  16.407   4.342 -0.0012 -0.0880 -0.1235
18774W        W36978   6.617  11.389   2.403 -0.0743 -0.1776 -0.0479
18775W        W36979  13.802   7.709   4.388 -0.0043 -0.1825 -0.1208
18776W        W36980   1.039  11.982  10.365 -0.2063 -0.0272 -0.1023
18777W        W36981   5.252  14.654  13.245 -0.0171  0.0027  0.1073
18778W        W36982  18.323   4.496  11.403  0.0612  0.2393 -0.1090
18779W        W36983   8.524  14.981   3.211  0.1788  0.2391 -0.3824
18780W        W36984  17.779   9.653  12.988  0.0162 -0.1274  0.1634
18781W        W36985   6.364   9.729   1.844  0.0779 -0.0957 -0.0460
18782W        W36986  18.587  13.792  13.223 -0.0777  0.0694  0.2581
18783W        W36987  18.481  16.271   4.621  0.0872 -0.0852 -0.1577
18784W        W36988   8.169   0.459   2.579  0.0792 -0.1078  0.0099
18785W        W36989  14.856  16.825   3.207  0.1994 -0.4774  0.4502
18786W        W36990   4.747   5.263  13.554  0.0149 -0.1347 -0.0118
18787W        W36991  10.298  11.700   2.232  0.0346  0.2284  0.0842
18788W        W36992   2.405   3.600  11.250 -0.1359  0.0018  0.1085
18789W        W36993  14.799   9.669  15.134 -0.3592  0.1728 -0.0020
18790W        W36994   4.026  17.489  10.410 -0.0181  0.3891  0.2026
18791W        W36995   5.975  14.579  12.547 -0.1677  0.1819 -0.4252
18792W        W36996  11.613   9.904  13.663 -0.0995  0.0756 -0.0404
18793W        W36997   2.092   3.696   3.854 -0.3273  0.1575 -0.0374
18794W        W36998   6.987  17.217   4.886  0.0988  0.0587 -0.0422
18795W        W36999   9.279  16.225   4.433 -0.0336  0.1580 -0.0228
18796W        W37000   4.685   2.611  11.136 -0.2026 -0.0219  0.1067
18797W        W37001   9.227   3.862  14.429  0.0308  0.2706  0.0334
18798W        W37002  13.446   2.606  14.273  0.0148 -0.2042 -0.0460
18799W        W37003   0.256   9.863  14.793  0.1496 -0.0845  0.2060
18800W        W37004  13.472  18.547  14.357 -0.0110 -0.2671 -0.0475
18801W        W37005  10.557   0.362   1.509  0.1711 -0.0967 -0.3705
18802W        W37006  11.969  13.589  11.978 -0.0994  0.0610  0.1995
18803W        W37007  10.953  11.032   3.070 -0.1193 -0.0039  0.0853
18804W        W37008   8.279   6.926   4.525 -0.0372 -0.1031 -0.1378
18805W        W37009   8.771   5.297   0.521 -0.0729 -0.1639 -0.0219
18806W        W37010   6.886   0.488   2.568  0.2580  0.1213 -0.0368
18807W        W37011  14.853   2.803  10.619  0.2098  0.1105 -0.1007
18808W        W37012   2.196  15.620  11.871  0.1562  0.2819  0.1960
18809W        W37013  15.292  11.813  14.537  0.0356  0.1951 -0.2634
18810W        W37014   2.745   4.773  12.889 -0.2697  0.2426  0.0028
18811W        W37015  11.990   4.753  11.187 -0.0389 -0.2888 -0.1373
18812W        W37016  12.842  18.542   3.048 -0.3076 -0.0845 -0.2240
18813W        W37017  12.436   3.502  13.142  0.0122  0.0312  0.1290
18814W        W37018  15.623   1.555   3.187 -0.2920 -0.0669 -0.0462
18815W        W37019   5.258   7.229   3.624 -0.4250  0.0305  0.1854
18816W        W37020  10.669  11.334  15.224 -0.4394  0.0942 -0.1320
18817W        W37021  11.150  13.750   2.325  0.0902  0.0164  0.2287
18818W        W37022   9.241   4.145   3.262 -0.0704  0.0507 -0.0437
18819W        W37023  15.241  14.437  13.664  0.2171  0.1111 -0.2917
18820W        W37024   8.812   4.459  12.520 -0.2059  0.3174  0.0753
18821W        W37025   5.835   7.414  10.712 -0.0785 -0.3413  0.1536
18822W        W37026  17.577   4.069   1.742 -0.0224 -0.2833 -0.3287
18823W        W37027   1.005  17.336   0.796 -0.0058  0.0706  0.2585
18824W        W37028  10.161  16.387  11.935 -0.3911 -0.2370 -0.0679
18825W        W37029   4.131  11.097   9.542  0.2352  0.0443  0.0846
18826W        W37030  11.602   5.580   1.529  0.1007  0.2935 -0.2318
18827W        W37031   7.683   6.846  10.587 -0.1888 -0.0790  0.0030
18828W        W37032  10.265   8.508   1.073 -0.0910 -0.1298  0.2668
18829W        W37033   1.812   8.484   2.142 -0.1605 -0.3634  0.0084
18830W        W37034  16.560   3.526   5.067 -0.3141  0.1191  0.3700
18831W        W37035  15.343   0.479  11.089  0.1863 -0.1231  0.1261
18832W        W37036  14.811   9.568   0.705  0.2570  0.2147 -0.2151
18833W        W37037  15.132   5.216   2.659 -0.0543 -0.2546  0.1940
18834W        W37038   2.816   9.015  14.795  0.1266 -0.0214  0.1127
18835W        W37039  14.198   2.698   4.555  0.2000 -0.1040 -0.1160
18836W        W37040   6.623   4.446   1.215  0.3231 -0.0461  0.1630
18837W        W37041  10.419   8.517  10.680 -0.0780 -0.0422 -0.1228
18838W        W37042   5.894   0.962  13.618  0.0405 -0.2260 -0.0931
18839W        W37043   8.739   8.351  10.953 -0.4631  0.1720  0.1645
18840W        W37044   9.355   2.686   0.097  0.0162  0.0706  0.1627
18841W        W37045  16.180  15.914  10.745  0.2883 -0.0104 -0.1392
18842W        W37046  16.364   5.694  14.096 -0.0854  0.0770 -0.2264
18843W        W37047   2.302  11.640  12.236  0.0837  0.1879  0.1599
18844W        W37048   4.524   8.032   4.409  0.0217  0.2378  0.2942
18845W        W37049  12.851   1.134  14.332  0.0777  0.1245 -0.1301
18846W        W37050   1.668   5.090  12.030  0.3337 -0.1364 -0.0016
18847W        W37051   0.303   6.588   3.669  0.0427 -0.1452  0.2470
18848W        W37052   7.345   6.935  12.692 -0.0879  0.2469  0.0944
18849W        W37053  17.371  11.796   2.033 -0.0192 -0.3582  0.1110
18850W        W37054  17.204  15.235  11.130  0.2476  0.1499 -0.0482
18851W        W37055   2.716   8.214   9.574 -0.3482  0.0345 -0.0581
18852W        W37056   3.523   2.457  13.885 -0.2003  0.3604  0.0593
18853W        W37057  11.755  10.080   2.406  0.1954 -0.3125  0.2646
18854W        W37058   5.950  12.930  13.227  0.0380  0.0838  0.2161
18855W        W37059  16.348   1.648  14.290 -0.1734  0.0830 -0.0421
18856W        W37060   6.986   3.683  15.078 -0.0577  0.1257  0.2078
18857W        W37061  18.494  17.273   1.573  0.0299  0.0850  0.1797
18858W        W37062   0.576   3.298  13.659 -0.2380  0.0809  0.0590
18859W        W37063   7.909   3.490   0.807  0.2810  0.1859  0.1122
18860W        W37064  11.772  12.292   1.997  0.2542  0.0793 -0.0776
18861W        W37065   1.843   9.743  12.616 -0.0332  0.2566 -0.1685
18862W        W37066  14.082   5.349  11.069  0.1212 -0.3492  0.1368
18863W        W37067   8.686  13.533  14.688  0.0273 -0.0713 -0.1889
18864W        W37068  15.282  13.029   3.503 -0.0878 -0.0408 -0.1008
18865W        W37069   4.565  14.399  11.699 -0.1829  0.2543 -0.0194
18866W        W37070   1.709  12.896  11.469 -0.1307  0.1254  0.2229
18867W        W37071   5.570  12.055   0.658  0.1354  0.0464 -0.0606
18868W        W37072  18.245   0.003  11.239  0.1565 -0.4504 -0.0336
18869W        W37073   9.953   1.052   1.519  0.0710  0.0062 -0.2353
18870W        W37074  11.546   5.700  15.098  0.3030 -0.2493 -0.0772
18871W        W37075   1.420  15.737  12.314 -0.1472 -0.3930  0.0598
18872W        W37076   5.031   4.371   2.935 -0.1837 -0.1270 -0.3198
18873W        W37077  13.977   5.633  12.726 -0.0078 -0.0150 -0.2384
18874W        W37078   0.655  10.358   1.733 -0.1977  0.0534 -0.0508
18875W        W37079   6.561  11.163  12.981 -0.1489  0.0673 -0.0673
18876W        W37080   3.499   9.999   0.728  0.0588 -0.1320 -0.2690
18877W        W37081  15.724  12.566   3.242 -0.1109 -0.0543  0.3009
18878W        W37082  11.864  15.061   2.423  0.1135  0.1422 -0.0907
18879W        W37083   8.859  12.968   1.005 -0.2071  0.1014 -0.3129
18880W        W37084  12.854  15.824  14.268  0.3156  0.1384 -0.0445
18881W        W37085   4.845   2.277  13.562  0.0362  0.4562  0.2019
18882W        W37086   7.527   5.221   1.551  0.2073 -0.0202 -0.2508
18883W        W37087   1.114   0.815  12.737 -0.0624  0.0351 -0.1592
18884W        W37088   3.997   6.302   0.772 -0.2640 -0.2027  0.1447
18885W        W37089   2.541   6.189  10.678 -0.0729 -0.2397 -0.0626
18886W        W37090   2.850   9.710   3.275  0.0157 -0.0244 -0.1795
18887W        W37091   7.089   6.309  10.704 -0.0720 -0.1698 -0.0708
18888W        W37092  15.064  15.647   0.661 -0.1717 -0.6493  0.0349
18889W        W37093  15.217   9.695   4.007 -0.0396 -0.0439  0.0242
18890W        W37094  12.567   3.308  11.366 -0.2800  0.0833  0.0849
18891W        W37095  11.637  14.465  11.560 -0.1540  0.0341  0.0683
18892W        W37096  17.765   9.713   5.064 -0.0643 -0.0954 -0.0556
18893W        W37097   6.925   1.537  12.159  0.1151  0.0401 -0.1541
18894W        W37098  16.785   7.971   4.583 -0.0284  0.1786 -0.0157
18895W        W37099   5.048  14.799   4.659  0.3655 -0.0721 -0.0561
18896W        W37100   9.589   9.370  14.702  0.2593  0.0057  0.1093
18897W        W37101   3.757  11.923  15.335  0.0088  0.0657  0.4808
18898W        W37102   4.583   7.736  13.529 -0.0475 -0.0313 -0.1604
18899W        W37103  11.586   1.293  12.614  0.1356  0.1436  0.1931
18900W        W37104   4.477  15.514  11.316 -0.2641  0.0044 -0.4867
18901W        W37105   1.978   3.108   0.852 -0.0789 -0.0573  0.2221
18902W        W37106  18.293   4.045   3.863 -0.2592  0.1997 -0.0100
18903W        W37107  18.412  13.404  11.589 -0.1995  0.1537  0.0795
18904W        W37108   5.578   8.805  12.992 -0.2001 -0.1965 -0.0889
18905W        W37109   2.999  10.541  13.259  0.4278 -0.2238  0.0393
18906W        W37110   7.929   8.796  15.128 -0.1307 -0.2092 -0.1150
18907W        W37111  14.158  16.721  11.926  0.1272  0.1526 -0.2767
18908W        W37112  18.588  16.506   3.562 -0.2255  0.4379  0.1214
18909W        W37113  13.610   7.912  11.091 -0.1922  0.0688 -0.0168
18910W        W37114   6.482   9.985  11.375  0.3317  0.0444 -0.2124
18911W        W37115   2.049  11.837   2.304  0.1550  0.2043  0.1236
18912W        W37116   4.298   3.667   2.336  0.1554  0.0535  0.1678
18913W        W37117  10.313  10.568   1.995  0.2763 -0.1376  0.2710
18914W        W37118   0.536  18.572   0.098 -0.3923 -0.1498  0.1570
18915W        W37119   4.453  16.779  12.128 -0.2119 -0.1095 -0.5301
18916W        W37120  11.827   7.930  11.967  0.2219  0.1455 -0.0442
18917W        W37121  16.520   0.537   2.872  0.0565 -0.1986  0.1740
18918W        W37122  12.143   8.276   1.795  0.1108 -0.3338 -0.2883
18919W        W37123   1.942  14.013   5.133  0.0351 -0.0143 -0.1138
18920W        W37124   4.852   0.880   1.865 -0.0317 -0.1808 -0.1440
18921W        W37125   9.580   1.785  11.012  0.2910 -0.0364 -0.4319
18922W        W37126   1.359  17.978  10.785 -0.0774 -0.4185 -0.2395
18923W        W37127  10.119   8.200  11.983  0.2843  0.4883  0.2351
18924W        W37128   8.619   0.667   0.199  0.2321 -0.0831 -0.4225
18925W        W37129   9.876  15.365   1.653 -0.3638 -0.2654  0.1561
18926W        W37130   8.734  15.943  12.368 -0.1023  0.2861 -0.0776
18927W        W37131  18.510   1.997   4.212  0.1631 -0.0519  0.2782
18928W        W37132   1.811  16.105   0.598 -0.0769 -0.4528 -0.2434
18929W        W37133   4.412   5.667   0.660 -0.2611 -0.1473 -0.0602
18930W        W37134   0.118   0.369  13.270 -0.1089  0.0387 -0.1874
18931W        W37135   9.631  15.989   0.420 -0.3903  0.1734  0.2021
18932W        W37136   1.476  14.206   4.401 -0.3030  0.4462 -0.1696
18933W        W37137   7.265   2.711   0.981  0.0495  0.3259 -0.1190
18934W        W37138  12.216  13.118   2.862  0.1261  0.0053  0.1069
18935W        W37139   5.816   4.622  10.679 -0.2016 -0.2091 -0.0493
18936W        W37140  11.429   0.787  12.668  0.3317  0.2779  0.0354
18937W        W37141   1.399  10.490  11.318 -0.1331  0.0091  0.2341
18938W        W37142   6.637   1.547   2.198  0.3233 -0.0188 -0.1020
18939W        W37143   1.557   5.015   1.193  0.0461  0.2388 -0.0245
18940W        W37144   8.769  17.358  13.135 -0.0020 -0.3681  0.2850
18941W        W37145   4.220   9.034  12.020  0.2700 -0.1836  0.1057
18942W        W37146   3.563   8.916   0.965  0.0048 -0.1517 -0.2177
18943W        W37147  12.182   6.820  11.044 -0.1857  0.0445  0.0712
18944W        W37148   5.592   8.401  11.090 -0.2650  0.1899  0.1376
18945W        W37149   4.353   8.076  12.872  0.1309  0.0924 -0.0767
18946W        W37150   3.864   8.274   1.754 -0.0423  0.0169 -0.1061
18947W        W37151   5.347   4.594  10.872 -0.2751  0.0555  0.0775
18948W        W37152   3.011   1.584  10.557 -0.1423  0.2262 -0.1967
18949W        W37153   5.381  18.492  15.023 -0.2177 -0.1671  0.1164
18950W        W37154  17.070   2.668   1.020 -0.1395 -0.1049  0.1674
18951W        W37155   3.184   2.166   3.129 -0.0519 -0.1587 -0.1650
18952W        W37156  17.156   2.703  14.537 -0.0513 -0.0228  0.0677
18953W        W37157   2.803  15.891  10.882 -0.2240 -0.1790  0.1779
18954W        W37158  12.963   0.156   1.066  0.1934 -0.1479  0.2415
18955W        W37159  18.074   1.159  11.007  0.0188 -0.3898 -0.1936
18956W        W37160  14.060   4.173  14.517 -0.2596 -0.1915  0.0530
18957W        W37161  10.976  13.891   1.401  0.1973  0.2770  0.1694
18958W        W37162   7.287   0.565  11.146 -0.0975  0.6605  0.1927
18959W        W37163   2.503  11.972  12.471  0.1637  0.0829 -0.1676
18960W        W37164  11.514  10.275  14.821 -0.1651 -0.1990 -0.1596
18961W        W37165   1.175   7.549  13.955 -0.0643  0.1513  0.0234
18962W        W37166   7.041  12.780   2.515  0.0414 -0.1591 -0.1934
18963W        W37167  13.012   0.642   0.877 -0.0703 -0.3114  0.0552
18964W        W37168  17.354   6.472   4.225  0.0305 -0.0614 -0.1421
18965W        W37169   6.865  13.725   3.453  0.0946  0.1791 -0.2714
18966W        W37170   5.811   2.419  11.704  0.0295  0.2175 -0.2837
18967W        W37171  15.954  17.697  15.039  0.2364 -0.1203  0.1759
18968W        W37172  12.461  15.583  13.767 -0.1865  0.0474 -0.0467
18969W        W37173  16.523   7.717  11.969 -0.2268  0.1140 -0.1668
18970W        W37174  17.304  15.301  11.638  0.1091  0.1331  0.0461
18971W        W37175  16.975   2.376  11.680  0.1086  0.1632  0.0107
18972W        W37176   6.370  17.247   3.874  0.4649 -0.0584  0.0859
18973W        W37177  15.358  17.425   3.679 -0.0299  0.2160  0.0286
18974W        W37178  12.737  15.694   1.229  0.1852  0.0930  0.2352
18975W        W37179  15.363   3.726   0.470 -0.3833 -0.4417 -0.1901
18976W        W37180  10.426   4.715  12.253  0.4443 -0.0709  0.1545
18977W        W37181  18.001   5.528   0.562 -0.2619 -0.3348 -0.1087
18978W        W37182   6.062  10.881   0.494 -0.4129 -0.1561  0.1069
18979W        W37183   6.128   5.775   5.108 -0.0818  0.1165 -0.0845
18980W        W37184  11.985  13.310  13.214 -0.2837  0.2071 -0.1496
18981W        W37185  14.684   4.513   1.897  0.0064  0.2848  0.1884
18982W        W37186   7.735   5.939   3.556 -0.0752  0.2075 -0.1308
18983W        W37187   7.436   0.714   5.043 -0.3232 -0.1571  0.0742
18984W        W37188  13.346  11.683   2.150  0.3510 -0.2903  0.0611
18985W        W37189   3.996   1.470  13.440  0.3736  0.1306  0.1479
18986W        W37190  15.486  11.824   3.011 -0.0698 -0.0637 -0.0352
18987W        W37191  14.533  12.299   4.559  0.1380 -0.2075 -0.3343
18988W        W37192   3.269  17.981  13.981  0.1521  0.3453 -0.0800
18989W        W37193   0.305   1.506   3.473  0.0306  0.2397  0.1811
18990W        W37194   0.697   3.193  15.240  0.0623 -0.2074 -0.1723
18991W        W37195  11.294   8.348  13.049 -0.0561  0.0831 -0.0899
18992W        W37196   4.698   5.368   3.109 -0.1696 -0.1430 -0.2159
18993W        W37197   8.518   8.929  10.588  0.0151  0.2946  0.3252
18994W        W37198  16.639   9.204  12.256  0.0274 -0.1816 -0.1666
18995W        W37199   5.266  13.674  12.888 -0.1684 -0.3842  0.0855
18996W        W37200   4.168   8.651  12.849  0.0564  0.0453 -0.0335
18997W        W37201  10.422  15.209  13.777  0.2000 -0.1900 -0.0948
18998W        W37202  16.409   3.337  11.738  0.0497 -0.0885 -0.1052
18999W        W37203   5.842   1.062   4.234 -0.0909 -0.2373  0.4750
19000W        W37204   3.238  15.569   2.267  0.1158 -0.0968 -0.2039
19001W        W37205  14.279   5.797  11.280  0.0853  0.0451 -0.3793
19002W        W37206  13.768   7.203   0.857  0.1357 -0.2463 -0.0552
19003W        W37207   4.711   8.204   1.855  0.0225  0.1636 -0.0348
19004W        W37208   3.514  12.182  12.410  0.0581  0.3498 -0.0081
19005W        W37209   4.354   3.277  10.851 -0.1372  0.0729 -0.0592
19006W        W37210  15.382   6.498  13.121 -0.0415 -0.1532  0.4803
19007W        W37211   1.860   6.396  12.973  0.0733  0.4953 -0.0272
19008W        W37212   0.188  10.689   5.767  0.0358  0.1279  0.0117
19009W        W37213   7.675   5.210  12.146 -0.1141  0.0535  0.1558
19010W        W37214  11.869   5.785  12.989 -0.1100 -0.0033  0.1656
19011W        W37215   7.265  17.514   1.600  0.0765  0.0409 -0.1330
19012W        W37216   4.367   3.942   0.208 -0.0947  0.1932 -0.1659
19013W        W37217   0.985  10.178   1.262 -0.0192 -0.1109  0.1786
19014W        W37218   0.945   9.059  15.432  0.1223  0.2898  0.0214
19015W        W37219  14.804   6.380  14.698 -0.0236 -0.0866 -0.2856
19016W        W37220   8.909  14.036  11.795  0.1945  0.1758 -0.1006
19017W        W37221  16.548   4.591   3.963 -0.2407 -0.0641 -0.0389
19018W        W37222   6.144  14.826  11.696 -0.1310 -0.0949  0.1404
19019W        W37223   3.715  13.549   1.606 -0.2186  0.0171  0.2291
19020W        W37224  16.362   4.870   0.167 -0.3106 -0.1296 -0.0032
19021W        W37225  11.783   8.182  12.708  0.2186  0.0717 -0.2595
19022W        W37226  12.993   0.219  13.030 -0.0252  0.1098 -0.0503
19023W        W37227   9.572   3.924  11.532  0.1874 -0.1344 -0.1539
19024W        W37228   7.195   2.971   2.510 -0.0710 -0.0074  0.1324
19025W        W37229  12.992   5.093  13.913  0.1069  0.0948  0.0825
19026W        W37230  16.421   7.841  13.926  0.2622  0.1011  0.1945
19027W        W37231   7.940  10.078   1.133  0.3234  0.0282  0.1302
19028W        W37232   8.300   3.322   0.489 -0.4012 -0.0602  0.1764
19029W        W37233   4.099   0.830  10.639 -0.2127  0.2668 -0.1783
19030W        W37234   1.549  12.094   1.700  0.0024 -0.0825 -0.0631
19031W        W37235   6.762  11.285  11.273 -0.2884  0.0676 -0.1114
19032W        W37236   0.697  18.500  12.272 -0.1310  0.1654  0.0331
19033W        W37237   8.013  11.603   1.389 -0.0366  0.0118 -0.0916
19034W        W37238   2.755  11.907   1.046  0.0578 -0.1905 -0.3718
19035W        W37239   8.308   7.769  11.108  0.2342  0.1943 -0.0321
19036W        W37240  14.752   6.594   3.828 -0.1173 -0.1030  0.2684
19037W        W37241  10.617   9.323   1.532  0.2400 -0.2403  0.1231
19038W        W37242  12.822   5.563  15.022 -0.0079 -0.0755  0.0560
19039W        W37243   1.102   7.129   0.694  0.2601 -0.0284  0.0339
19040W        W37244  15.927  15.756   4.271  0.1016 -0.1130 -0.1322
19041W        W37245  14.866   4.938  14.303 -0.1073 -0.0340 -0.0666
19042W        W37246   0.412   0.422  12.134  0.0229  0.0740  0.1614
19043W        W37247  13.731   6.874   1.376 -0.0227  0.2311 -0.2571
19044W        W37248   4.057   0.046   3.956 -0.0704  0.0589  0.1678
19045W        W37249   6.267  17.089  11.393  0.0769  0.2000 -0.4230
19046W        W37250   2.893  18.077   2.064  0.1211  0.3126 -0.0815
19047W        W37251  15.100  11.112  13.690  0.2984  0.0503  0.0973
19048W        W37252   7.142  15.406  14.077 -0.2031  0.0117 -0.1254
19049W        W37253  16.836   9.287   0.625 -0.0873  0.1856  0.2256
19050W        W37254  17.587  16.025   1.913 -0.2790  0.0203 -0.3867
19051W        W37255   7.694  16.141   0.464 -0.2181 -0.3741  0.1657
19052W        W37256  10.999   6.435   2.580  0.4055  0.0815  0.1168
19053W        W37257   3.748  16.557  13.764 -0.0166 -0.0124 -0.0693
19054W        W37258   8.995  12.305   5.590 -0.0158 -0.0420 -0.1376
19055W        W37259   9.681   6.730   3.157 -0.0484 -0.1337 -0.1976
19056W        W37260  17.672   6.926   0.849  0.2335  0.0476 -0.0004
19057W        W37261  14.921   5.915   2.012  0.2641 -0.0997  0.0108
19058W        W37262  18.289  15.936  14.863 -0.0867  0.1316  0.0916
19059W        W37263   9.455   0.977   0.083 -0.1031  0.2067 -0.1138
19060W        W37264  14.020   0.194   3.420 -0.0227 -0.0466  0.0639
19061W        W37265  18.223   6.473  13.234 -0.1579 -0.0018 -0.3402
19062W        W37266  13.514   3.123  12.392  0.1862  0.0075 -0.0794
19063W        W37267   3.257  13.163   4.218 -0.0226  0.0685 -0.0163
19064W        W37268   1.791  18.098   3.385  0.1721 -0.1639  0.0653
19065W        W37269   5.503  14.043   1.465 -0.5501  0.0119 -0.0890
19066W        W37270   0.562  10.059  12.419 -0.3627  0.0651  0.1750
19067W        W37271   1.371   8.029   3.873 -0.0933 -0.0254 -0.2637
19068W        W37272  16.958   2.133  12.950 -0.1705 -0.1763 -0.0348
19069W        W37273   0.700  12.907  13.548  0.0035 -0.4542  0.1136
19070W        W37274   0.550  10.119   3.115  0.0461 -0.0938 -0.4210
19071W        W37275  15.960   7.149   3.043 -0.1725 -0.1847 -0.2428
19072W        W37276  11.923  15.607  11.810 -0.0545 -0.0274 -0.3185
19073W        W37277   4.825   1.606   2.546 -0.0848  0.1050 -0.0813
19074W        W37278   7.433  17.886   0.104 -0.0139 -0.1150  0.1672
19075W        W37279  15.659  15.175   3.684  0.0857 -0.4214 -0.3756
19076W        W37280  17.218   2.560   4.160 -0.3927 -0.1936  0.1054
19077W        W37281   8.271   8.942  12.290 -0.3535  0.0924  0.1970
19078W        W37282  16.481   1.927   2.312  0.0723 -0.0394 -0.1133
19079W        W37283   7.576   7.656  12.866 -0.3672 -0.1007  0.2107
19080W        W37284  15.221   5.752  11.154 -0.1201 -0.0674  0.1086
19081W        W37285   2.891   4.311  12.116 -0.0016  0.0611  0.1451
19082W        W37286   1.030  14.088   3.295 -0.3027  0.0137  0.2463
19083W        W37287  17.911  12.960  14.611  0.1345 -0.0514  0.1226
19084W        W37288  14.512   4.069  13.652 -0.1808 -0.0830 -0.0151
19085W        W37289  17.521   2.474   5.135 -0.0810 -0.1097  0.0044
19086W        W37290  15.340  11.249   3.145  0.3834  0.3140  0.1590
19087W        W37291   8.375  11.078  14.168 -0.2832 -0.0345  0.2726
19088W        W37292  12.241   9.171  11.038  0.2327 -0.0662  0.0741
19089W        W37293  14.316   8.131  14.614  0.1436 -0.0700  0.0995
19090W        W37294  14.892   6.786   0.299 -0.1373  0.0767 -0.1363
19091W        W37295  17.418   5.668   3.083  0.1173  0.1332 -0.0555
19092W        W37296   8.376   2.226   1.558 -0.2417 -0.0171 -0.0661
19093W        W37297  10.214  14.121  13.443 -0.0973 -0.1625 -0.1540
19094W        W37298   0.263   4.503  12.982 -0.1077  0.3321 -0.3939
19095W        W37299   2.229  15.186  11.488 -0.1836 -0.0998 -0.1663
19096W        W37300  17.135   5.928   2.759 -0.1423  0.1083  0.1528
19097W        W37301  11.146  11.645   1.629 -0.1122 -0.1965  0.1688
19098W        W37302   1.150   6.222  14.358 -0.1963 -0.0138 -0.1435
19099W        W37303  17.484  16.126   3.337 -0.0791  0.4010  0.0537
19100W        W37304  14.855  13.760   4.173 -0.0647 -0.0378 -0.0980
19101W        W37305  13.922   3.102  12.993 -0.3252 -0.2635  0.1120
19102W        W37306   0.982   4.433   1.296 -0.0891 -0.1957 -0.0367
19103W        W37307   2.351   1.495   4.032 -0.2242  0.0673  0.1598
19104W        W37308   3.225  10.973   2.603  0.3463  0.2246  0.4262
19105W        W37309   0.942   1.991  15.094  0.2008 -0.1213  0.1045
19106W        W37310  14.995   0.557   1.186  0.4589 -0.3936 -0.0179
19107W        W37311   7.603   2.676   1.512  0.4380 -0.2141  0.0428
19108W        W37312   9.772  15.865  12.061  0.0536 -0.5102  0.1658
19109W        W37313  13.317   6.208   5.038 -0.2725  0.2102 -0.0179
19110W        W37314  17.930  14.669   3.629 -0.4009  0.1603 -0.0493
19111W        W37315  18.034  16.083  14.086  0.0656 -0.0637 -0.0700
19112W        W37316  16.504  17.938   4.270 -0.1125  0.1341  0.0802
19113W        W37317   7.621   8.755  11.799 -0.0428  0.3122  0.1808
19114W        W37318   2.206   7.825   3.553  0.0339 -0.1504 -0.0660
19115W        W37319  16.640  13.310   2.721  0.0360  0.2683  0.0771
19116W        W37320  18.021   5.432  13.280 -0.0642 -0.0072  0.2879
19117W        W37321  11.914   2.920   1.710  0.3110 -0.1117 -0.3725
19118W        W37322  17.205  14.017   4.426  0.1662 -0.2165  0.0790
19119W        W37323   2.511   2.144  12.238 -0.0854  0.2403 -0.0847
19120W        W37324   2.495  14.393   1.208 -0.1568  0.0432  0.0067
19121W        W37325  18.521   0.407   0.664 -0.0747  0.0301  0.1262
19122W        W37326  13.174  12.830   3.849  0.3082  0.1390  0.2138
19123W        W37327  13.776   4.365   1.245 -0.0232  0.1439 -0.2145
19124W        W37328   2.580   0.843   3.351  0.2844  0.0246 -0.1595
19125W        W37329  14.424   8.738   0.263 -0.0588  0.1961  0.2568
19126W        W37330   4.799   4.678  10.989  0.0815  0.0196  0.0788
19127W        W37331   1.432  13.685   4.281 -0.0058 -0.4427 -0.2541
19128W        W37332   2.071   6.400  15.284 -0.0644 -0.4610 -0.1034
19129W        W37333   2.211  10.359  14.906 -0.1292  0.2732  0.1544
19130W        W37334  18.573  17.400   4.138 -0.0018  0.1985 -0.1956
19131W        W37335   7.817  12.402   2.934  0.0623 -0.0977  0.2489
19132W        W37336  12.518  11.701   2.018 -0.0414 -0.0146  0.1008
19133W        W37337   6.442  16.367  14.288  0.4446  0.0873  0.1689
19134W        W37338  10.556  14.779   6.039  0.3741 -0.3064  0.0250
19135W        W37339  11.776   7.557  14.430 -0.0860 -0.0916 -0.1098
19136W        W37340   3.884   6.338  15.160  0.1863 -0.4448 -0.1369
19137W        W37341  10.862  18.447   3.671  0.0437  0.1240 -0.0949
19138W        W37342   7.674   0.451   0.124 -0.3789  0.0215 -0.1652
19139W        W37343  10.852  15.453  11.329 -0.1541 -0.1005  0.0252
19140W        W37344  13.749   9.541  12.109  0.2007  0.1130 -0.0809
19141W        W37345   2.779   1.582   2.164  0.2100  0.1971  0.4378
19142W        W37346  10.288  14.983   4.710 -0.1100 -0.2278  0.2642
19143W        W37347   8.112   8.851   4.427 -0.0862  0.0445  0.2350
19144W        W37348  15.662   2.923  11.455 -0.4665 -0.2573  0.1513
19145W        W37349   1.776  13.798   3.254  0.2604  0.0641 -0.0772
19146W        W37350  14.326  11.137   2.322 -0.0167 -0.0220  0.0161
19147W        W37351  12.985  18.118   2.810 -0.0259  0.3574  0.1833
19148W        W37352   0.177   9.048  12.669  0.0182  0.1122 -0.1237
19149W        W37353  11.943  11.251   4.107  0.1488  0.2079  0.0880
19150W        W37354   8.296  17.377   1.516  0.0638  0.1615 -0.3163
19151W        W37355   3.577   2.532  14.963  0.2045 -0.1381  0.0437
19152W        W37356   7.150   4.851   3.826  0.0120  0.2650 -0.3810
19153W        W37357  17.056  14.423  12.175 -0.1776  0.3303 -0.0164
19154W        W37358  17.436   0.684  11.541 -0.2181  0.1580  0.2522
19155W        W37359   1.855   3.474   2.138  0.2777  0.0528 -0.1135
19156W        W37360   3.655   9.388   1.061 -0.2082 -0.3739 -0.1442
19157W        W37361  17.268   7.226   2.333  0.0553 -0.1768  0.1710
19158W        W37362  16.021   6.689  11.281  0.0019  0.0541  0.0834
19159W        W37363   6.849  14.975   1.622 -0.0007  0.1629 -0.1043
19160W        W37364   5.984  15.769  13.317  0.2028 -0.0330  0.1092
19161W        W37365   1.679   8.395   4.697 -0.2257 -0.2456 -0.2230
19162W        W37366  11.047   9.489   1.367  0.2808  0.0912 -0.4185
19163W        W37367  15.862  11.326   3.497  0.1401  0.0615 -0.0105
19164W        W37368   3.246  15.642  11.106  0.1350  0.1007 -0.1151
19165W        W37369   6.192   9.868  13.517  0.0205  0.1990 -0.0975
19166W        W37370  15.310   3.726   3.247 -0.0020  0.3168 -0.1627
19167W        W37371  11.977   6.241   0.961 -0.0963  0.0879  0.1980
19168W        W37372  13.611  13.063   0.263 -0.0279 -0.1158  0.1929
19169W        W37373  16.145  18.275   4.031 -0.0289  0.0832 -0.2504
19170W        W37374   1.936   1.242  12.157 -0.5064  0.1122  0.3650
19171W        W37375   7.580  17.507  12.529  0.0076 -0.0203  0.0252
19172W        W37376   8.954   2.630   1.032 -0.1103 -0.0259 -0.1793
19173W        W37377   4.355  11.698   9.986 -0.0187  0.0821 -0.0362
19174W        W37378  13.557  14.851   3.549  0.1060  0.0950  0.0279
19175W        W37379   4.323   6.450   1.851  0.1796  0.1169 -0.3244
19176W        W37380   1.974   1.744  14.922 -0.0287  0.1373  0.1057
19177W        W37381   1.765   6.736   2.496  0.1914 -0.1143  0.1185
19178W        W37382  14.883  15.016  11.820  0.0329  0.2921 -0.1548
19179W        W37383   5.654   9.601   3.602 -0.0721  0.0399  0.0359
19180W        W37384  15.505   6.275   1.436 -0.1003 -0.1481  0.1837
19181W        W37385   3.266  17.263  10.850 -0.1461  0.0804  0.1245
19182W        W37386  10.975   1.005   0.725 -0.1008  0.1780 -0.0379
19183W        W37387   3.308   4.088  12.296  0.0978  0.0191 -0.3458
19184W        W37388  12.910   8.672   2.854 -0.1397 -0.0208  0.0834
19185W        W37389   0.714   3.288   2.928  0.0376  0.0266  0.2045
19186W        W37390  12.643  10.549  10.854  0.1005 -0.2002 -0.0364
19187W        W37391  18.107   1.050  12.292  0.2145  0.0296 -0.0789
19188W        W37392   7.534   4.060   2.134  0.0077 -0.1664  0.1009
19189W        W37393   7.685   1.051  12.819  0.2406  0.1610  0.0685
19190W        W37394  11.098   0.119   3.324  0.2846 -0.3033 -0.1590
19191W        W37395  17.639   7.475   1.649  0.1314  0.0376 -0.1885
19192W        W37396   0.445   1.376  12.167  0.2838 -0.4274  0.0234
19193W        W37397   5.103   8.047   3.186  0.0453  0.1021 -0.1212
19194W        W37398   0.843  15.642   3.909  0.2862  0.0307 -0.0908
19195W        W37399   7.942   3.533  11.596  0.2411 -0.2787  0.0730
19196W        W37400   2.085   5.102   3.488 -0.1824 -0.0916 -0.0833
19197W        W37401  18.184  15.847  13.662  0.0642 -0.0182  0.2148
19198W        W37402  15.773  12.660  14.664  0.1000  0.0924  0.0944
19199W        W37403   1.196  16.917   3.364 -0.0243  0.1325 -0.1689
19200W        W37404  18.130  11.939   2.835  0.0816  0.1321  0.4569
19201W        W37405  13.142   9.311  12.778  0.4046  0.1015  0.1183
19202W        W37406   8.178   0.053   2.185  0.1432  0.1396 -0.0107
19203W        W37407   2.760  11.495   4.510  0.0827  0.0445  0.3097
19204W        W37408  17.291   9.478   2.652  0.0353 -0.1188  0.0608
19205W        W37409   4.762  14.068   3.860 -0.0795 -0.0126  0.1771
19206W        W37410  17.125  15.314  13.937  0.0649  0.2306 -0.1251
19207W        W37411  13.773  14.360   1.723  0.1094 -0.0945 -0.1655
19208W        W37412   9.038  14.647  13.866  0.4158 -0.0102 -0.0307
19209W        W37413  11.421  15.536   4.242  0.0126 -0.1275  0.1139
19210W        W37414   2.034   8.082   0.541  0.0513  0.1539  0.2519
19211W        W37415   5.486  17.422   3.823  0.2668 -0.0789  0.2502
19212W        W37416   6.414   1.036   0.549 -0.1760  0.3169 -0.0783
19213W        W37417   8.164   5.368  11.226 -0.5641 -0.0631  0.2909
19214W        W37418   9.925   2.482   0.791 -0.0049  0.1547 -0.0293
19215W        W37419   4.330  16.215   4.763  0.3408 -0.1972 -0.1315
19216W        W37420  11.941  16.090   2.778 -0.1673  0.1020  0.0179
19217W        W37421   4.659  12.149  13.328  0.0993  0.2088 -0.3248
19218W        W37422  12.016  12.483  11.544 -0.0034  0.0133  0.1055
19219W        W37423  14.331  13.382   0.759  0.2713  0.0669  0.2542
19220W        W37424   0.555  14.267   0.479 -0.1969 -0.2368 -0.0451
19221W        W37425  14.237  13.337   1.713  0.2009  0.2436  0.0451
19222W        W37426  11.208   8.583  11.352  0.2336  0.0772  0.1475
19223W        W37427  15.955   1.252   2.883 -0.3755 -0.0987  0.2300
19224W        W37428   4.351   6.384   1.311  0.1316 -0.0605 -0.0308
19225W        W37429  16.850  12.482   3.028  0.1801  0.0480  0.1881
19226W        W37430  16.421   8.901   2.962 -0.0554  0.2718 -0.1422
19227W        W37431   0.942   3.749   3.188 -0.1861 -0.3489  0.3505
19228W        W37432   8.042  14.000   5.952  0.2483  0.1006 -0.0302
19229W        W37433  16.793  18.472  14.529 -0.2405 -0.2278 -0.1555
19230W        W37434  17.280   1.963  12.602  0.1706 -0.0973 -0.1068
19231W        W37435   5.020   0.063   4.362  0.3249 -0.1514  0.2974
19232W        W37436   6.036  15.123  10.673  0.2188  0.1646 -0.0706
19233W        W37437   5.961   1.786   0.147  0.0651  0.0612 -0.1666
19234W        W37438   6.972  10.334   2.947  0.2905  0.0098 -0.1420
19235W        W37439   3.072   6.296  13.616 -0.0677 -0.1886  0.3025
19236W        W37440   6.358   1.605  14.104 -0.2474 -0.1513 -0.1707
19237W        W37441  13.984   7.487  12.087 -0.1693  0.2123  0.1433
19238W        W37442   5.390   0.806  13.679 -0.0504 -0.0424  0.0556
19239W        W37443   0.645  16.203  12.148 -0.0854  0.0866  0.3175
19240W        W37444  16.853  11.979   2.047  0.1430 -0.0722 -0.0615
19241W        W37445   8.425  14.141  12.921  0.0483  0.1044 -0.1065
19242W        W37446   8.473  18.161  13.661 -0.1711  0.0792  0.1307
19243W        W37447  14.019   0.228  11.420  0.0637 -0.1679 -0.1290
19244W        W37448  10.350   6.419  13.835 -0.0767 -0.1061 -0.5414
19245W        W37449   4.899   6.015  11.330  0.0564 -0.0204 -0.0365
19246W        W37450   7.722   0.970   0.012  0.0643 -0.1911  0.1266
19247W        W37451   8.335  17.520   1.024  0.1529 -0.2475 -0.0839
19248W        W37452   4.084   3.049  12.383  0.2035  0.1367  0.1940
19249W        W37453  16.752  10.217   0.462  0.1766  0.0546  0.3001
19250W        W37454  10.485   9.217  13.648  0.1872  0.3170  0.1527
19251W        W37455   0.775   7.539  15.228  0.0359 -0.0088 -0.1198
19252W        W37456   8.506   9.461  12.335  0.0553  0.5346 -0.1020
19253W        W37457  16.892   9.240   2.408  0.3013  0.2625 -0.0787
19254W        W37458   9.958   6.323   2.994 -0.4358 -0.2327 -0.1953
19255W        W37459  17.891   2.243  14.494 -0.2420 -0.4041  0.0955
19256W        W37460  10.371   2.250  10.938  0.1127  0.2032  0.1189
19257W        W37461   4.411   9.029   0.159 -0.2229 -0.0523 -0.1259
19258W        W37462   9.008  12.740  11.693  0.1747 -0.0241  0.4197
19259W        W37463  16.327   2.125   0.543 -0.1985  0.0147 -0.0195
19260W        W37464   0.523  10.218   2.233  0.0010  0.1054 -0.1540
19261W        W37465  15.034   3.141  10.926 -0.2216 -0.2813  0.7107
19262W        W37466   9.309   6.298   4.007 -0.0366  0.0432 -0.2092
19263W        W37467   8.286   7.582   2.938 -0.0884 -0.3363  0.0474
19264W        W37468   6.971   7.457  14.266  0.1315 -0.3627 -0.1657
19265W        W37469  14.808   8.107  14.675 -0.3449  0.2015 -0.2739
19266W        W37470   2.750  16.099   0.568  0.0916  0.0899  0.1123
19267W        W37471  15.004   5.782  14.672  0.0329  0.1735  0.3794
19268W        W37472   1.414   8.913   3.984 -0.0911  0.2656  0.0901
19269W        W37473  12.689   3.409   3.084  0.1515 -0.2728  0.1558
19270W        W37474  16.271  15.948   3.998 -0.0900  0.2491  0.2363
19271W        W37475  14.242   3.846  12.404 -0.2905  0.3826  0.0068
19272W        W37476   8.342   4.408   2.818 -0.0539 -0.0285  0.1566
19273W        W37477   8.045   5.037   2.893 -0.0546  0.0448  0.1751
19274W        W37478  10.114   6.377  15.288  0.1677 -0.0797  0.0362
19275W        W37479  13.558  17.954   4.578  0.2287 -0.3912 -0.0893
19276W        W37480  16.849  15.328  13.539 -0.4136 -0.2789 -0.0759
19277W        W37481  13.699  13.067  13.350  0.0993  0.0368  0.0362
19278W        W37482   0.773   5.922  14.189 -0.2712  0.0887 -0.0605
19279W        W37483   3.278   7.708  11.409 -0.0236 -0.0504 -0.2331
19280W        W37484  17.312  16.273  14.739  0.3179 -0.2174  0.0890
19281W        W37485  14.636   3.706  13.325 -0.0383 -0.1431  0.0018
19282W        W37486   7.643  18.393  11.543  0.0991  0.2953 -0.3336
19283W        W37487  14.604   2.143  13.540 -0.1032  0.0124 -0.0368
19284W        W37488   6.719   3.384   1.243 -0.0715  0.0518  0.1028
19285W        W37489  12.045  14.900  15.032  0.3891 -0.0918  0.0614
19286W        W37490  11.848  11.095  13.124 -0.0429  0.1415 -0.3210
19287W        W37491  15.485  12.776  10.961  0.1567  0.0940  0.0428
19288W        W37492  16.261  16.739   0.313  0.1331 -0.1506 -0.0702
19289W        W37493   8.109  12.119   0.231  0.1961  0.1679 -0.3881
19290W        W37494   4.415   8.103  11.992  0.2176 -0.0152 -0.2884
19291W        W37495  15.264   2.020   1.339  0.1764  0.1493 -0.0417
19292W        W37496  14.548  13.968  10.194 -0.1429 -0.0449  0.0177
19293W        W37497   4.537  14.512   1.772  0.0070 -0.1483  0.0698
19294W        W37498   3.354  16.663   0.908  0.1493  0.2484 -0.0990
19295W        W37499   8.234   8.109  12.622  0.1038 -0.1470  0.1010
19296W        W37500  14.652  11.547  12.944  0.1604 -0.1672 -0.2091
19297W        W37501   1.519  13.017   3.064  0.2937 -0.2248  0.2513
19298W        W37502  15.773  16.779  11.872 -0.0581 -0.0522 -0.0544
19299W        W37503  10.101  12.355  13.215  0.1202  0.0116  0.2862
19300W        W37504   6.480  13.565   1.726 -0.3331 -0.0872 -0.2869
19301W        W37505   5.418  10.106   2.496 -0.0362  0.0756 -0.0506
19302W        W37506  17.687  12.788   4.959  0.3422 -0.0156 -0.1447
19303W        W37507  11.607  14.505   0.445 -0.0240  0.0026  0.1095
19304W        W37508   6.459   8.539  10.972  0.1000 -0.0988 -0.0495
19305W        W37509  11.308   3.232  13.383  0.0102  0.3262  0.2364
19306W        W37510   1.900   7.753  12.100  0.0535 -0.0179 -0.0351
19307W        W37511   9.015   6.057   4.365  0.4593  0.2641  0.1128
19308W        W37512  13.597  15.150  14.445 -0.0263 -0.0859 -0.1297
19309W        W37513   7.460  13.506  12.956 -0.0983  0.1305 -0.2363
19310W        W37514  14.165   3.025  13.527  0.1532  0.1577 -0.1060
19311W        W37515   3.087  17.841   1.662 -0.2100 -0.0415  0.0541
19312W        W37516  15.472  11.852  14.055  0.0383 -0.1015 -0.2728
19313W        W37517  15.779   7.212  14.306 -0.0750  0.3501 -0.0771
19314W        W37518  18.089   1.152  14.042  0.0652  0.1024 -0.2442
19315W        W37519   3.431   4.312   4.281  0.0057  0.2670  0.1062
19316W        W37520  17.263  14.770  13.894  0.0852 -0.0406 -0.1174
19317W        W37521   2.690   6.651   2.716 -0.3818  0.0538 -0.0408
19318W        W37522  15.035   1.609   1.568  0.0483 -0.1644 -0.1242
19319W        W37523   4.980  14.008   2.957 -0.2580 -0.0870  0.2653
19320W        W37524  13.855  16.492   1.220 -0.0955 -0.1963  0.2879
19321W        W37525  10.889   5.757  12.005 -0.1422 -0.0021 -0.1868
19322W        W37526   8.764   9.538   0.621  0.0386 -0.0421  0.3273
19323W        W37527   8.170  12.421  11.258  0.1740 -0.0878  0.0743
19324W        W37528  16.643  17.782   1.685  0.0578  0.0837  0.3331
19325W        W37529   3.894  12.457  12.541  0.0040  0.6117 -0.0847
19326W        W37530  17.231  17.786  14.220  0.0961  0.0216 -0.1380
19327W        W37531   0.658   5.702  13.712  0.1258  0.1557 -0.1867
19328W        W37532   5.158  18.180   3.407 -0.0588  0.0755  0.0008
19329W        W37533   5.024  15.070  15.288 -0.0383  0.0140 -0.3991
19330W        W37534  18.234  12.464  13.931  0.0786 -0.1197  0.0611
19331W        W37535   2.438   2.443  11.678  0.0887 -0.0589 -0.1116
19332W        W37536  13.692  15.104   1.246 -0.0833 -0.0301  0.1038
19333W        W37537   0.339   2.378   2.658  0.1439  0.2925  0.2845
19334W        W37538  17.790   4.680  14.232 -0.1796  0.2896 -0.0745
19335W        W37539   9.476   5.274   3.954 -0.1498 -0.1016 -0.1000
19336W        W37540   3.493  12.588   1.510  0.1364 -0.0184 -0.0526
19337W        W37541   4.603   6.415   4.293  0.0854 -0.1515 -0.3054
19338W        W37542  17.737  11.220  14.334  0.3095  0.2150 -0.1746
19339W        W37543  15.594  16.691  13.073 -0.4017  0.0875  0.2447
19340W        W37544  14.980   2.703   4.517  0.1579 -0.2452 -0.1081
19341W        W37545  15.242   1.343  13.617  0.0485  0.0989  0.0558
19342W        W37546   7.205   3.939   4.370 -0.3503  0.1609  0.0088
19343W        W37547  10.497   4.043   1.003 -0.1321  0.2163 -0.0344
19344W        W37548   5.877  15.103  12.552  0.1381 -0.0601 -0.0961
19345W        W37549   3.690   1.390   1.355 -0.1760 -0.3028 -0.1192
19346W        W37550  14.857   3.617  14.901  0.1880  0.2598  0.2885
19347W        W37551  12.513   6.313   0.866  0.0805 -0.2126  0.1175
19348W        W37552   5.363  15.933   1.004 -0.1572 -0.0527  0.0418
19349W        W37553  17.714   7.976   4.401  0.3472  0.0864 -0.1541
19350W        W37554  11.664   6.792  10.934  0.3578  0.1874  0.0177
19351W        W37555  17.236   5.564   4.487 -0.0397 -0.0701 -0.1299
19352W        W37556   9.070  17.200  14.860  0.1138 -0.2517  0.2897
19353W        W37557   8.988   7.495  15.224 -0.0108 -0.0759  0.1263
19354W        W37558   8.124  13.524   3.871 -0.2035 -0.2607 -0.1095
19355W        W37559  12.242   3.067  14.664 -0.0749 -0.2527 -0.0569
19356W        W37560   6.113  15.170   4.674  0.1793 -0.0287  0.1801
19357W        W37561   9.162  13.510  12.657  0.1765  0.3450  0.0094
19358W        W37562   3.482  17.588   3.193  0.1173 -0.3552  0.0123
19359W        W37563   7.850  13.699   0.755  0.1762 -0.2284 -0.0989
19360W        W37564  13.888   3.097   1.912  0.2378  0.0138  0.0255
19361W        W37565  18.142   1.484   2.179  0.0004  0.0078 -0.3239
19362W        W37566  11.770   3.047  12.751 -0.2373 -0.0962 -0.3053
19363W        W37567   4.683   6.668  14.775 -0.2193 -0.0362 -0.0132
19364W        W37568   7.477  16.026   2.068  0.0963 -0.1307 -0.3134
19365W        W37569   9.896  14.080   2.519 -0.1425 -0.0284 -0.0260
19366W        W37570   6.081   4.304   4.957 -0.3283 -0.1718 -0.3834
19367W        W37571  11.427  10.390  14.293 -0.2748  0.2164 -0.3538
19368W        W37572  11.691   8.143   1.326 -0.1881  0.0536 -0.0677
19369W        W37573  16.385  11.939   1.402 -0.1592 -0.2184  0.3276
19370W        W37574   8.722   9.867   3.276  0.3780 -0.0228 -0.1120
19371W        W37575  12.262  17.509   2.184  0.1196  0.0461 -0.1100
19372W        W37576  12.494  15.249  12.366 -0.1432 -0.1286 -0.1575
19373W        W37577   6.147   8.419   2.661 -0.0096 -0.0149  0.1369
19374W        W37578   6.461   9.110  12.384 -0.0548 -0.2267 -0.3066
19375W        W37579  14.513   6.571  12.895  0.0675 -0.2927  0.0654
19376W        W37580   3.004   7.218   1.161 -0.1091  0.0971  0.1360
19377W        W37581  12.845   7.871  11.370  0.0402  0.0910 -0.2929
19378W        W37582  15.961   3.649  12.058 -0.0330 -0.4420 -0.0781
19379W        W37583   8.731  17.786   4.408  0.1082 -0.0291 -0.0499
19380W        W37584  18.564   4.429   1.047 -0.0383  0.0503 -0.1218
19381W        W37585  17.136  16.212  12.654  0.0410 -0.2357  0.1404
19382W        W37586  17.776  14.167   3.813  0.0211 -0.0868  0.0242
19383W        W37587   0.352   7.048  11.725 -0.0113 -0.3025  0.1769
19384W        W37588  14.907  18.427   2.216  0.0276 -0.0979  0.3360
19385W        W37589   5.521  13.119  13.008 -0.0531 -0.0307 -0.0045
19386W        W37590   5.536  11.277   1.835 -0.0901 -0.0046  0.0494
19387W        W37591   2.152  14.295  14.520 -0.0273 -0.3520  0.1128
19388W        W37592   7.747  15.276   2.249 -0.1993 -0.0915  0.0391
19389W        W37593  15.764   8.447   1.720 -0.2332  0.0757  0.1611
19390W        W37594   1.687   4.237   2.315  0.2541 -0.1972 -0.1638
19391W        W37595  16.691   7.688  13.026  0.1832  0.0887 -0.0694
19392W        W37596   9.688  14.505   2.769 -0.0278 -0.1882 -0.2544
19393W        W37597   5.621  18.400   3.610  0.2345  0.2248 -0.0793
19394W        W37598  11.547  15.803   0.023 -0.2438 -0.0836 -0.2845
19395W        W37599  14.476   4.510  14.570 -0.2323 -0.1419 -0.2455
19396W        W37600   1.921   5.646  10.949  0.0441 -0.0928  0.1196
19397W        W37601   9.174   7.286   4.745 -0.1524  0.0382 -0.1431
19398W        W37602  17.138   0.668  14.596  0.1690  0.3373  0.3544
19399W        W37603   4.792  13.793   4.662 -0.0860  0.0948 -0.1877
19400W        W37604   0.117  16.033  12.842  0.0660 -0.0515  0.0318
19401W        W37605   6.331   3.248  13.293  0.1424  0.3261 -0.1720
19402W        W37606  10.367  15.288   5.221 -0.1390 -0.2079  0.2719
19403W        W37607   1.772  13.085   0.779 -0.0866  0.2962  0.0830
19404W        W37608   4.200   6.792   2.613 -0.0943  0.0731  0.0315
19405W        W37609  17.885  16.403  13.219 -0.1965  0.0423 -0.0816
19406W        W37610  12.214  14.889   3.238  0.0850 -0.0794 -0.3421
19407W        W37611   1.688  14.700  15.276 -0.0447 -0.1019  0.2955
19408W        W37612  11.073  13.721  10.594 -0.2188 -0.2225  0.0478
19409W        W37613  15.898  12.142   5.485 -0.0343 -0.1069 -0.2301
19410W        W37614   5.234   6.357  13.801  0.1816 -0.2066  0.1644
19411W        W37615   1.786  12.872  12.037 -0.0224 -0.2966 -0.3553
19412W        W37616  10.153   9.858   1.315 -0.0661 -0.0667 -0.1774
19413W        W37617  14.314   2.327   0.171 -0.1113  0.1089  0.3366
19414W        W37618  10.543  15.088  11.096 -0.2782  0.1251 -0.2807
19415W        W37619  16.642   2.934   0.910  0.0851  0.1742 -0.3980
19416W        W37620  17.972   3.521  12.207 -0.0845 -0.2388 -0.1422
19417W        W37621  13.309   6.866  11.228  0.2424 -0.1903 -0.0166
19418W        W37622   3.805   7.421  13.117 -0.0042  0.1836 -0.1179
19419W        W37623  11.713   3.764   0.295 -0.1020  0.2936 -0.2020
19420W        W37624   7.708   3.301   0.353 -0.1179  0.1710  0.0623
19421W        W37625   2.997  13.248  14.470  0.2629 -0.0501 -0.1918
19422W        W37626   6.499   7.389  12.211  0.0568  0.0109  0.2148
19423W        W37627   4.719  17.607   2.325  0.1221 -0.1407  0.1097
19424W        W37628  18.081   7.364   2.907 -0.2125 -0.0812  0.3755
19425W        W37629  15.120   3.761  12.976 -0.0127 -0.0205  0.3101
19426W        W37630  16.304  17.833  14.203  0.2871  0.0578 -0.1351
19427W        W37631   7.178  13.681   0.555 -0.0905 -0.0966  0.0136
19428W        W37632   8.855  17.722  14.352 -0.2312  0.0214 -0.1289
19429W        W37633   9.555   3.312  12.715 -0.0398  0.1735 -0.3064
19430W        W37634   5.208   7.914  11.686  0.1758  0.0873  0.3624
19431W        W37635   4.422  13.329   1.115 -0.1517 -0.0468  0.1957
19432W        W37636  11.374   2.923  11.521 -0.0041 -0.0672 -0.0676
19433W        W37637  15.509   6.253   4.530 -0.1115  0.1956  0.2671
19434W        W37638  13.229   6.066  11.724 -0.0985 -0.1861  0.0770
19435W        W37639  10.429   8.387   2.005  0.0589  0.1410  0.1762
19436W        W37640   8.714   8.794  12.162 -0.1422 -0.0949 -0.1763
19437W        W37641  12.437  16.223  12.093  0.0361  0.2534 -0.6991
19438W        W37642  17.183   2.319   1.838  0.3383  0.0380  0.0759
19439W        W37643   0.136  12.585   4.235 -0.3779 -0.1140  0.0079
19440W        W37644   4.752  12.677  12.650  0.3417  0.0962 -0.0260
19441W        W37645  14.085   0.538  15.233 -0.1484  0.1345 -0.0325
19442W        W37646   3.940  10.540  13.766 -0.1318 -0.1049  0.1153
19443W        W37647   6.208   7.161  13.726 -0.0159  0.1388 -0.0488
19444W        W37648  10.002  10.459   3.815  0.0367  0.2442 -0.1256
19445W        W37649   6.803   8.871   1.323  0.1950  0.1774  0.1677
19446W        W37650   7.103   4.282   2.471  0.1191 -0.3070 -0.2824
19447W        W37651  16.274   0.342   0.129  0.0775 -0.1044 -0.0867
19448W        W37652  17.055   6.784   3.895 -0.0662 -0.0658 -0.2585
19449W        W37653  12.276  17.092  14.610 -0.0745 -0.3137  0.0383
19450W        W37654   2.714  11.941  12.951 -0.0993 -0.4230  0.1189
19451W        W37655   1.844   5.955  14.537 -0.2059  0.4298  0.1943
19452W        W37656  11.764  12.048   0.158  0.1569  0.0121  0.0136
19453W        W37657  18.070   4.208  10.461  0.0980 -0.1054 -0.1524
19454W        W37658   9.929   8.051  11.267  0.1250  0.0059  0.2915
19455W        W37659  15.619   9.110   1.947  0.0610  0.1742 -0.4020
19456W        W37660  16.588   3.481  10.237  0.2960 -0.1395 -0.0852
19457W        W37661   7.541  14.876  13.545 -0.2727  0.0698  0.3880
19458W        W37662   0.894  15.424  11.618  0.0201 -0.2177 -0.4429
19459W        W37663  13.309  14.693   2.396  0.3088 -0.2122 -0.1184
19460W        W37664  10.601   6.938   2.873  0.4546 -0.1125 -0.0175
19461W        W37665   0.593   4.560  12.069  0.0619 -0.5442  0.2838
19462W        W37666   2.466   0.965   1.544  0.1290  0.0450 -0.1289
19463W        W37667   5.188   0.065  13.067  0.0660  0.0479 -0.2197
19464W        W37668  11.453   6.113  11.900  0.3097 -0.2657 -0.0732
19465W        W37669   0.757  16.427  15.242  0.3495  0.0759 -0.0057
19466W        W37670   4.708  11.846   2.156  0.0270 -0.0461 -0.2491
19467W        W37671  10.173  14.414   9.906 -0.3946  0.3835  0.1152
19468W        W37672   8.636  15.412   2.384  0.0576 -0.0659 -0.0432
19469W        W37673  18.493  18.228  14.083  0.0759 -0.0712  0.2116
19470W        W37674  15.852  17.173  13.183 -0.2360 -0.1174 -0.0014
19471W        W37675   2.931  14.515   0.215  0.1313  0.1516 -0.2967
19472W        W37676  14.618  17.738  11.565 -0.3777  0.0187 -0.4119
19473W        W37677  16.570  17.794  11.713 -0.1704 -0.4355 -0.0250
19474W        W37678  10.474   3.447  11.459  0.1038 -0.1215 -0.1307
19475W        W37679   4.666  17.256   1.733  0.1242  0.0987 -0.0557
19476W        W37680   7.147  10.519   2.477  0.1933 -0.3537  0.0595
19477W        W37681   3.484   1.503   0.248 -0.1600  0.4878  0.2398
19478W        W37682   8.484  10.513   2.021  0.0085  0.0854 -0.1433
19479W        W37683   7.421   5.854  14.939 -0.0253 -0.2680 -0.1047
19480W        W37684   0.672  11.270  11.799 -0.1879  0.3445  0.0884
19481W        W37685  15.461   7.852   3.076  0.0462  0.0163 -0.0287
19482W        W37686   1.852   8.519  12.182  0.0643 -0.1833 -0.1555
19483W        W37687  13.645  17.849  11.450  0.0150 -0.1260 -0.1727
19484W        W37688  12.777   9.397  14.670  0.1521 -0.1625  0.0987
19485W        W37689  12.824   9.964  12.477 -0.3145  0.1120  0.0279
19486W        W37690   5.260   4.351  15.272  0.0556 -0.0599 -0.2249
19487W        W37691   3.688   8.918  14.427  0.1259  0.0428 -0.0677
19488W        W37692  17.880   2.840   0.557 -0.1657 -0.0917  0.0096
19489W        W37693   7.244  10.484  10.797 -0.2022 -0.1275 -0.2843
19490W        W37694   6.248   6.711   1.512 -0.1086  0.2495 -0.2662
19491W        W37695   9.380  17.948   1.979 -0.0120 -0.0577 -0.1311
19492W        W37696  11.505  12.043   4.476 -0.2306  0.0336  0.1464
19493W        W37697   3.538  14.508   3.533 -0.0698 -0.0486 -0.1180
19494W        W37698   8.390  14.305  12.454 -0.0684  0.0727  0.2358
19495W        W37699   2.917   5.751  14.608 -0.1881 -0.0868 -0.0320
19496W        W37700  17.312  16.953   4.061 -0.1785  0.1570 -0.0071
19497W        W37701  13.437   3.636  10.850 -0.2777 -0.1129  0.1413
19498W        W37702   3.901  10.568   3.932 -0.1665  0.1129  0.1719
19499W        W37703   3.695  15.244   4.804  0.0637  0.1832 -0.1740
19500W        W37704   0.315  11.298   3.664 -0.1393 -0.4420 -0.3235
19501W        W37705   5.249  10.382   2.138  0.1069  0.1078 -0.0777
19502W        W37706  16.409   1.384  12.965 -0.2214 -0.2403 -0.0527
19503W        W37707  17.491   1.817  13.544 -0.1169  0.0548 -0.0372
19504W        W37708   9.297  12.997   2.177 -0.1841  0.2746  0.0779
19505W        W37709   8.008   3.238   3.876 -0.2038  0.0210  0.0205
19506W        W37710  14.244   9.013   2.527  0.2943  0.0168 -0.1819
19507W        W37711   7.448   5.824  13.176 -0.2220  0.1903 -0.0869
19508W        W37712   7.815   8.396  14.772  0.0885  0.1250 -0.0333
19509W        W37713  10.944   9.803   0.809  0.3450 -0.0225  0.1467
19510W        W37714  17.067  17.262   4.388 -0.3400 -0.0253  0.0654
19511W        W37715  14.111  14.722  12.981  0.1958 -0.1527  0.2930
19512W        W37716  18.340  12.485   2.922  0.0361 -0.0391  0.0182
19513W        W37717   6.897  16.507   1.731 -0.3285  0.0549 -0.0383
19514W        W37718   1.729  18.095  10.472 -0.2282 -0.2767  0.1285
19515W        W37719   1.615  10.931  13.857  0.1575 -0.1790 -0.2663
19516W        W37720  16.911  16.847  12.934 -0.1683  0.1060  0.0598
19517W        W37721  14.178   1.064   1.639 -0.1033 -0.0486 -0.3811
19518W        W37722  16.636   6.646   1.754 -0.1456  0.2280 -0.0921
19519W        W37723   1.379   2.980  12.606 -0.0010  0.0628  0.0558
19520W        W37724  13.009   3.443  14.851  0.2233 -0.0139 -0.2643
19521W        W37725  13.289   3.510   5.005 -0.0919 -0.0825  0.3030
19522W        W37726   8.111  15.341  14.698  0.1984 -0.1410 -0.1688
19523W        W37727  15.841   2.478  11.563  0.1208 -0.0976 -0.0248
19524W        W37728  11.120   8.721   3.563  0.2020  0.3778 -0.1001
19525W        W37729  10.695  16.552  14.187  0.0193  0.2524 -0.1715
19526W        W37730   4.095   4.483  12.665  0.3664  0.1349 -0.1907
19527W        W37731  17.814   5.774  10.991  0.2343  0.0673 -0.0621
19528W        W37732   3.826   2.410   2.306  0.3268  0.0459  0.0261
19529W        W37733  13.347  12.505  11.345 -0.2922 -0.2964  0.0658
19530W        W37734   7.219  11.480  10.302  0.0086  0.0419  0.1582
19531W        W37735   6.812  11.122  14.302  0.5056  0.0871 -0.2263
19532W        W37736  17.504  10.692   3.726  0.0066  0.4594  0.0129
19533W        W37737   8.332   7.085   3.149 -0.1757 -0.1117  0.1529
19534W        W37738  13.462  16.690  11.557  0.0421  0.3183  0.0293
19535W        W37739   2.432   8.529  12.682  0.0251  0.3525 -0.0023
19536W        W37740   3.259   2.599   9.991 -0.0745 -0.1479 -0.0576
19537W        W37741   7.324  13.115   2.221  0.2435  0.1020  0.0388
19538W        W37742   9.033   8.157   2.875  0.0555 -0.1273 -0.1288
19539W        W37743   4.230   2.480   0.572  0.1586 -0.2024 -0.0443
19540W        W37744  15.312   9.049  12.735 -0.3780  0.0817 -0.0867
19541W        W37745  12.735   4.169   0.191 -0.0341 -0.0114  0.3789
19542W        W37746  12.567   3.406   0.102 -0.0019  0.2377  0.2349
19543W        W37747  15.803  13.768   1.173  0.2710 -0.3412  0.0797
19544W        W37748   8.569   6.590  10.840 -0.2248 -0.4521 -0.0218
19545W        W37749   3.292   1.263  13.388  0.1694 -0.3428  0.0632
19546W        W37750  13.221  11.086   0.675  0.0912  0.5162  0.4303
19547W        W37751   4.706  13.469  13.622  0.0083 -0.4756 -0.2572
19548W        W37752   0.837   5.251   3.772 -0.0919 -0.0914 -0.1313
19549W        W37753  16.680   9.860   0.051  0.2260  0.1483  0.2137
19550W        W37754  17.189   3.103  11.616  0.0749  0.1817 -0.1067
19551W        W37755  10.413  13.394  14.849  0.1801  0.0803  0.0501
19552W        W37756  10.321  17.701   2.304 -0.5245  0.1311 -0.2949
19553W        W37757   1.488   9.911  11.754 -0.2424  0.1932  0.0134
19554W        W37758   3.926  11.336   1.114 -0.1931  0.0674  0.0972
19555W        W37759   3.247   9.253   0.774 -0.1514  0.0588 -0.1504
19556W        W37760  16.727   8.071  11.414 -0.0360 -0.0530  0.1895
19557W        W37761   7.838   7.405   2.634 -0.2468 -0.1008  0.1511
19558W        W37762   1.224  10.372  11.768 -0.1184 -0.0668 -0.0582
19559W        W37763  17.381  10.140   0.509 -0.2057 -0.2024 -0.2105
19560W        W37764   1.039   8.540  15.336  0.1288  0.0071  0.0167
19561W        W37765   5.823   3.148  12.680 -0.0056  0.1274  0.0519
19562W        W37766   7.977   8.809   1.276  0.0033  0.0912 -0.0439
19563W        W37767  14.337  14.114  12.926  0.0061  0.1714 -0.0965
19564W        W37768   1.578   0.171  11.776 -0.2666  0.4050 -0.2456
19565W        W37769   8.858   6.877  11.240  0.1472  0.2159  0.3675
19566W        W37770   2.080   3.919   1.990  0.0159 -0.1467  0.0209
19567W        W37771  11.595   1.790  14.068  0.3884 -0.2099 -0.0723
19568W        W37772  11.921   1.630   1.538 -0.2096  0.3289 -0.0864
19569W        W37773  16.209   5.301   0.474  0.0324  0.1862  0.3049
19570W        W37774  13.782   5.881   4.511  0.0737 -0.3112  0.3905
19571W        W37775   1.043   5.845   0.169 -0.0019  0.0592  0.0044
19572W        W37776   4.860   7.709  13.954 -0.0746  0.0081  0.0020
19573W        W37777   0.141   7.274  12.114 -0.0797 -0.1248  0.0000
19574W        W37778  16.563  10.098   1.662  0.1058 -0.0325  0.0059
19575W        W37779   4.039   3.585  12.469  0.0850 -0.0949 -0.0217
19576W        W37780  15.167  14.178  12.392  0.0822  0.0247  0.0209
19577W        W37781  10.950   1.390  14.678  0.0707  0.1874 -0.2210
19578W        W37782   1.251  12.045  11.257 -0.0161 -0.2423 -0.1318
19579W        W37783   0.008   4.597   0.546  0.0730 -0.2565 -0.0993
19580W        W37784   5.532   3.852  14.626 -0.1146  0.4606  0.0994
19581W        W37785   1.894  17.531  11.747  0.3198 -0.1675 -0.0625
19582W        W37786   6.331  13.460  11.703 -0.0889 -0.1957  0.1207
19583W        W37787  13.538  10.791  11.872 -0.0292 -0.2984  0.0908
19584W        W37788  13.206   8.157  11.231 -0.0646  0.0654 -0.1387
19585W        W37789   6.669   8.684   1.782 -0.3237 -0.2153  0.0985
19586W        W37790   0.257   0.955   1.230  0.0308 -0.1574 -0.1179
19587W        W37791  12.216   9.983   2.661 -0.0724  0.0641 -0.0963
19588W        W37792   5.258   2.266  13.171  0.0097  0.2314 -0.1218
19589W        W37793   1.365   3.066   5.429  0.2451 -0.1203 -0.3711
19590W        W37794  12.325  13.646  12.324 -0.1901  0.0595 -0.0663
19591W        W37795  16.550  18.370  14.947 -0.0397  0.1275  0.0331
19592W        W37796   3.797  15.305   4.332  0.1817  0.0173  0.1737
19593W        W37797   2.169  12.182  11.209 -0.2148  0.0422 -0.0918
19594W        W37798   8.649  11.822   2.117 -0.0814  0.1067 -0.3101
19595W        W37799   1.758  13.782   1.471 -0.1046  0.5399  0.1285
19596W        W37800  18.207  14.199  12.856 -0.1070  0.2397 -0.0908
19597W        W37801  16.201  14.333   3.550  0.0412 -0.0683 -0.0068
19598W        W37802   0.058   6.179   2.358 -0.2703  0.0762 -0.1292
19599W        W37803   4.315   7.021  14.769 -0.1374 -0.0973 -0.0213
19600W        W37804   3.192   0.827  14.887  0.2627 -0.1168  0.1687
19601W        W37805   9.699  16.677  13.203  0.5286  0.2761 -0.0123
19602W        W37806   4.917   2.449   0.866  0.0153 -0.2440  0.2311
19603W        W37807   3.782  12.098   2.266  0.1735  0.1368 -0.1212
19604W        W37808   4.572  15.882  13.461 -0.2509  0.1818 -0.1314
19605W        W37809   4.933  15.839  11.379  0.1222 -0.0225  0.1337
19606W        W37810  18.449   4.918   2.032  0.0068 -0.0667 -0.2240
19607W        W37811  12.589   0.860   2.055  0.0300  0.0023 -0.1680
19608W        W37812  18.175   9.777   3.001 -0.1616 -0.1260  0.0489
19609W        W37813  13.458   6.319   4.590  0.1033 -0.0069 -0.0491
19610W        W37814  17.924  15.565   0.115 -0.4178 -0.0890 -0.4053
19611W        W37815  15.278   0.884   4.340 -0.3396  0.3888 -0.0621
19612W        W37816  17.295   6.122   3.227 -0.2209 -0.1238 -0.0342
19613W        W37817   6.151  15.990  15.001  0.0185 -0.0601 -0.2415
19614W        W37818   3.593  14.886   1.195 -0.0972 -0.1170 -0.1370
19615W        W37819  17.667   3.261  13.684  0.1325  0.1898  0.0902
19616W        W37820   4.705  16.174   0.804 -0.0064  0.3242 -0.4472
19617W        W37821  11.091  18.078   2.839  0.0425 -0.2777  0.0288
19618W        W37822   6.573  10.356  14.285  0.1985 -0.2110  0.0187
19619W        W37823  10.974  14.514  12.421  0.1061 -0.2379 -0.0514
19620W        W37824  16.878  12.409  12.395 -0.2426  0.4686 -0.1944
19621W        W37825   8.030   1.458   1.055 -0.0451 -0.1274  0.0518
19622W        W37826   9.567   2.045   4.947  0.0368  0.1066  0.1728
19623W        W37827  14.040  12.284  13.268 -0.1907 -0.1522 -0.0161
19624W        W37828   3.993  13.988  12.672  0.1579  0.1044 -0.1404
19625W        W37829   5.154  12.563   2.032  0.4409  0.0897 -0.4122
19626W        W37830  11.333   0.904   2.719 -0.0088  0.1537 -0.0722
19627W        W37831  15.870  15.151   2.409 -0.1884 -0.0433 -0.1326
19628W        W37832  15.629   8.205  14.549 -0.0549  0.2514  0.0676
19629W        W37833   1.799  15.117   4.087 -0.0069 -0.1417 -0.1841
19630W        W37834   9.800   8.067   2.594 -0.0285  0.0315 -0.3374
19631W        W37835  18.184   2.091  12.125 -0.2358 -0.1912 -0.0562
19632W        W37836   8.345  10.450   1.566 -0.2750  0.0418  0.1925
19633W        W37837  15.939  15.670  13.361  0.0861  0.0918 -0.0730
19634W        W37838  17.685  14.349   3.313  0.1604 -0.1148  0.2470
19635W        W37839  12.292   5.363   4.090  0.0127  0.0735  0.3161
19636W        W37840  17.156   9.144   3.258 -0.0643  0.1512  0.1294
19637W        W37841  13.582  17.663  15.091  0.3624  0.2323  0.2609
19638W        W37842   2.303   5.736  11.978 -0.2745  0.0562 -0.1660
19639W        W37843  11.048   0.965  12.344  0.1666 -0.3685 -0.1495
19640W        W37844  10.735  11.356  12.291 -0.1129  0.0218  0.0368
19641W        W37845   9.995  11.788   1.369 -0.0156  0.1091 -0.1170
19642W        W37846   9.386   2.392   4.520 -0.2656 -0.3385 -0.0127
19643W        W37847  17.488   8.810  12.427  0.0758 -0.1065 -0.0085
19644W        W37848   1.511  12.868  13.182  0.0269  0.1899  0.2883
19645W        W37849   2.470  15.821   4.684 -0.2109  0.2929 -0.1978
19646W        W37850  10.247  13.244  13.895  0.1058 -0.1399 -0.0262
19647W        W37851  12.012  17.105   4.139 -0.2904 -0.0190 -0.0317
19648W        W37852  11.382   8.411   3.194 -0.0484  0.3836 -0.0651
19649W        W37853   2.497  14.935  12.480 -0.1479 -0.0575  0.0526
19650W        W37854  11.478  14.732   2.205  0.1952  0.2423 -0.2840
19651W        W37855  16.545   5.759   0.401 -0.0359 -0.0089 -0.3041
19652W        W37856   2.128   6.912  15.023 -0.6036 -0.0110  0.2968
19653W        W37857  14.432  15.059  12.621  0.1094  0.1583  0.2350
19654W        W37858  11.844   6.372  11.184 -0.1162 -0.0043  0.0710
19655W        W37859  10.909   4.140  14.329 -0.0551  0.0311  0.0923
19656W        W37860   0.324   6.791   2.994 -0.1566  0.1175 -0.2464
19657W        W37861  16.105   8.831  13.607 -0.3633 -0.0956 -0.0292
19658W        W37862   5.496  14.301  13.468  0.5592  0.1321  0.0058
19659W        W37863  11.481  18.303   2.042 -0.1936  0.0362  0.0081
19660W        W37864   1.642   2.088   1.688  0.0107  0.2991 -0.0942
19661W        W37865   6.066  15.531   0.503 -0.3349 -0.1411 -0.1931
19662W        W37866   4.360  15.515   1.686 -0.3388 -0.0576 -0.2039
19663W        W37867   8.790   7.511  14.119  0.2998 -0.0633 -0.2601
19664W        W37868   2.947  17.467   4.232 -0.1332  0.1387  0.1749
19665W        W37869   3.902   8.662  12.310 -0.1422 -0.0753 -0.0497
19666W        W37870   8.345  10.013   1.866  0.1482  0.0181  0.0320
19667W        W37871   1.917   2.914  14.844 -0.2707  0.0328 -0.0967
19668W        W37872  10.769  18.552  13.242 -0.1157 -0.0782 -0.0617
19669W        W37873  14.303   8.890   3.434 -0.0289 -0.0280  0.3405
19670W        W37874   1.811   5.243   4.194  0.0085  0.2226  0.0487
19671W        W37875   2.509  11.455   0.051  0.3150 -0.0083 -0.1501
19672W        W37876  18.014   9.552  11.709 -0.0576  0.1025  0.0671
19673W        W37877   5.903   8.606   1.264 -0.2612  0.0731  0.1349
19674W        W37878   1.695  18.394   2.603 -0.1092 -0.0490 -0.1243
19675W        W37879  15.260  17.447   0.275  0.1590  0.0755 -0.3300
19676W        W37880   9.840  13.737  14.783  0.1569  0.1471  0.0059
19677W        W37881  15.721   2.650   3.835 -0.2034  0.2108 -0.1411
19678W        W37882   0.855  11.849   4.008  0.0790 -0.1739  0.0905
19679W        W37883   1.969  11.316   0.958  0.2352 -0.0310 -0.0119
19680W        W37884  12.487  14.384  12.524 -0.0658 -0.1240 -0.0158
19681W        W37885   1.123   5.219   0.036 -0.0557  0.1016  0.0503
19682W        W37886  13.901  15.122   0.356  0.1249  0.0916 -0.1768
19683W        W37887   3.125  13.795  11.792 -0.0270 -0.1965  0.1151
19684W        W37888   5.602  10.509   3.595  0.1394 -0.1527  0.1263
19685W        W37889   9.145  14.686   0.794 -0.2383 -0.0903 -0.0800
19686W        W37890   3.841   9.955  11.820  0.1154 -0.0360 -0.0220
19687W        W37891   2.452   3.650  13.623 -0.2400  0.2229 -0.1016
19688W        W37892   6.002   0.606  11.178 -0.2502  0.0725 -0.1677
19689W        W37893  15.785   3.015   2.374 -0.0994 -0.2815 -0.2724
19690W        W37894   3.005  11.570   2.002  0.1675  0.2006 -0.0199
19691W        W37895  10.985   0.871   5.625 -0.0650  0.3438  0.0689
19692W        W37896   3.422   0.363  14.888  0.1498 -0.1348 -0.4470
19693W        W37897  11.157   2.235   5.049  0.0655 -0.1759  0.0596
19694W        W37898  11.486   0.908   2.173  0.0725 -0.3110 -0.2030
19695W        W37899   1.536   6.866   0.615  0.0356  0.0587 -0.2473
19696W        W37900   0.037   0.604   3.732  0.1647  0.5090  0.2356
19697W        W37901   9.008   8.120  14.423  0.0098  0.4073 -0.0775
19698W        W37902   2.195   0.825  15.238 -0.3071 -0.3378 -0.2984
19699W        W37903   9.105   2.036   0.811  0.1756 -0.2096  0.1308
19700W        W37904  11.375  15.112  14.201  0.1978  0.1616 -0.0168
19701W        W37905  11.522   1.670  14.615 -0.1644 -0.1092 -0.1157
19702W        W37906   1.190  13.450  12.480 -0.3135  0.3600 -0.0845
19703W        W37907  11.211   6.842   3.625 -0.1895  0.0901  0.1346
19704W        W37908  13.335   4.608   1.171 -0.0025 -0.0956  0.2205
19705W        W37909  13.069  11.172  11.057  0.1168  0.1197  0.0101
19706W        W37910   5.424  13.432  14.791  0.1100  0.2452  0.1780
19707W        W37911   1.170  12.591  11.279  0.0395  0.1315 -0.0282
19708W        W37912   9.882   1.982   3.079  0.0106 -0.0776  0.0636
19709W        W37913   6.896  11.604  10.721 -0.1887  0.1073 -0.1908
19710W        W37914   3.549  15.679  11.666 -0.0944 -0.6093  0.1193
19711W        W37915  18.037   2.439   0.775 -0.2231 -0.3516  0.0687
19712W        W37916  18.040   2.952  13.578 -0.1198 -0.2608  0.1085
19713W        W37917  15.212  14.701   0.673  0.2067  0.0301 -0.3325
19714W        W37918  10.404   0.990   0.240 -0.1755  0.1989  0.3899
19715W        W37919   2.304   2.653  12.527 -0.1523  0.0407  0.3857
19716W        W37920   2.244  17.182   5.010 -0.3537  0.2843 -0.1624
19717W        W37921  10.542   0.857   2.159  0.1378  0.2136 -0.3157
19718W        W37922   4.492   5.340   1.267  0.4625 -0.0466  0.0201
19719W        W37923   6.878   4.266  12.861 -0.0497  0.1343 -0.0420
19720W        W37924   0.090   9.030  11.143 -0.0491 -0.2836 -0.1170
19721W        W37925   3.168  12.822   1.192  0.0236  0.0662  0.1724
19722W        W37926   8.580  10.712  13.627  0.0082 -0.0840  0.0104
19723W        W37927   9.354  14.299   2.438 -0.0772 -0.1347 -0.1404
19724W        W37928   1.406   2.560   2.408  0.2283 -0.1113 -0.0504
19725W        W37929   9.576   3.632   4.069 -0.2304 -0.0540  0.1442
19726W        W37930   0.532   2.751   0.892  0.2840 -0.0065  0.1446
19727W        W37931  10.491   8.964  12.603 -0.1435 -0.0017  0.1093
19728W        W37932   2.675  11.108   2.623 -0.1295  0.2194 -0.1397
19729W        W37933  14.976   1.712   3.270 -0.1591  0.1274 -0.0910
19730W        W37934  18.452   3.091  14.780  0.0246 -0.2271 -0.3120
19731W        W37935  14.460   5.422  10.687 -0.1024  0.1640 -0.2412
19732W        W37936  16.235  13.752   0.463  0.0865 -0.0249 -0.0419
19733W        W37937   2.313  12.589   3.052  0.2088 -0.0786 -0.0310
19734W        W37938   2.638  14.068   2.369 -0.0523 -0.1041  0.0778
19735W        W37939  12.643   4.522  13.125  0.3523 -0.2332  0.2846
19736W        W37940   3.878  16.708   1.192  0.1712  0.1448  0.1729
19737W        W37941   9.035   2.649   2.359 -0.2154  0.2214 -0.1467
19738W        W37942  13.305   3.855   0.100 -0.0020  0.0130  0.0113
19739W        W37943  14.433   1.032  11.869 -0.4143  0.1736 -0.2781
19740W        W37944   9.620  15.505   0.620  0.1655 -0.1120  0.0607
19741W        W37945  13.018   1.341   0.965 -0.0066 -0.0913  0.0996
19742W        W37946   1.554   4.727  11.199  0.0719  0.0393 -0.0368
19743W        W37947   8.440  14.830  11.877 -0.1759 -0.0656  0.1209
19744W        W37948  12.057   3.594  15.411 -0.0270 -0.0553 -0.0511
19745W        W37949  12.813  15.971  11.796  0.1619 -0.0616  0.0479
19746W        W37950  11.068   5.073  13.448  0.3102  0.0939  0.0466
19747W        W37951  15.503  14.186   3.937 -0.0985  0.0547 -0.3459
19748W        W37952   6.430  16.818  14.288 -0.1475 -0.1257 -0.2328
19749W        W37953  12.924   2.853   1.918  0.0877 -0.0081  0.1604
19750W        W37954  18.460   3.178   1.207 -0.2148 -0.1708 -0.0633
19751W        W37955   0.920  10.357  12.676  0.2529 -0.2792 -0.0205
19752W        W37956  17.319  17.539  14.885  0.2458  0.0488 -0.2987
19753W        W37957  14.773  18.186  14.582  0.3640 -0.0320  0.0225
19754W        W37958   1.762   3.041  10.655  0.0048 -0.0613  0.2098
19755W        W37959  12.099  16.243   1.482 -0.0395  0.1613  0.0587
19756W        W37960   7.929  16.198   3.711  0.0854 -0.2632 -0.1978
19757W        W37961  12.678  11.344   1.213 -0.1798 -0.4611  0.0957
19758W        W37962  14.814   0.526  11.222 -0.0605 -0.1282 -0.0489
19759W        W37963   3.798  16.804  12.729 -0.2288  0.0150  0.1054
19760W        W37964  17.326   4.501  13.085 -0.0263 -0.3644  0.1017
19761W        W37965   4.570   5.955   1.544 -0.0097  0.0239 -0.2795
19762W        W37966  15.005  11.411  12.018 -0.0534 -0.1211  0.0075
19763W        W37967  16.489   5.583  14.622 -0.3226 -0.0644 -0.1327
19764W        W37968   8.834  14.405  12.754  0.0132 -0.1621 -0.1946
19765W        W37969  16.782   4.693  13.112 -0.0114 -0.0091  0.1726
19766W        W37970   7.284  10.522  12.616 -0.5096 -0.1767  0.1663
19767W        W37971  12.275   3.106  15.252  0.0694  0.0963 -0.0502
19768W        W37972   9.589   7.164  11.359 -0.0102  0.3794  0.0143
19769W        W37973  14.000   0.325  14.768 -0.3353  0.4097  0.1848
19770W        W37974   5.995   8.818   9.746 -0.1572  0.0985 -0.3440
19771W        W37975   8.964  13.161  10.749 -0.0496 -0.3653  0.2971
19772W        W37976  15.870  10.531   2.966 -0.1765  0.0137  0.2626
19773W        W37977  10.109  17.271  13.926 -0.0841 -0.2042 -0.1191
19774W        W37978   5.184   6.455  12.279  0.0875  0.1642 -0.1039
19775W        W37979  16.617  15.761  13.281 -0.0445  0.0147 -0.0256
19776W        W37980   2.158   6.546  10.634 -0.0260 -0.0251  0.1203
19777W        W37981  13.687   2.720   3.730  0.1070 -0.2045 -0.0450
19778W        W37982  14.948   1.466  12.545  0.0314 -0.1135  0.1198
19779W        W37983   1.852  10.543  14.598 -0.2057  0.0870 -0.5052
19780W        W37984  15.807   9.712   4.844  0.3477  0.1844 -0.0074
19781W        W37985  11.581   0.602  14.178 -0.2524 -0.2807 -0.0168
19782W        W37986  13.604  10.031  11.377 -0.1694 -0.0962 -0.2317
19783W        W37987  17.767   6.269  10.740 -0.1169  0.0693 -0.3077
19784W        W37988  16.584  11.560   4.924  0.0542 -0.0558  0.0416
19785W        W37989  15.153  16.008   0.118  0.2269  0.1756 -0.0169
19786W        W37990   9.040   1.304   5.345  0.0909  0.1273  0.0348
19787W        W37991  11.128   1.992  13.871 -0.2546 -0.3252 -0.1523
19788W        W37992   8.147  12.777   3.210  0.0193 -0.1718 -0.1280
19789W        W37993  14.368  16.572  14.121 -0.1580  0.1060  0.2977
19790W        W37994   1.637   1.515   1.880  0.1766  0.0497 -0.1743
19791W        W37995  17.659  17.017  11.259  0.0621 -0.0348 -0.0886
19792W        W37996   9.583   3.385   0.508 -0.2778  0.1811  0.0113
19793W        W37997   7.020   4.707  13.182  0.1764  0.0193  0.0264
19794W        W37998   3.615  15.436   0.989  0.0186  0.1010 -0.0516
19795W        W37999   3.545   4.966   0.102  0.0805 -0.0136 -0.4281
19796W        W38000   3.575  13.411   3.696  0.0798  0.1419 -0.4091
19797W        W38001  13.364  17.489   3.899  0.2576  0.1097 -0.2460
19798W        W38002   7.791  12.472   0.005  0.0825 -0.3296 -0.0399
19799W        W38003  15.523   7.938   4.734 -0.3314  0.3178 -0.0224
19800W        W38004  13.467  15.921  12.519 -0.0460 -0.2602 -0.0248
19801W        W38005  14.441  10.074  14.136  0.1229 -0.1984  0.3608
19802W        W38006   6.275  17.256   1.449  0.1637  0.2058 -0.0991
19803W        W38007   4.237   8.598  11.770  0.2359 -0.1072  0.1446
19804W        W38008   0.846   9.816   4.022  0.0913  0.2204  0.0088
19805W        W38009  14.614   5.311   4.761  0.1357 -0.0393  0.0032
19806W        W38010   8.091   0.564   4.499 -0.0292 -0.0195  0.0874
19807W        W38011   7.152   9.647   2.514  0.0605  0.1529 -0.1716
19808W        W38012   1.026   1.483  11.697 -0.0305 -0.2793 -0.0065
19809W        W38013  11.769   5.265   4.816 -0.2242 -0.3356  0.2120
19810W        W38014   9.782   3.390  13.180 -0.0295 -0.1406  0.1591
19811W        W38015  15.672   8.340   3.804  0.0072 -0.1021 -0.0555
19812W        W38016  14.379  17.642  11.994 -0.2712 -0.1448  0.0600
19813W        W38017   4.012   8.026  14.137  0.0678 -0.1091  0.0898
19814W        W38018   9.185   7.353   0.799  0.0109  0.1708 -0.1534
19815W        W38019   1.417  14.228  12.001 -0.0588  0.1810 -0.2303
19816W        W38020  14.727  16.993  13.215  0.3058  0.2764 -0.0566
19817W        W38021   9.885   4.684  11.083  0.0423 -0.2023 -0.3868
19818W        W38022   7.659  17.714  10.814  0.3952  0.3533 -0.0264
19819W        W38023   0.205   0.904  13.316  0.1379 -0.1269  0.1414
19820W        W38024  14.323  11.777  12.597 -0.2040  0.2219  0.2552
19821W        W38025   3.389   1.113   1.667 -0.1165 -0.3474 -0.2111
19822W        W38026   0.637   1.155   1.455  0.0720 -0.1107  0.0094
19823W        W38027  18.490  10.907  12.843 -0.1671  0.0046  0.2086
19824W        W38028  17.231   6.712  14.969 -0.0010  0.0335  0.1094
19825W        W38029   5.827   2.294  13.885  0.0731  0.1497 -0.1612
19826W        W38030  13.969  12.521  11.816 -0.1309 -0.0057  0.0236
19827W        W38031  17.704   5.403  11.310 -0.1256  0.1670  0.0752
19828W        W38032  12.136  13.166  13.681 -0.5038 -0.0618  0.0358
19829W        W38033   7.073  13.275   0.017 -0.1300 -0.1023 -0.0592
19830W        W38034   1.729  17.101   4.063 -0.0188  0.3021  0.2289
19831W        W38035   0.091   7.656  14.614  0.1480 -0.0847 -0.0520
19832W        W38036   3.148   6.505   1.759 -0.0440  0.0494 -0.0451
19833W        W38037  10.201   2.924  15.119 -0.0418 -0.2481  0.2157
19834W        W38038   6.107   7.932   1.778 -0.1302 -0.0578  0.1589
19835W        W38039  16.147   4.999  15.199  0.3067 -0.0595 -0.1261
19836W        W38040   3.538  16.004   4.581  0.0217  0.0417  0.0340
19837W        W38041   5.122   2.111   4.157 -0.2942 -0.1013 -0.2373
19838W        W38042   8.937   1.572   4.233  0.1538 -0.2486 -0.1249
19839W        W38043   9.793  11.098  11.805 -0.3192 -0.2686 -0.3031
19840W        W38044  16.057  12.089  11.394 -0.3200  0.1288 -0.2171
19841W        W38045  16.115  16.239  14.163  0.0510  0.2926 -0.3752
19842W        W38046  14.144   2.564  11.761 -0.3800 -0.0125 -0.0918
19843W        W38047   5.255  16.917   6.014  0.1444  0.0089 -0.5479
19844W        W38048  14.702   7.171  12.578 -0.0930  0.1630 -0.1675
19845W        W38049  13.529   0.253  12.940  0.0133 -0.0217  0.1587
19846W        W38050  13.652  13.084   2.935  0.0034 -0.0929  0.1501
19847W        W38051   3.717   7.612   5.387 -0.1127 -0.4169 -0.0650
19848W        W38052   3.297  16.380   0.136 -0.1929 -0.0900 -0.2095
19849W        W38053   7.039   6.446   0.992  0.0212  0.3736  0.2404
19850W        W38054   0.457   7.094   3.442  0.1563 -0.1151  0.4259
19851W        W38055  17.021  10.725   1.227 -0.4707  0.2071  0.0480
19852W        W38056   4.724  13.248   5.329  0.2194  0.1224  0.0918
19853W        W38057   5.301  11.689  13.099  0.1681 -0.1240 -0.0352
19854W        W38058   0.822  10.681   1.277  0.2000 -0.0627 -0.0392
19855W        W38059  12.104  15.596   0.682  0.0552 -0.2173  0.0558
19856W        W38060  16.654   8.851   0.442 -0.0446 -0.1475 -0.0178
19857W        W38061   4.207  16.808   2.070 -0.0379 -0.0777  0.1345
19858W        W38062  16.242  14.777   0.469 -0.1604  0.0516 -0.0279
19859W        W38063   9.968   2.557   1.881 -0.1201  0.2862  0.3680
19860W        W38064   1.111   6.843  10.823 -0.2072  0.0818 -0.3092
19861W        W38065  15.653   7.665   1.755 -0.0019 -0.1281 -0.4558
19862W        W38066   5.419  17.640  12.572 -0.0569 -0.0596  0.3742
19863W        W38067   5.596  12.585  13.131  0.1763 -0.3134  0.1808
19864W        W38068   7.588   9.171  10.509  0.0771  0.0187 -0.0814
19865W        W38069   5.041  17.789   3.862  0.2037 -0.0328 -0.1042
19866W        W38070  11.763   3.395   3.478  0.1919 -0.3138 -0.3360
19867W        W38071   0.437   7.945  13.247  0.1377 -0.0121  0.0008
19868W        W38072   5.636   6.826  13.148 -0.0395 -0.1817 -0.0569
19869W        W38073  14.126   6.542   1.310  0.0204  0.1350 -0.1435
19870W        W38074   5.876  17.369   4.104 -0.1757  0.2352  0.0335
19871W        W38075   9.220   5.460   1.272  0.1252  0.0592 -0.3268
19872W        W38076   9.987   0.079   0.250  0.1090 -0.1143 -0.1370
19873W        W38077  17.859   2.030   2.333  0.1359 -0.2258  0.2192
19874W        W38078  13.963  13.290   3.312  0.0268 -0.0457 -0.0078
19875W        W38079   1.441  15.574  10.998 -0.0533 -0.3015  0.2270
19876W        W38080  16.280   5.736   3.556  0.1471  0.1008  0.0783
19877W        W38081  10.111  14.555  12.665  0.1134 -0.2571 -0.2202
19878W        W38082  12.074  12.551  14.949  0.0155  0.0307  0.1075
19879W        W38083   5.623   8.344   1.699  0.1030  0.1599  0.1047
19880W        W38084   2.747   6.967  12.395  0.2070  0.2351  0.2132
19881W        W38085   0.830  11.842  11.531 -0.1635 -0.0167  0.1550
19882W        W38086   8.325  10.318   2.922 -0.1910 -0.1405 -0.0322
19883W        W38087   7.347  11.491   0.689 -0.3717 -0.0151  0.2281
19884W        W38088  15.440   5.543  11.510 -0.1123 -0.0112 -0.0462
19885W        W38089   6.370  12.388   2.525 -0.3010 -0.1761  0.1994
19886W        W38090   1.727  16.462  11.589 -0.2443 -0.4216 -0.0349
19887W        W38091   5.984  14.264   0.765 -0.1885 -0.2393  0.1432
19888W        W38092   8.280   5.195   3.267 -0.0102  0.0963 -0.0784
19889W        W38093  16.088   8.085  11.311  0.2109 -0.1520 -0.2904
19890W        W38094  11.048   9.078   2.562 -0.0629 -0.0980 -0.2023
19891W        W38095  17.726  11.783   3.669  0.0237  0.3002 -0.4053
19892W        W38096   3.961  17.296   5.121  0.2756  0.0765  0.1545
19893W        W38097   6.611   4.683   3.895  0.1027 -0.0933  0.0298
19894W        W38098   7.398   1.858  10.878 -0.3873  0.4373 -0.1153
19895W        W38099  11.456   7.300   4.204  0.0301 -0.1304 -0.2323
19896W        W38100  12.035   5.012  10.734  0.2653 -0.3165  0.0264
19897W        W38101   3.043   3.980  12.979  0.0517 -0.1830 -0.1712
19898W        W38102   1.712   5.249  12.601 -0.0811 -0.1935 -0.1595
19899W        W38103  18.292  10.531   1.933  0.0208 -0.1141 -0.1389
19900W        W38104  17.781  14.809   5.330  0.1276 -0.0819  0.0414
19901W        W38105   1.172   1.063  13.396  0.1363 -0.0676 -0.2089
19902W        W38106   5.155   1.369   0.580  0.1262 -0.1277  0.4189
19903W        W38107  12.734   7.995  11.874  0.1171 -0.0585  0.1553
19904W        W38108  16.229  10.766   2.138 -0.2464 -0.0728  0.0495
19905W        W38109   9.449  15.822   3.647  0.0964 -0.1400 -0.0806
19906W        W38110   7.951  14.123   2.927 -0.1509  0.3448  0.0601
19907W        W38111  13.110   3.921  11.511  0.0585  0.0403  0.1066
19908W        W38112   4.002   1.314   5.931 -0.2869  0.0560  0.2242
19909W        W38113  18.077  10.000  14.301 -0.3146  0.0398 -0.3195
19910W        W38114   4.806  11.951   4.015  0.0574 -0.2623  0.0255
19911W        W38115   5.987   8.650  11.130  0.1482  0.5075  0.1206
19912W        W38116   2.128  12.701   4.316  0.0111 -0.1330  0.0630
19913W        W38117   2.515   9.134   1.234  0.2205 -0.0532 -0.0808
19914W        W38118   6.807  11.759   1.574 -0.0402  0.2411 -0.1542
19915W        W38119   8.564   9.639   4.453  0.0769 -0.0615  0.0155
19916W        W38120   1.931  15.161   2.230  0.1462 -0.1228  0.0365
19917W        W38121   0.918   3.107  14.479 -0.1160 -0.0406  0.2193
19918W        W38122  10.894  10.605   2.734  0.1504 -0.1202  0.1364
19919W        W38123  18.615   8.171   3.249  0.0671  0.2672  0.0112
19920W        W38124  18.271  12.286  11.802  0.0175 -0.0327 -0.0090
19921W        W38125  17.328  12.034  11.253  0.0951 -0.0608  0.1536
19922W        W38126  11.679  10.903  10.075  0.0625 -0.2193  0.2630
19923W        W38127   7.877   6.003   1.047  0.0814 -0.0409  0.0208
19924W        W38128   7.769  10.712   4.602 -0.0206 -0.2755  0.1627
19925W        W38129  12.198   4.318   0.676 -0.1153 -0.3536  0.1638
19926W        W38130  18.440  16.739  14.539 -0.2842  0.0685  0.0720
19927W        W38131  10.270   7.144   1.641  0.1729  0.0581  0.1158
19928W        W38132  12.690  14.399  13.936 -0.0747 -0.1438  0.2339
19929W        W38133   4.005  16.154   4.360 -0.0335 -0.1933  0.2667
19930W        W38134   5.837   6.113  12.643 -0.4094 -0.1057  0.0194
19931W        W38135  12.148   7.430   1.676  0.1268  0.0292 -0.0202
19932W        W38136   3.100  14.727   0.590  0.1182 -0.1835  0.2631
19933W        W38137   7.130   4.797   1.576 -0.0642 -0.0004 -0.0689
19934W        W38138  17.229   9.317   1.043 -0.2837 -0.2368  0.2184
19935W        W38139  18.533   9.891   1.342  0.1006  0.1692 -0.1430
19936W        W38140   2.791   1.933  14.856 -0.1189  0.1457 -0.2611
19937W        W38141  11.878  10.579  15.023  0.3532  0.1341  0.0220
19938W        W38142  18.052  12.006  13.787 -0.0107  0.3172  0.1517
19939W        W38143   5.633  18.075  13.471 -0.0039 -0.3166 -0.0998
19940W        W38144  11.206  12.455  15.430  0.1252 -0.1234  0.2493
19941W        W38145   6.612   4.675  12.799 -0.1316  0.0044  0.1126
19942W        W38146  16.047  17.841   2.171  0.3446 -0.0593  0.0896
19943W        W38147  14.454  15.411   0.744 -0.2644  0.1295 -0.2115
19944W        W38148   5.168  18.037  13.598 -0.0691  0.1159  0.1767
19945W        W38149   1.928   9.307   1.853  0.1373  0.1760  0.1044
19946W        W38150  10.067  17.628  12.825 -0.1392  0.1201  0.0723
19947W        W38151  17.557  16.929  14.021 -0.2320 -0.2360  0.1530
19948W        W38152   1.885   3.623   1.668  0.2108  0.0139  0.0594
19949W        W38153   2.970   4.595  11.352  0.1910  0.1060  0.0812
19950W        W38154   1.851   9.852   1.887 -0.0565  0.1156  0.1572
19951W        W38155   3.534  15.447   2.706 -0.0674  0.0971  0.3378
19952W        W38156   2.899  11.422  12.919 -0.2601 -0.0114  0.0334
19953W        W38157  15.112   7.205  10.832 -0.0615 -0.0184 -0.1979
19954W        W38158  10.924   6.247   0.119  0.1066  0.1922  0.2313
19955W        W38159   6.584   9.592  12.335  0.0569 -0.0330 -0.0767
19956W        W38160   7.169  11.817  11.117  0.0103 -0.0178 -0.0773
19957W        W38161   1.772  17.400   2.231  0.2732  0.3764 -0.0289
19958W        W38162  15.446  11.869   4.296  0.1397  0.3688 -0.1747
19959W        W38163   2.666  13.659   4.540 -0.0547  0.4170 -0.1577
19960W        W38164  11.505  16.588  11.778 -0.1457  0.1140  0.0445
19961W        W38165  14.439  14.663   2.329 -0.0838  0.0958 -0.1226
19962W        W38166  13.342   7.009  12.526  0.0193 -0.5667  0.0036
19963W        W38167   3.200  17.363  11.843 -0.2684 -0.1064  0.2854
19964W        W38168  10.838  10.897   4.083  0.0870 -0.2140 -0.2747
19965W        W38169  12.542  16.128  12.567 -0.0594 -0.2183  0.1635
19966W        W38170  12.218   3.425   4.336 -0.1285 -0.1047 -0.1339
19967W        W38171   0.992  17.416   3.367 -0.0028  0.3142 -0.0643
19968W        W38172   1.575  11.589   3.117 -0.2933  0.1770  0.2601
19969W        W38173   1.624  16.859   0.257 -0.1015  0.1876 -0.0054
19970W        W38174  15.207  17.507  11.585  0.2853  0.0371 -0.2402
19971W        W38175   1.339   3.976  10.259  0.0120 -0.0065  0.1863
19972W        W38176   0.082  10.382   3.239 -0.1342 -0.1992 -0.1556
19973W        W38177  18.337   9.878   0.636  0.1501 -0.2887  0.3342
19974W        W38178  13.175  11.229  12.610  0.0832  0.3325  0.0923
19975W        W38179   2.478  13.074   0.172 -0.1390 -0.2339  0.2818
19976W        W38180  14.102   9.825  13.935  0.2310  0.1332 -0.0565
19977W        W38181   5.830  18.522  15.193 -0.2084  0.1104  0.0283
19978W        W38182  12.179   2.927  11.924  0.4085  0.1527 -0.0175
19979W        W38183  17.246  10.297  12.924 -0.1000 -0.0967  0.0721
19980W        W38184   2.790  15.710   3.408 -0.0122  0.1138  0.3295
19981W        W38185   5.976   3.205   0.950  0.2015  0.0669  0.1412
19982W        W38186  13.428   7.839  14.417 -0.0004  0.2258  0.1738
19983W        W38187  16.294   0.536   0.699  0.2850 -0.0282 -0.1054
19984W        W38188  12.831   3.787   2.055  0.2851 -0.3330 -0.4066
19985W        W38189   2.989   4.910  13.333 -0.2956 -0.0244 -0.0966
19986W        W38190  17.400  15.496   9.975  0.0739 -0.2452 -0.3315
19987W        W38191   9.964   0.459  15.187 -0.0444 -0.3232  0.0026
19988W        W38192  14.439  12.437  12.991 -0.1489 -0.2960 -0.0946
19989W        W38193   4.462   7.320   4.356  0.1942  0.1880  0.2309
19990W        W38194  18.499   3.896   2.951 -0.1287 -0.0130 -0.1824
19991W        W38195   6.101  18.094  11.940 -0.0408 -0.1455  0.1748
19992W        W38196  13.950  15.009   1.709  0.2366 -0.2259  0.2001
19993W        W38197   3.938   9.776   0.824  0.1954 -0.2019  0.1808
19994W        W38198  15.380  17.450   2.787  0.0761 -0.0157 -0.1902
19995W        W38199  13.085  18.434  14.618 -0.2740 -0.1600 -0.1466
19996W        W38200  10.585   9.690  11.273  0.3324 -0.1507  0.3758
19997W        W38201  13.250  11.343  14.807  0.0007  0.0330 -0.0794
19998W        W38202  17.523  18.327   3.746  0.1217  0.1129  0.2016
19999W        W38203  11.068   4.691  14.372 -0.0235 -0.0138  0.0947
20000W        W38204  15.361  10.122   0.507 -0.4570 -0.1631 -0.1490
20001W        W38205  11.962   4.731   4.665 -0.2874 -0.1143  0.2600
20002W        W38206   9.608  17.834  12.902 -0.2246 -0.0280 -0.3402
20003W        W38207  11.054  12.978  13.611 -0.0691  0.0458  0.0122
20004W        W38208   4.117  12.353  14.608 -0.1787 -0.0549  0.0473
20005W        W38209  17.674   7.190  10.936  0.1141  0.0298 -0.0800
20006W        W38210  18.490  17.061   2.814 -0.3665 -0.2495 -0.1655
20007W        W38211   6.071  13.755  11.102  0.0822 -0.1941  0.1061
20008W        W38212   8.291  10.265  15.147 -0.1530 -0.5368  0.0124
20009W        W38213  18.234  12.960   3.218 -0.1263 -0.1001  0.0018
20010W        W38214   9.294   1.465   3.400 -0.0448 -0.1185  0.0555
20011W        W38215  17.590  12.902   2.016 -0.0835  0.2012  0.0213
20012W        W38216  14.853  13.306   2.282 -0.2336  0.0217 -0.2263
20013W        W38217   5.650   3.698  14.030 -0.0245  0.0546  0.4892
20014W        W38218  16.524   7.382   2.287 -0.3240  0.2215 -0.2240
20015W        W38219   5.865  16.280   0.231  0.0513 -0.0692  0.0708
20016W        W38220  15.942  17.883   2.974  0.3118 -0.0307  0.0608
20017W        W38221  14.459  16.357  13.682 -0.0277  0.0865 -0.1556
20018W        W38222  16.439   2.757  13.501 -0.1880  0.0977  0.2879
20019W        W38223   3.526  17.475  14.959 -0.0677 -0.0865  0.0264
20020W        W38224   6.742  17.596  14.359  0.1418  0.0377 -0.0518
20021W        W38225  15.898  17.971   3.416  0.1520 -0.0312 -0.0617
20022W        W38226  14.325  16.065   2.975 -0.1369  0.0051 -0.1166
20023W        W38227   5.002  14.923  14.051  0.0418 -0.0179  0.0981
20024W        W38228   2.019  18.424   1.771  0.0411 -0.3812  0.0888
20025W        W38229  10.082   3.177  11.739  0.2695 -0.2236  0.0488
20026W        W38230  10.508  17.466  13.599 -0.0848 -0.1744 -0.1121
20027W        W38231  17.294   2.699  11.926  0.1979 -0.1867 -0.1824
20028W        W38232  15.801  13.401   4.418 -0.0284  0.2562  0.1818
20029W        W38233   0.310   9.470   3.822  0.3232  0.2037 -0.0301
20030W        W38234   1.057  15.244   1.627  0.0830  0.1861  0.0411
20031W        W38235   5.528   2.882  14.550  0.1887  0.0063 -0.0274
20032W        W38236  11.201   2.037  10.767  0.2394  0.0921 -0.1866
20033W        W38237   6.409   6.212   1.656 -0.2544 -0.1161  0.3853
20034W        W38238  17.718  14.397  11.441  0.1347 -0.2870  0.2840
20035W        W38239  16.595  13.663   0.906 -0.4088  0.0729  0.1312
20036W        W38240  10.595  10.287  13.642 -0.1336  0.0226  0.1385
20037W        W38241  14.566  18.064  11.023 -0.1142 -0.0586  0.0780
20038W        W38242   3.343   9.330  11.334 -0.1463  0.3188  0.0064
20039W        W38243   3.765  11.936   3.511 -0.0596  0.0330  0.2370
20040W        W38244   1.748   6.433  11.500  0.2773 -0.0049 -0.0339
20041W        W38245   3.903  13.629   0.906 -0.1899 -0.0154  0.2454
20042W        W38246   5.011   1.791   1.499  0.2675 -0.1728  0.0341
20043W        W38247  17.995   4.782   1.825 -0.2592  0.2680 -0.1613
20044W        W38248   1.061   4.902  14.828  0.0570  0.3544 -0.1785
20045W        W38249  16.681   4.301   1.481 -0.2797 -0.1236  0.0774
20046W        W38250  10.836   0.106   4.082 -0.0584 -0.2929  0.0077
20047W        W38251   9.001   3.898  13.999 -0.0237 -0.0348  0.1111
20048W        W38252  14.175   6.727  11.080 -0.3894 -0.0211 -0.2428
20049W        W38253  17.810  10.866   4.067  0.2550  0.0594  0.0437
20050W        W38254  18.049   3.073  12.208 -0.3573  0.0745  0.0483
20051W        W38255   1.897  11.285  13.525 -0.0964  0.1809  0.0251
20052W        W38256  17.206  11.880   0.525  0.1433 -0.2130 -0.1794
20053W        W38257  12.030  16.678   4.384 -0.2079  0.0789 -0.0770
20054W        W38258   9.137   7.100   4.174 -0.0772  0.0289 -0.3213
20055W        W38259   0.896   3.917   4.292 -0.0391  0.1113 -0.0036
20056W        W38260  16.921   9.365  12.952 -0.3063  0.0142 -0.0214
20057W        W38261  11.961   5.890  10.516 -0.0235  0.1637 -0.1626
20058W        W38262   7.211   4.922  12.088 -0.0741 -0.1017 -0.0117
20059W        W38263   7.987   2.291   0.304  0.0019  0.0516 -0.0568
20060W        W38264   3.862   4.194   0.322  0.1570  0.0972  0.0800
20061W        W38265   0.213   5.623  15.123  0.1593  0.0287 -0.0639
20062W        W38266   1.660  10.290   4.219 -0.1460  0.0881 -0.0457
20063W        W38267   3.930  16.901   0.732  0.0941  0.0863  0.2215
20064W        W38268   7.395   5.743   1.338  0.1315  0.1181  0.1359
20065W        W38269   6.501   2.095   3.903  0.1479  0.0079  0.3142
20066W        W38270  15.968  11.073   4.356 -0.0659 -0.2011 -0.1278
20067W        W38271   1.306   9.590   3.099 -0.3091 -0.0376 -0.1567
20068W        W38272  16.709   3.191  13.728  0.2110  0.2052 -0.0560
20069W        W38273   3.083   1.245   4.509  0.0338 -0.1645  0.1856
20070W        W38274   5.346  11.430   9.940  0.3701  0.1447  0.0644
20071W        W38275   0.739  13.464   4.436  0.1577 -0.2940  0.1240
20072W        W38276  14.700   3.061  11.865 -0.0525 -0.1536 -0.2135
20073W        W38277   4.046  17.943   2.854 -0.0539  0.1568 -0.0309
20074W        W38278   1.657  10.120   1.166  0.3090  0.0829 -0.0712
20075W        W38279  11.064   4.235   0.695  0.2671  0.1247 -0.1353
20076W        W38280  18.022  12.065   2.035 -0.0578 -0.1531 -0.0745
20077W        W38281  11.709  14.509  15.279  0.0854  0.2663 -0.0004
20078W        W38282   4.134  10.232   4.336 -0.0333 -0.0436  0.0183
20079W        W38283   1.319  17.601  12.520 -0.0502  0.1230 -0.4633
20080W        W38284  16.400  15.231   0.423 -0.1443 -0.1890  0.1281
20081W        W38285   9.191  15.689   4.633 -0.1517  0.0380  0.1377
20082W        W38286  16.752   7.378   0.874 -0.2119  0.0204 -0.0732
20083W        W38287  15.013  12.236   4.655 -0.0128 -0.2754 -0.0249
20084W        W38288  12.429  13.388   3.348  0.1478  0.0201 -0.2199
20085W        W38289  13.501   8.874  12.139  0.1636 -0.1951  0.1651
20086W        W38290  14.465  17.495   1.139  0.1143 -0.0750  0.1733
20087W        W38291   5.567   0.601  14.138 -0.0848 -0.0160  0.0389
20088W        W38292   4.416  14.574  13.632  0.1264 -0.2005  0.0532
20089W        W38293   4.715   9.725  12.867 -0.0436  0.3644  0.0429
20090W        W38294   6.832   6.998   2.768  0.0734  0.1378 -0.0498
20091W        W38295  11.272  16.190   3.581 -0.1103  0.1219 -0.0357
20092W        W38296  17.987   4.361   3.603 -0.0056 -0.0350 -0.1981
20093W        W38297  15.448  13.353  14.992  0.2300 -0.1087 -0.2410
20094W        W38298   1.540   5.554  12.219 -0.4273 -0.0280 -0.0978
20095W        W38299  17.399   6.127  11.509  0.0966 -0.0635 -0.2011
20096W        W38300   7.602   6.895  14.872 -0.1540  0.2010  0.0419
20097W        W38301  12.520  16.380   0.293 -0.0376 -0.1420  0.1202
20098W        W38302  11.412  14.471  12.661 -0.1348 -0.2535  0.1205
20099W        W38303   7.575   1.242   3.512  0.1724  0.1382 -0.0266
20100W        W38304   5.283   9.091   1.491 -0.1966 -0.1911 -0.2399
20101W        W38305   3.969   8.137   2.602 -0.3116 -0.0752  0.1284
20102W        W38306   9.525  13.986   0.311 -0.0886 -0.0637 -0.0688
20103W        W38307  10.137  14.017  12.907 -0.0198 -0.1381 -0.2192
20104W        W38308   9.453   3.026  13.307 -0.2916  0.0095 -0.1026
20105W        W38309  14.465   2.281   1.893  0.2979 -0.4033  0.1525
20106W        W38310   4.987  14.618  11.546  0.0558 -0.1803  0.0880
20107W        W38311  18.012  10.016   4.268 -0.0935  0.0023  0.1097
20108W        W38312  13.328  11.826   2.650  0.0428 -0.1033 -0.0870
20109W        W38313  13.104  10.278  12.137 -0.0559  0.2298 -0.1028
20110W        W38314  12.393  16.640   1.959  0.0276  0.0067 -0.0289
20111W        W38315  10.143  10.643   2.863  0.2181 -0.1388  0.2787
20112W        W38316   9.896   6.910   5.769 -0.0112  0.1129  0.2737
20113W        W38317  15.105   9.279  15.432 -0.3542  0.1953 -0.1480
20114W        W38318  11.500   2.176   2.672  0.3186 -0.1003 -0.0261
20115W        W38319   2.554  11.015  13.955  0.1954  0.0162 -0.2097
20116W        W38320   4.420   0.598   1.989 -0.3007 -0.1439  0.1017
20117W        W38321   5.483  11.634  13.672 -0.2640  0.0099  0.0523
20118W        W38322  11.687   7.997  15.072 -0.1290 -0.0134 -0.3411
20119W        W38323  17.474   7.694   2.258 -0.1634  0.1912 -0.1171
20120W        W38324   5.727  11.053  14.688  0.2062  0.2539 -0.2532
20121W        W38325   2.205   8.152  12.863 -0.0831 -0.2424 -0.0251
20122W        W38326   4.883   4.305   1.336 -0.3861  0.1416  0.0126
20123W        W38327  14.652   0.607   0.841 -0.1600  0.2112 -0.1995
20124W        W38328   7.437  12.341   0.399  0.2093  0.1594 -0.2004
20125W        W38329  10.397  18.478  12.631  0.0757  0.1441  0.4460
20126W        W38330  10.050   3.638   3.737 -0.2454 -0.0625 -0.4210
20127W        W38331  15.262   2.213  15.383 -0.0458  0.0105  0.0239
20128W        W38332   0.905  10.664  10.413 -0.1491  0.1812  0.3049
20129W        W38333   3.249   7.985  14.812  0.0573  0.0121 -0.2035
20130W        W38334  14.176  12.862   1.828 -0.1105 -0.0541 -0.0785
20131W        W38335  12.220  13.208   0.280  0.0794  0.1492 -0.1961
20132W        W38336  11.969  11.673   4.422 -0.1264  0.0919  0.0576
20133W        W38337  17.423   3.893   3.924 -0.1471 -0.2009 -0.0993
20134W        W38338  17.191  12.527  14.658  0.1127 -0.0601 -0.2665
20135W        W38339  18.138  10.479   4.060 -0.0425 -0.0646  0.2796
20136W        W38340  17.984  17.805   1.675 -0.1245 -0.0022  0.1682
20137W        W38341  12.478  12.853   2.495  0.4786  0.2350 -0.2719
20138W        W38342  16.056   1.244  13.328  0.1186 -0.0603 -0.0447
20139W        W38343   8.039  13.264   3.394 -0.2455  0.0075 -0.0270
20140W        W38344   9.264  12.442  13.322 -0.0012 -0.3035  0.2903
20141W        W38345   2.333  16.110   0.229 -0.2407 -0.1729  0.1934
20142W        W38346   2.859  15.498   4.727 -0.2002 -0.0694 -0.1683
20143W        W38347   7.448  17.784  13.240 -0.1547 -0.1135  0.1579
20144W        W38348   0.893   2.449   4.284  0.0896 -0.0726 -0.2201
20145W        W38349  16.400  17.257  11.620 -0.0536  0.1882 -0.1074
20146W        W38350  13.124  12.222   0.033  0.0669 -0.0140  0.0186
20147W        W38351   6.867   6.208  14.973  0.0582  0.0020 -0.1269
20148W        W38352  12.395  12.704  12.715  0.2020  0.1074  0.0668
20149W        W38353  11.131   2.790  14.859 -0.2260  0.0818 -0.3453
20150W        W38354  16.348   8.107  11.773  0.2895  0.2730 -0.1712
20151W        W38355  16.248   6.830   9.536 -0.1693 -0.1920 -0.2594
20152W        W38356  15.294  16.123   3.821  0.2034 -0.1769 -0.1447
20153W        W38357  14.240   7.287  15.079  0.0124  0.3689 -0.0804
20154W        W38358  18.052  12.903  14.150 -0.1870  0.0198 -0.0037
20155W        W38359   0.834  18.218  13.158 -0.1252 -0.2969  0.1998
20156W        W38360  18.365  13.244  12.599  0.0992  0.0609 -0.1778
20157W        W38361  10.672   9.124   0.215 -0.0435 -0.0548  0.1980
20158W        W38362   3.413   8.542  14.547  0.0390 -0.1907 -0.0381
20159W        W38363   6.264   9.731   2.638  0.0709 -0.3058  0.1771
20160W        W38364  10.719  14.157  13.212  0.0762  0.1241 -0.0196
20161W        W38365   3.778  10.995  13.602 -0.2927 -0.1590  0.4123
20162W        W38366   5.775  17.072   2.400 -0.0349  0.4304  0.0999
20163W        W38367  14.102   5.688   2.726  0.3342  0.0090 -0.1849
20164W        W38368   4.019   5.360  10.635 -0.1347 -0.2411 -0.3807
20165W        W38369   0.897   8.214  12.466  0.0255  0.1432 -0.2167
20166W        W38370  11.324  11.038  11.842 -0.0320  0.0516 -0.1289
20167W        W38371  14.711   6.610   1.598 -0.1011  0.1198 -0.0777
20168W        W38372   9.279  14.715  12.272 -0.2076  0.0086 -0.2165
20169W        W38373   5.222  16.486  13.905 -0.1418  0.0339 -0.0147
20170W        W38374   9.895  12.322   1.672 -0.1360 -0.0702  0.0929
20171W        W38375   5.492   5.317  12.191 -0.1321 -0.1012  0.0925
20172W        W38376   3.440  16.933  15.382  0.2989 -0.0916 -0.1289
20173W        W38377  16.672  16.998  11.284  0.0024 -0.3054 -0.2471
20174W        W38378   0.221  13.082   4.288 -0.2670  0.1379  0.1284
20175W        W38379   3.510   4.191  14.317 -0.0880 -0.2035 -0.1627
20176W        W38380  10.758  10.038  15.038  0.1019  0.3057 -0.1521
20177W        W38381   9.230  16.344   0.611  0.1313  0.0350 -0.0895
20178W        W38382   3.767  17.160   1.393  0.6079 -0.1726 -0.1508
20179W        W38383  12.392  11.816  11.985  0.2918  0.1022  0.3162
20180W        W38384   6.410  17.723  13.954  0.0840 -0.0017 -0.0218
20181W        W38385  12.597  16.418  13.319  0.0819 -0.1519  0.1352
20182W        W38386   9.740   7.422  13.617  0.0003  0.1397 -0.1012
20183W        W38387  10.510  11.953   0.636 -0.2126  0.1604 -0.2317
20184W        W38388  10.577   0.343   3.077 -0.0357  0.3306  0.2689
20185W        W38389   8.603  10.459  13.144  0.1174  0.1001  0.1815
20186W        W38390   5.248   7.409  11.977 -0.1327  0.2087  0.2098
20187W        W38391   2.188  13.606   1.098  0.3174  0.0132  0.1474
20188W        W38392  14.964   4.776  11.307 -0.0779 -0.2136  0.0438
20189W        W38393   7.908   0.564  14.095 -0.0504 -0.0713 -0.1567
20190W        W38394   3.790  16.417   0.631  0.1666 -0.2362 -0.1345
20191W        W38395  15.092  17.156  13.734 -0.1929 -0.0023 -0.0417
20192W        W38396  14.752  18.392   3.461 -0.0660 -0.0062  0.1339
20193W        W38397  18.300  10.182  12.824  0.2912 -0.0507 -0.0754
20194W        W38398   5.077   7.379   0.046  0.1517  0.0316 -0.2338
20195W        W38399  12.839   9.061  13.723  0.0292 -0.1428 -0.2249
20196W        W38400  18.488   9.844   4.064 -0.0291  0.3865 -0.0987
20197W        W38401   2.180  15.839  13.080 -0.0234  0.1334  0.0152
20198W        W38402   4.702   4.146  14.826  0.0223 -0.2934  0.1107
20199W        W38403  12.803   4.985   4.823  0.0606 -0.1978 -0.0742
20200W        W38404   6.156  14.426   2.121 -0.1356  0.0275 -0.0184
20201W        W38405   5.575  15.374  14.699 -0.0534  0.1628 -0.1278
20202W        W38406   2.837   4.463  13.302 -0.0711 -0.1274  0.2754
20203W        W38407   2.876   7.539  14.052 -0.1266 -0.2607  0.0025
20204W        W38408  13.833  18.419  14.843  0.1008  0.1973 -0.2545
20205W        W38409   8.815  13.044  14.742  0.0250 -0.0195  0.2160
20206W        W38410   3.868   3.339  13.802  0.2080  0.0477  0.1330
20207W        W38411  15.602   5.406   1.307  0.0745  0.0963 -0.0468
20208W        W38412   9.762   0.090   3.066 -0.2638 -0.0449 -0.0115
20209W        W38413   5.416   6.644  11.857 -0.1739 -0.0233  0.0712
20210W        W38414  17.204   2.949  12.335  0.2639  0.2195 -0.0588
20211W        W38415  17.838  14.996  13.807  0.0176  0.1030 -0.1844
20212W        W38416  12.382   5.299  14.643 -0.0110 -0.0663 -0.0716
20213W        W38417  18.033  12.845   2.732 -0.2180 -0.3357 -0.0565
20214W        W38418   9.605   1.513   4.136 -0.3309 -0.2708 -0.2821
20215W        W38419   9.104  14.062  13.083  0.1418 -0.0412 -0.0855
20216W        W38420  17.259   8.480   5.167  0.0762 -0.0202 -0.0594
20217W        W38421   6.859   3.561  13.942  0.2217  0.0200 -0.0786
20218W        W38422  10.636   8.483   4.482  0.0139  0.1947 -0.2206
20219W        W38423   9.108   1.738  13.555  0.0726  0.2808  0.0523
20220W        W38424  16.925  12.272  15.055 -0.2639  0.0031  0.0437
20221W        W38425  14.050   2.863  13.996  0.0002  0.1170  0.4325
20222W        W38426  11.515  11.133   0.186 -0.1498  0.2637  0.1752
20223W        W38427   0.731  15.976   4.433  0.0773 -0.0988 -0.0752
20224W        W38428  14.666   7.063  14.835  0.1857  0.2037  0.0885
20225W        W38429  12.623   2.117   4.036 -0.0950  0.0164 -0.1243
20226W        W38430  11.515   8.429   4.341  0.1882  0.0007  0.1723
20227W        W38431  13.848  10.330  12.687  0.0273  0.0213 -0.2260
20228W        W38432   3.676   5.454  11.934 -0.2097 -0.3801  0.1488
20229W        W38433   9.166  10.690  15.127  0.0568 -0.0969  0.2765
20230W        W38434  15.127   6.122  12.374 -0.0722 -0.0289 -0.1220
20231W        W38435  10.358  14.979   3.346 -0.0210 -0.2851 -0.2088
20232W        W38436   8.016   6.193   3.138 -0.1029 -0.0432  0.2173
20233W        W38437  11.890  14.528  14.726  0.0749  0.5165  0.1844
20234W        W38438   6.680   9.544   4.956 -0.1930  0.1436 -0.1874
20235W        W38439  12.816  12.575   1.654 -0.0518 -0.2340 -0.1763
20236W        W38440   6.132   8.236   0.071 -0.0814  0.2163  0.0422
20237W        W38441   5.343   8.832   0.702  0.2700 -0.0390  0.2385
20238W        W38442  15.756   9.933   0.067 -0.4390 -0.2046  0.1438
20239W        W38443  11.706   8.376   2.718 -0.1059 -0.0473  0.3009
20240W        W38444  14.140  17.273  15.259 -0.0324  0.0705  0.4693
20241W        W38445   5.550  16.014  14.800  0.1334  0.0317  0.1644
20242W        W38446   8.448   6.702   4.123  0.0215  0.2402 -0.0467
20243W        W38447   0.045   3.489   4.401  0.1449  0.1507  0.0026
20244W        W38448   0.077  16.553  13.558 -0.0456 -0.0887  0.2506
20245W        W38449  14.049   4.727  14.351 -0.1331 -0.2992 -0.0923
20246W        W38450   3.622   0.944   3.254 -0.1925  0.0292  0.1111
20247W        W38451   3.028  15.778  14.145  0.3650 -0.0195 -0.1230
20248W        W38452  13.540   9.936   4.088  0.0645 -0.3109  0.1278
20249W        W38453   9.719   7.393  12.644 -0.0898  0.0845  0.1869
20250W        W38454  15.147  15.259  12.620  0.1801  0.0929  0.0310
20251W        W38455   3.025   1.363  12.530 -0.1519  0.1671 -0.0130
20252W        W38456  12.877   7.155   1.953 -0.0705  0.0729 -0.1144
20253W        W38457  10.112   9.579  13.686 -0.1425 -0.2785 -0.0040
20254W        W38458   8.714   1.380  11.188  0.2664 -0.1792  0.2666
20255W        W38459  11.116  14.564   3.139  0.2177 -0.1568 -0.1013
20256W        W38460  10.077  16.201   0.504 -0.0756  0.0514 -0.1307
20257W        W38461   9.635   5.713  12.858  0.1468  0.2367 -0.1047
20258W        W38462   1.108   9.776  14.837  0.0740  0.2386  0.0128
20259W        W38463  15.964   0.946  14.788  0.3413  0.3170  0.1320
20260W        W38464   0.543   6.043  15.256 -0.1441 -0.0290 -0.0336
20261W        W38465  13.244  17.934  10.947  0.0489  0.2399  0.1042
20262W        W38466  16.335   5.886   2.267 -0.3313 -0.1993 -0.0051
20263W        W38467  18.556   2.112  13.876  0.0892 -0.1334  0.2330
20264W        W38468  10.223   5.185  14.486 -0.0831  0.0771 -0.0677
20265W        W38469   9.249  17.475   1.425 -0.1954  0.0830 -0.2312
20266W        W38470   8.373   4.479   3.954  0.3966  0.1328 -0.0921
20267W        W38471  10.214   7.573   4.258 -0.3880  0.1815 -0.3506
20268W        W38472  14.197  17.127  11.084  0.0784 -0.0211 -0.0288
20269W        W38473   5.653  11.469   3.797 -0.0177  0.1755 -0.1151
20270W        W38474   2.631   1.009  15.068  0.3055 -0.0375  0.0965
20271W        W38475  11.154  12.203   0.738 -0.0250  0.0065 -0.0531
20272W        W38476   9.531  14.094  14.602  0.1863 -0.1423 -0.1559
20273W        W38477  17.535  14.954  10.815 -0.1401 -0.0598  0.3062
20274W        W38478  15.140  15.252   3.980 -0.1368  0.1289  0.4514
20275W        W38479  18.278   0.597   1.132  0.0989 -0.2375  0.2805
20276W        W38480   4.650  10.194  12.794 -0.0498 -0.0217 -0.1251
20277W        W38481  10.855  11.588   3.242  0.1084  0.1684  0.1080
20278W        W38482  11.548  11.691  12.521 -0.0784 -0.0262 -0.0488
20279W        W38483   5.909  13.327  11.931  0.1707 -0.0549 -0.1665
20280W        W38484   1.094   1.529   2.430 -0.0462  0.0942  0.0357
20281W        W38485  13.937   4.204   3.086 -0.0759 -0.0091 -0.0316
20282W        W38486  15.740   1.117  12.247  0.0162  0.1942  0.0409
20283W        W38487  16.473   4.749  11.393 -0.2019  0.1397  0.0460
20284W        W38488  16.828   6.464   0.015 -0.0477  0.0508 -0.0464
20285W        W38489   3.003   9.662  15.427 -0.4586 -0.2248 -0.0266
20286W        W38490  15.853   6.652  10.775  0.0151  0.0814  0.0048
20287W        W38491   2.408   7.212   0.468  0.0695  0.2107 -0.2698
20288W        W38492  10.725   8.157   1.689  0.0575  0.2530  0.0434
20289W        W38493  18.304  14.243  11.098  0.0676 -0.3502 -0.1977
20290W        W38494   9.824  17.924  11.886 -0.0481  0.6145  0.0032
20291W        W38495  16.421   6.587  13.742  0.0331 -0.0346  0.1108
20292W        W38496   2.398  13.987   0.644  0.0962  0.1177 -0.0654
20293W        W38497  18.538   6.525   0.935  0.1790 -0.0400 -0.0370
20294W        W38498   7.326  11.634  14.720  0.1468 -0.1567  0.1000
20295W        W38499   9.192  17.827  14.819 -0.0031 -0.0468  0.2986
20296W        W38500  17.397   9.368  13.179 -0.0421  0.0580 -0.1692
20297W        W38501  12.766   7.987  14.488  0.0006  0.1417  0.1625
20298W        W38502   3.049  16.410  13.320 -0.0275  0.1211 -0.0744
20299W        W38503  14.817  18.503  13.749  0.1578  0.0621 -0.1064
20300W        W38504  16.936  17.012  13.412  0.1802 -0.1306 -0.0061
20301W        W38505   6.965   7.522  11.475  0.1929 -0.0228 -0.1998
20302W        W38506  11.543  18.203   4.089  0.1696 -0.0512  0.2134
20303W        W38507   3.979   5.468  12.385 -0.1234  0.1703 -0.1276
20304W        W38508   5.608   7.756   0.618  0.2013  0.1262 -0.3030
20305W        W38509   0.821  14.381  10.305 -0.1504  0.2441  0.1249
20306W        W38510   3.905   8.462  14.479 -0.2764 -0.0105 -0.0170
20307W        W38511   7.832   1.351  12.398  0.2362 -0.2891  0.0777
20308W        W38512   8.877   5.305  12.742 -0.2084  0.0701 -0.0070
20309W        W38513   9.392   4.119  13.612  0.0454 -0.0353 -0.0738
20310W        W38514   7.599   6.221  12.210  0.0149  0.1449 -0.0023
20311W        W38515   2.360  16.361  12.189  0.2389  0.1440  0.2561
20312W        W38516   9.059  13.272  13.177 -0.1427 -0.0272  0.3209
20313W        W38517  10.217   1.270   4.771 -0.1971 -0.1771  0.1420
20314W        W38518   2.556   0.380  11.760 -0.1453 -0.0650 -0.0914
20315W        W38519  17.333   5.320  12.401  0.0373  0.2985  0.0630
20316W        W38520   3.026  18.340   1.583  0.1241 -0.0257 -0.0147
20317W        W38521  18.245  12.834   4.377 -0.1649 -0.1911 -0.0921
20318W        W38522  12.897  11.127  13.848 -0.0715 -0.3025  0.1928
20319W        W38523   8.099  13.735   3.225 -0.0071  0.1298 -0.0158
20320W        W38524   6.169  13.274   3.333 -0.0886  0.1032  0.2021
20321W        W38525  16.410   9.134  13.254 -0.1756 -0.1026 -0.2267
20322W        W38526  12.232   8.254  11.678 -0.0298  0.0148 -0.1252
20323W        W38527   9.872  15.583   3.990  0.1744 -0.1283  0.2046
20324W        W38528  18.301  13.254   2.636 -0.1957 -0.2715  0.1541
20325W        W38529  18.099  13.466  14.509  0.1381  0.3334 -0.1495
20326W        W38530   8.258   9.813   3.911  0.0271 -0.1219  0.3399
20327W        W38531  14.162  13.443  12.439 -0.0591 -0.2252 -0.3410
20328W        W38532  10.379  15.657   3.867  0.3439  0.2672 -0.2774
20329W        W38533   7.837  16.610   4.255 -0.0534  0.0282  0.1954
20330W        W38534  14.592  13.177  14.868  0.2799  0.1042 -0.1258
20331W        W38535   3.831   7.306  14.974 -0.1401  0.1981  0.0806
20332W        W38536  10.665  13.735  10.951 -0.2612  0.0431  0.0695
20333W        W38537   1.805  11.814   3.547 -0.2509 -0.0116  0.0890
20334W        W38538   5.477  12.542  12.223  0.1713  0.1294  0.2156
20335W        W38539  13.270   5.534   2.630  0.0950  0.0972 -0.3118
20336W        W38540  13.775   9.004   1.679  0.2912 -0.0533 -0.2889
20337W        W38541  10.975  14.620  12.977  0.2251 -0.2239  0.0749
20338W        W38542  12.636   9.108   1.565  0.1390  0.0605  0.0313
20339W        W38543  18.219  16.749   1.653  0.0544  0.3022 -0.2565
20340W        W38544   1.207  14.848  14.921  0.0017 -0.1730  0.1066
20341W        W38545  14.580  10.935  14.978  0.0162  0.0972 -0.0811
20342W        W38546   3.715  16.334   3.405  0.0885  0.3120  0.0377
20343W        W38547   8.555   2.832  11.767  0.0467  0.0473 -0.2015
20344W        W38548   5.611  12.702   1.717  0.2079  0.2986 -0.4821
20345W        W38549  14.344  12.884  14.525 -0.0799  0.1307  0.3195
20346W        W38550  14.209   1.618   1.617  0.1131 -0.2306 -0.2147
20347W        W38551   5.452  16.759  15.237 -0.1557 -0.1084 -0.1825
20348W        W38552   8.439  17.164  14.939 -0.0110 -0.1470  0.1645
20349W        W38553   8.780  13.144  12.657 -0.3865 -0.1488  0.0273
20350W        W38554   8.048  17.923   4.232 -0.0923  0.2059 -0.0297
20351W        W38555   2.524   5.094  12.152  0.1849 -0.0251  0.3614
20352W        W38556  14.584   6.094   5.534  0.2172  0.1904 -0.2793
20353W        W38557   7.245  11.960   1.399 -0.0442  0.0251  0.0111
20354W        W38558   6.912  12.138  11.752 -0.0423  0.1713 -0.2181
20355W        W38559  15.362   5.274  11.938  0.0865 -0.0427 -0.1050
20356W        W38560  15.242   6.180  14.505 -0.0412 -0.1403  0.0728
20357W        W38561   9.431   6.562  13.224 -0.0663  0.2834 -0.1536
20358W        W38562   8.290   6.819  11.254 -0.0800 -0.1810 -0.0407
20359W        W38563   6.021   4.710  15.396  0.1001  0.1434  0.3065
20360W        W38564   4.964   6.898  13.576 -0.0627  0.0770  0.2049
20361W        W38565   8.828  12.252  12.175 -0.1741  0.0626  0.0442
20362W        W38566  15.782  17.388   4.847 -0.1994 -0.1480  0.1427
20363W        W38567   9.857  16.911   3.386  0.0759  0.2021  0.1864
20364W        W38568  14.993   5.145   1.239 -0.0930 -0.0399 -0.0884
20365W        W38569  12.584   2.925   2.292  0.0716  0.0254  0.1038
20366W        W38570   7.887  14.213   4.620  0.2979 -0.0181  0.1341
20367W        W38571   2.300   3.335   2.596 -0.1858  0.3464  0.2861
20368W        W38572  11.969  12.834   2.491 -0.0207 -0.1563  0.1112
20369W        W38573   5.889  17.883   2.619  0.1286  0.1082 -0.1357
20370W        W38574   5.968  10.795   3.042  0.2865  0.2546 -0.0522
20371W        W38575   8.762  11.315   4.319 -0.1264  0.1627 -0.2107
20372W        W38576  17.370  13.150  12.027 -0.4844 -0.0541 -0.0859
20373W        W38577   0.670   1.218  13.646  0.0756  0.2664  0.0601
20374W        W38578   2.386   1.361  11.714  0.1310  0.1052 -0.0775
20375W        W38579   3.438  10.576   0.963  0.0171 -0.2679 -0.0525
20376W        W38580   7.944   7.450  13.720  0.1616  0.1314 -0.0995
20377W        W38581  12.082   4.512   1.864  0.1690  0.1069 -0.1100
20378W        W38582  13.694   1.432  13.762 -0.1474 -0.1026  0.1622
20379W        W38583  15.799   1.395  14.254 -0.1898  0.0251  0.0471
20380W        W38584  15.423  12.331  13.747  0.0354 -0.0222 -0.0754
20381W        W38585   7.643  14.109  14.892  0.0030 -0.1947  0.0292
20382W        W38586  11.282  12.037   0.266  0.0706 -0.0758 -0.3682
20383W        W38587   7.039   4.022  10.927 -0.1753 -0.0167  0.0233
20384W        W38588  16.512  16.846   1.929  0.1806  0.0229 -0.0623
20385W        W38589   9.728  17.985  13.431  0.0269 -0.0829  0.2699
20386W        W38590  14.490  18.112  12.923 -0.0145 -0.2364  0.1227
20387W        W38591  17.302  11.488   0.818  0.1493 -0.5261  0.2106
20388W        W38592   7.496  11.219  12.950 -0.1608  0.0659 -0.1095
20389W        W38593  12.369  17.969   2.113  0.1553 -0.2796 -0.1199
20390W        W38594  10.900   1.462   1.628  0.2361  0.1154  0.1072
20391W        W38595   3.157   9.850  13.711 -0.0121 -0.1590  0.1562
20392W        W38596   4.503  12.624  15.320  0.1904  0.2927  0.0823
20393W        W38597   6.225  17.138   3.174  0.1519 -0.1172  0.3933
20394W        W38598   7.273   0.128  14.785 -0.4892 -0.0616 -0.0922
20395W        W38599   2.076   2.441   0.259  0.2674  0.1044  0.4729
20396W        W38600  11.297  15.259   0.892  0.0988  0.2695  0.1618
20397W        W38601  14.482  14.945   0.897  0.5057 -0.1357  0.0931
20398W        W38602   1.559  12.616   3.895 -0.1800 -0.0995  0.0668
20399W        W38603  15.372  18.587   0.815  0.0158  0.1859  0.1011
20400W        W38604   5.797   6.711   1.263  0.1132  0.1509  0.1582
20401W        W38605  13.363  14.042  13.080 -0.0599 -0.0350 -0.1648
20402W        W38606  14.548  18.027  13.799 -0.1015  0.0864 -0.1753
20403W        W38607   3.947  17.445  11.372 -0.1993 -0.2036 -0.1936
20404W        W38608  13.294  10.629   1.571  0.1640 -0.2076 -0.0209
20405W        W38609  15.193   3.086   1.635  0.0692 -0.0200 -0.0841
20406W        W38610  10.059   8.322   3.068 -0.2788  0.1785 -0.0560
20407W        W38611   4.284   0.600  11.541  0.1409  0.0960  0.2948
20408W        W38612   4.664   3.354   4.052  0.0971  0.1442  0.2127
20409W        W38613   0.330  17.283  12.724 -0.1173  0.1620  0.1474
20410W        W38614   8.293   2.184   0.799  0.0970 -0.0814  0.2308
20411W        W38615   4.082   4.733   3.763 -0.1755 -0.0767 -0.2484
20412W        W38616  12.621   7.291   2.777 -0.3943  0.4337  0.3713
20413W        W38617  12.449   2.527  13.652  0.3004 -0.4008  0.0050
20414W        W38618  11.297  17.525  14.847 -0.2383 -0.0617 -0.2252
20415W        W38619   0.364  18.321  13.939  0.0979  0.1043  0.0801
20416W        W38620  17.081   4.077  14.107 -0.1328 -0.1730 -0.0996
20417W        W38621  13.440   0.311   3.594 -0.0610  0.1427 -0.1570
20418W        W38622   5.328  15.524  10.267 -0.1664  0.2234  0.0585
20419W        W38623  16.817  14.484   5.165 -0.2600  0.0785  0.0115
20420W        W38624   6.253   1.701   2.512  0.2102 -0.2761 -0.2011
20421W        W38625   4.976  16.254   3.639 -0.1097  0.1529 -0.4039
20422W        W38626   3.094   6.234  14.698 -0.5118  0.4021  0.0111
20423W        W38627   0.499   0.246   3.029  0.2473  0.1179  0.1918
20424W        W38628  10.750  17.097  13.369 -0.0064 -0.0185  0.0197
20425W        W38629   4.214  13.768   1.327 -0.0987 -0.2046  0.0883
20426W        W38630   4.066  11.950   4.550 -0.1016 -0.0886 -0.0249
20427W        W38631   5.151  10.973   0.717 -0.3652 -0.0132 -0.0133
20428W        W38632   2.621   2.415  12.897  0.1289 -0.0754  0.0051
20429W        W38633  13.040   6.598  14.240 -0.2841 -0.0358 -0.0813
20430W        W38634   2.318  13.212   2.074  0.0084  0.2106  0.1576
20431W        W38635  11.631   1.479   3.261  0.1154 -0.5291 -0.3038
20432W        W38636  14.107  13.051   1.246  0.1837 -0.0042  0.1635
20433W        W38637   3.848   8.343   5.021  0.1031  0.1730  0.2232
20434W        W38638  10.855   1.459   5.441 -0.0730  0.0055 -0.1030
20435W        W38639  15.919   2.328  12.045 -0.0405  0.0224 -0.0349
20436W        W38640   0.156  16.253   2.133 -0.0110  0.0123  0.0399
20437W        W38641  10.324   4.461  13.756 -0.0441  0.3563  0.6193
20438W        W38642   0.143  16.937  13.220 -0.3196 -0.1438 -0.1911
20439W        W38643  15.380   6.926  12.829 -0.0981  0.1121  0.0876
20440W        W38644  10.152  10.098   1.769  0.0164  0.0907  0.1999
20441W        W38645  11.390  13.052   1.777  0.2357  0.1881  0.2013
20442W        W38646  16.715  17.655   3.119 -0.1345 -0.0025  0.0480
20443W        W38647  13.905   8.575  10.747 -0.2113  0.1178 -0.1169
20444W        W38648   8.833  14.581  10.989 -0.2188 -0.1613 -0.1377
20445W        W38649  18.598  13.906  12.734 -0.1065  0.1557  0.1016
20446W        W38650  10.914   4.362  15.241  0.1598 -0.1458 -0.0220
20447W        W38651  14.754   5.471  14.291  0.1621  0.3591 -0.0728
20448W        W38652  12.198  10.842  13.392  0.0333 -0.1842 -0.0207
20449W        W38653   2.238   1.509   4.490  0.2265 -0.2254 -0.2327
20450W        W38654   9.259  17.465   5.014  0.1309 -0.1211 -0.3295
20451W        W38655   2.450  16.193  11.185  0.0146 -0.0163  0.2164
20452W        W38656  10.808  12.467  12.811  0.1052  0.1002 -0.2429
20453W        W38657  12.224  10.297  10.883  0.0468 -0.0971  0.1749
20454W        W38658  17.539   1.536   3.622  0.1899  0.0282  0.0699
20455W        W38659  15.176   1.081  12.361  0.1033  0.1678  0.1108
20456W        W38660   9.940   0.710  13.284  0.0334  0.0456  0.1040
20457W        W38661  12.863   6.642  11.979  0.0386  0.1594 -0.0396
20458W        W38662  11.108  13.092   0.370  0.0733 -0.2868  0.0490
20459W        W38663   7.298   0.738   1.916  0.2589 -0.3031  0.0815
20460W        W38664  15.473   1.780   4.209  0.1046  0.0089  0.1646
20461W        W38665  18.320   4.352   4.481 -0.0568 -0.0382 -0.2376
20462W        W38666   6.758  18.546  13.532 -0.2183  0.4990  0.0566
20463W        W38667  13.800   3.040   1.016 -0.2020  0.1138 -0.1189
20464W        W38668   8.374  11.759  14.322  0.1841 -0.0160  0.0499
20465W        W38669  15.848   3.081   2.896 -0.1928 -0.0967  0.1203
20466W        W38670  10.923   0.395  14.687  0.0000  0.0521  0.0740
20467W        W38671   8.715  16.400   0.668 -0.0251 -0.0255  0.2596
20468W        W38672  13.038  15.658   0.813 -0.0102 -0.1960  0.2150
20469W        W38673  18.379  12.794  15.438 -0.1361  0.0095  0.0006
20470W        W38674   0.812   8.371  11.770 -0.1325 -0.0791 -0.1350
20471W        W38675   2.420   2.947   1.268 -0.2458 -0.0307  0.2525
20472W        W38676   6.201  15.845  11.664 -0.0243 -0.2752  0.2423
20473W        W38677   6.665   6.583  15.249  0.0137 -0.0435 -0.1724
20474W        W38678   2.892   3.100   3.299 -0.2536  0.1320  0.1312
20475W        W38679  18.361   5.458   3.070 -0.0272  0.1166 -0.2310
20476W        W38680   6.342  14.882  14.072  0.0076  0.0814 -0.1608
20477W        W38681   0.453   1.462  14.416 -0.2648 -0.3021  0.0600
20478W        W38682   8.808  17.674  10.529  0.1107  0.2933  0.2246
20479W        W38683  15.072  18.300  14.152 -0.0415  0.3096 -0.2422
20480W        W38684   5.879   1.338   3.105  0.2429 -0.2581 -0.1745
20481W        W38685  11.675  12.263  12.279  0.3652 -0.1499  0.0916
20482W        W38686   9.686   2.223   2.225  0.1576  0.1180  0.0922
20483W        W38687   3.581   2.951  14.090  0.1903 -0.0493  0.3636
20484W        W38688  11.182   7.577  14.337  0.0565 -0.1364  0.3323
20485W        W38689   3.714   5.211  12.892  0.1550  0.1596 -0.0312
20486W        W38690  17.844   1.083  11.467 -0.0272  0.1846 -0.1226
20487W        W38691   6.198  10.623   2.106  0.0453  0.4054  0.0735
20488W        W38692  10.092   1.813  11.017  0.0241 -0.2295 -0.1898
20489W        W38693  16.593  14.632   3.362  0.2066 -0.0824  0.1123
20490W        W38694   9.398  18.551  13.352  0.0346 -0.2219  0.0573
20491W        W38695   2.514   6.704  10.919  0.1587 -0.2327  0.2076
20492W        W38696   3.974  17.565  14.496  0.1347 -0.2776 -0.0128
20493W        W38697   4.247   4.859  11.487 -0.1380  0.5095 -0.1785
20494W        W38698   4.062   9.563  15.257  0.0854  0.0632 -0.0602
20495W        W38699  13.326  18.468  11.622  0.3000 -0.1878  0.2219
20496W        W38700   9.350   6.794  13.743 -0.2816  0.4595  0.0928
20497W        W38701   4.377   2.633  12.378  0.0124  0.1301 -0.1874
20498W        W38702   6.056  15.638  10.708 -0.1273  0.0156 -0.2359
20499W        W38703   0.441   8.108   3.449  0.0152 -0.0930 -0.0662
20500W        W38704  12.794   5.866  11.552 -0.0619  0.1259  0.2227
20501W        W38705   8.514  10.242  11.001  0.0184  0.0767  0.1260
20502W        W38706   2.814  10.225  13.548  0.0064 -0.1328  0.1805
20503W        W38707  13.242  16.136  13.560  0.1880  0.0784 -0.2625
20504W        W38708  17.331  17.314  14.324  0.0380 -0.0269 -0.2773
20505W        W38709  18.188  14.284   0.594 -0.1597 -0.0508  0.2364
20506W        W38710  16.936  15.468  14.745 -0.1949  0.0907 -0.0782
20507W        W38711   1.698  11.845  11.042 -0.1805 -0.0302 -0.1131
20508W        W38712   9.166   5.074  11.613 -0.3699  0.0357  0.3407
20509W        W38713   3.438  14.944   2.766  0.2901 -0.1040  0.2435
20510W        W38714  13.240   9.452  14.429 -0.0953  0.0367 -0.2641
20511W        W38715  15.111   6.563   0.705  0.0206 -0.0221 -0.1191
20512W        W38716  15.344   8.558  11.160 -0.1593 -0.3015  0.1607
20513W        W38717   5.646  17.253   4.560  0.3506 -0.0683 -0.0017
20514W        W38718  11.091  15.615  15.146  0.1448 -0.0289  0.1650
20515W        W38719   5.775  16.841  11.385  0.5104 -0.0772  0.0231
20516W        W38720  13.112  12.426  13.951  0.2302 -0.1383  0.1021
20517W        W38721  18.445   8.279   0.618 -0.2885 -0.2159 -0.0385
20518W        W38722  11.243   9.997   2.289 -0.3272 -0.2072  0.0809
20519W        W38723   7.791   6.640  11.957  0.2686 -0.0016  0.0909
20520W        W38724  10.731   6.680  12.885 -0.0267 -0.0461 -0.1704
20521W        W38725   2.557  11.587   2.214 -0.0564  0.2633  0.0391
20522W        W38726   9.307  13.032   3.156  0.0277  0.0603  0.2829
20523W        W38727   4.292  17.927   0.412 -0.0042  0.1076 -0.0766
20524W        W38728   2.429   5.985  14.538  0.0391 -0.2259 -0.0009
20525W        W38729  10.057  17.751  12.343  0.1937  0.1951 -0.0935
20526W        W38730  11.920   5.438   2.863  0.1567  0.2770  0.0809
20527W        W38731   5.762  15.590  13.812 -0.3515  0.0215  0.0719
20528W        W38732  17.535   6.230  13.689 -0.0312 -0.2019  0.2091
20529W        W38733   6.988  10.251   3.796 -0.2176  0.0520 -0.1980
20530W        W38734  10.382  10.138  15.370 -0.2560  0.2767  0.1558
20531W        W38735  14.567   1.174   4.686  0.1344  0.1816 -0.0099
20532W        W38736   8.903  16.896   4.104 -0.0495  0.1782 -0.0900
20533W        W38737   8.782   7.906  14.989  0.0719  0.1052 -0.0362
20534W        W38738   9.224   4.108  12.655 -0.0606 -0.0010  0.1320
20535W        W38739  16.635   6.600  10.427  0.0479  0.1484  0.3788
20536W        W38740  10.251   6.071   2.523  0.2719  0.2055 -0.0601
20537W        W38741  10.767   7.611   1.690 -0.2142  0.0369  0.0624
20538W        W38742  17.127  15.227   4.491 -0.0285  0.1823  0.0976
20539W        W38743  15.723  13.201  13.884  0.0193  0.3468  0.0629
20540W        W38744   1.847  10.818   5.094  0.2444  0.1117  0.2196
20541W        W38745   9.069   0.488  12.287  0.0159  0.5228 -0.0778
20542W        W38746  17.457  17.432   0.651  0.0389 -0.0872 -0.4630
20543W        W38747   7.439  12.950  13.377  0.1101  0.0735  0.0534
20544W        W38748   2.619   4.147   1.804 -0.3112 -0.2057 -0.1856
20545W        W38749   7.476   3.183   0.813  0.1870 -0.3357 -0.0661
20546W        W38750   3.935  10.694   3.164  0.2003 -0.1533 -0.2232
20547W        W38751  15.353   9.728   5.188  0.0046 -0.0886 -0.1080
20548W        W38752   4.605   1.226   4.142 -0.1977  0.1967 -0.0788
20549W        W38753  15.553  11.257  14.051  0.0644  0.2246 -0.0597
20550W        W38754   5.872  15.384  11.101  0.3852  0.1293 -0.0603
20551W        W38755  15.643   7.954   4.117 -0.1332 -0.1485 -0.1710
20552W        W38756   5.935   2.264   0.666  0.3249 -0.2673  0.0778
20553W        W38757  11.492   8.284  10.095 -0.2461 -0.1957 -0.2540
20554W        W38758   3.495  11.232   1.922 -0.1859  0.1963  0.0367
20555W        W38759  12.805   7.690   3.392 -0.1069 -0.3437  0.1100
20556W        W38760  13.306   1.987   2.251  0.0852 -0.0075 -0.1300
20557W        W38761  10.067   0.619   0.177  0.0145 -0.0244  0.0906
20558W        W38762   0.599   0.419  13.480 -0.0979 -0.0881 -0.0877
20559W        W38763   2.102   4.892  12.241 -0.0396 -0.0556 -0.3576
20560W        W38764  11.798  13.105  10.756 -0.0571  0.0167 -0.2206
20561W        W38765  12.049  11.919   2.371 -0.0450 -0.0766 -0.3418
20562W        W38766   6.025  18.081  15.268  0.0334  0.0248 -0.3024
20563W        W38767   7.331   1.149  12.376 -0.0225  0.3276  0.2463
20564W        W38768  13.802   7.214   4.273  0.0047 -0.0873 -0.0159
20565W        W38769  16.256  11.939   0.310  0.0106 -0.0391  0.0845
20566W        W38770  14.390   0.787   4.345  0.1089  0.1628 -0.1665
20567W        W38771   8.292  16.206  12.561  0.2524  0.1174 -0.0892
20568W        W38772   9.258  16.626  13.586  0.4223 -0.0003  0.0922
20569W        W38773  16.059  11.360   2.008  0.0072 -0.0854 -0.1874
20570W        W38774  11.333   4.064  13.554 -0.0210  0.1116 -0.0680
20571W        W38775  16.556   6.772   3.755  0.0557 -0.0251  0.0494
20572W        W38776  16.581   8.361   2.599  0.0940 -0.0107  0.0190
20573W        W38777   2.621  12.539   2.611 -0.0379  0.2025 -0.0583
20574W        W38778   7.983   8.511   0.547 -0.1928  0.0852 -0.0280
20575W        W38779   8.575  17.704  12.449 -0.2277 -0.0340  0.2263
20576W        W38780   3.180  14.674   1.974  0.1494  0.0395 -0.1123
20577W        W38781   2.144  13.106   1.109 -0.0443 -0.0802 -0.0038
20578W        W38782  16.332  15.527   0.948  0.1576  0.0890 -0.1652
20579W        W38783  14.203  16.904  12.451 -0.3242 -0.1716  0.2968
20580W        W38784   3.657  17.824   3.756  0.0793  0.0335 -0.1610
20581W        W38785   5.203   2.814  15.078  0.2700 -0.2853 -0.1086
20582W        W38786   4.808  14.484  13.127  0.3186  0.0332 -0.1333
20583W        W38787   5.972   4.329   1.967 -0.0584  0.1283  0.0684
20584W        W38788  15.982   1.962   1.740  0.0842  0.1081  0.0934
20585W        W38789  14.687   3.941  12.829 -0.1805 -0.2460 -0.0528
20586W        W38790   4.952  11.294  15.246  0.1362  0.0729  0.1039
20587W        W38791   1.546  17.740  14.288  0.2017 -0.0843  0.0871
20588W        W38792   3.939   9.050  11.604  0.2540  0.2092  0.2012
20589W        W38793   6.131   7.607  13.547 -0.3550  0.0515  0.0414
20590W        W38794   2.481  10.223  11.049  0.1412  0.1666 -0.1134
20591W        W38795   2.285   0.048  12.634  0.1876 -0.1300 -0.1652
20592W        W38796  10.077  17.182   4.645  0.1299  0.0120  0.0246
20593W        W38797  13.780   7.709   2.598 -0.2235  0.1522  0.0704
20594W        W38798  17.695   8.485  12.891 -0.0715  0.1305  0.0193
20595W        W38799  18.482  15.836  12.146  0.1468  0.0501  0.2538
20596W        W38800   9.711   5.262   5.595 -0.2658 -0.3164 -0.4490
20597W        W38801   8.497   2.630  14.907 -0.1219 -0.0342 -0.4101
20598W        W38802   6.947  16.891   3.084  0.2309  0.0235  0.2100
20599W        W38803   9.704  17.559   4.192 -0.0502 -0.0343 -0.4082
20600W        W38804   0.121  11.780   2.331 -0.4983  0.3173  0.0105
20601W        W38805   7.607  13.825   2.761  0.1708  0.3474 -0.1021
20602W        W38806   6.058  17.017  10.898  0.1510  0.1000  0.0127
20603W        W38807   0.590   1.130   3.898  0.1362  0.1237 -0.1551
20604W        W38808  14.063   0.690   0.469  0.3499 -0.0791  0.2004
20605W        W38809   4.373  14.335  14.956 -0.1994  0.0971  0.2053
20606W        W38810  11.782  16.029   0.631 -0.0053 -0.1118 -0.1806
20607W        W38811   7.637  10.153   2.057 -0.1910  0.0035  0.0214
20608W        W38812   3.550  13.529  10.515  0.0241 -0.0299  0.1051
20609W        W38813  18.532  14.525  12.798 -0.1458  0.0851  0.3925
20610W        W38814   7.635   9.846   0.696  0.1549 -0.0783  0.0091
20611W        W38815   0.133   8.920   2.837 -0.1040 -0.0490  0.0768
20612W        W38816   3.544   1.492   2.625 -0.1443  0.1926  0.2528
20613W        W38817   7.618  16.498  11.640  0.2306 -0.0394 -0.0798
20614W        W38818   2.421  13.027  14.156 -0.0532  0.2616 -0.3933
20615W        W38819   9.172   0.058   3.905 -0.0059 -0.1544  0.0790
20616W        W38820  17.317  14.508   4.728 -0.1278 -0.1323  0.0635
20617W        W38821   7.251  17.498   3.038 -0.2336  0.1163  0.1106
20618W        W38822   3.390   7.190   2.579  0.4484  0.1105 -0.0212
20619W        W38823  12.169   4.985   3.787 -0.2316 -0.2557 -0.1086
20620W        W38824   8.103   4.906  12.277  0.1566  0.1734  0.1177
20621W        W38825   2.915  18.231  14.829  0.3334 -0.0785  0.0061
20622W        W38826  12.367   1.132  14.177 -0.1409  0.1801 -0.0081
20623W        W38827  16.089  15.247   1.976 -0.1116 -0.3289 -0.1483
20624W        W38828  15.008   6.637  14.300  0.0613  0.0633  0.0957
20625W        W38829   3.101  15.010  15.406  0.2276  0.0653 -0.1236
20626W        W38830   9.093  12.953  11.223  0.0399  0.1345  0.0367
20627W        W38831   7.409  15.770  14.521  0.1517  0.0781 -0.1397
20628W        W38832  15.336   6.134   3.250 -0.0835 -0.1565 -0.3212
20629W        W38833   5.020   1.516  12.447 -0.0372 -0.1696 -0.0096
20630W        W38834   9.295   8.937  13.900  0.0149  0.1128 -0.0808
20631W        W38835  10.699  11.889  15.133  0.3262  0.0126  0.2966
20632W        W38836  16.183  14.433  15.443  0.0660 -0.0603 -0.2450
20633W        W38837  15.035   3.499   0.806 -0.1614  0.1148  0.0850
20634W        W38838  12.747   0.638  14.659 -0.0100 -0.2516 -0.1648
20635W        W38839  14.599  14.560   4.882  0.2202  0.0376  0.1238
20636W        W38840  15.108  15.311  13.713 -0.3839  0.1209  0.1168
20637W        W38841   7.350  16.390  12.723  0.0910  0.1410  0.0242
20638W        W38842  12.683  17.103  15.034 -0.0288  0.0998  0.1659
20639W        W38843   5.197   7.710   4.414  0.3753  0.1876 -0.2547
20640W        W38844   2.322  18.394   0.650  0.1244 -0.0219  0.2262
20641W        W38845   3.019  12.872   0.155 -0.0020  0.0028  0.2116
20642W        W38846   0.632  14.315  15.410  0.0154  0.1378 -0.2209
20643W        W38847  11.357   1.632  11.685  0.0346 -0.2497  0.1160
20644W        W38848   4.237   2.360  13.613 -0.0442  0.0892  0.0700
20645W        W38849  14.040  12.757   3.329  0.5411  0.0950 -0.0491
20646W        W38850   1.669   1.496  12.662  0.1574  0.1239 -0.2118
20647W        W38851  18.108   0.379   3.450 -0.1296  0.1134 -0.0665
20648W        W38852   1.189  10.127   4.667 -0.1432 -0.2397  0.0664
20649W        W38853   2.646  11.723  13.891 -0.0882  0.0644 -0.0312
20650W        W38854   5.489  11.115  15.323  0.1490  0.1603  0.1881
20651W        W38855  17.328  15.690   4.621  0.1071  0.0435 -0.1784
20652W        W38856  18.585   1.192  12.075  0.0457 -0.3623  0.2708
20653W        W38857   0.342   0.068  11.384  0.1340 -0.1866 -0.2885
20654W        W38858   0.250   6.489  10.433 -0.1028 -0.0530 -0.0809
20655W        W38859  13.057   2.262   1.287 -0.0367  0.2785  0.1097
20656W        W38860   1.774   7.603   3.702  0.0831  0.1822  0.0342
20657W        W38861  10.978  14.788  14.838  0.1926 -0.2670 -0.1254
20658W        W38862   1.681   1.993  12.534 -0.4961 -0.1227  0.1417
20659W        W38863  10.248  11.853   4.112 -0.0025 -0.0897 -0.0426
20660W        W38864  17.008   5.381   1.314  0.0510 -0.1438 -0.2793
20661W        W38865  16.102  11.130   0.348 -0.3309  0.0860 -0.1894
20662W        W38866  15.989   9.063   3.254 -0.1646 -0.4098  0.0134
20663W        W38867  13.484  14.584   1.347 -0.1722 -0.0680  0.4709
20664W        W38868  12.542   7.585  14.683  0.0780  0.3026 -0.1867
20665W        W38869   7.839  12.286  12.170 -0.0668 -0.1054  0.3643
20666W        W38870  13.931  17.701  15.445 -0.0325 -0.1509 -0.2789
20667W        W38871   6.022  18.364   1.491 -0.1572 -0.1415 -0.0376
20668W        W38872   5.552   7.437   0.199  0.0917  0.1676  0.1815
20669W        W38873  10.113   4.204   0.328 -0.1386  0.0422 -0.2089
20670W        W38874   7.223  18.204  13.358  0.2244  0.4081  0.0852
20671W        W38875   7.837  14.885  13.129 -0.2455 -0.2140  0.0086
20672W        W38876  10.779  17.724   1.018  0.0041 -0.0491 -0.2262
20673W        W38877  17.034   8.691   2.329 -0.1527  0.2065  0.2067
20674W        W38878   4.860   4.849  14.600  0.1284 -0.2237  0.0406
20675W        W38879   4.935  12.592   2.590  0.1362 -0.1344  0.0789
20676W        W38880  11.006   5.651  12.596 -0.3025  0.1895 -0.1876
20677W        W38881  12.940  14.399  12.308 -0.0113  0.2470  0.0653
20678W        W38882  16.256  14.013  15.150 -0.0885  0.0694 -0.3359
20679W        W38883   5.176  15.120   9.967 -0.2138 -0.0401  0.2538
20680W        W38884   4.616   4.831  11.831 -0.2497  0.0722  0.0163
20681W        W38885  10.947   0.743  13.574  0.2001  0.2057 -0.0338
20682W        W38886   5.214  16.151  11.100  0.2495 -0.2459  0.2978
20683W        W38887   3.927   5.822   0.773 -0.1400  0.3637 -0.0527
20684W        W38888   0.701   1.960   0.079  0.0850 -0.2432  0.1309
20685W        W38889  17.499   5.355  12.912  0.0260 -0.2247 -0.1224
20686W        W38890   8.993   6.573  13.437 -0.3740 -0.0764 -0.2788
20687W        W38891  14.468  10.880   4.367  0.1325  0.0577  0.1714
20688W        W38892  16.740   6.080  10.801  0.0918  0.1346 -0.0511
20689W        W38893   3.646  11.013   0.835  0.0923 -0.2153  0.2797
20690W        W38894  12.768   9.370  14.173  0.0219 -0.0148  0.0084
20691W        W38895   3.365  10.141  10.966  0.1254 -0.1273 -0.1564
20692W        W38896   6.393  11.290  13.781  0.1073  0.0719 -0.0006
20693W        W38897   2.134   1.903   2.888  0.2155  0.0860  0.0596
20694W        W38898   9.588  17.306  14.008  0.1656  0.1636 -0.0795
20695W        W38899  18.131   5.507   4.788  0.3412  0.1121  0.0648
20696W        W38900  17.675   5.399   3.454 -0.0173  0.0425  0.0310
20697W        W38901   1.852  10.527  12.705  0.0836 -0.0770 -0.3402
20698W        W38902   1.476   4.724  13.390  0.0205 -0.0846  0.0551
20699W        W38903   6.404   0.708   4.733 -0.1590 -0.2027  0.2272
20700W        W38904   3.122   5.623  10.946 -0.0267  0.1384 -0.1709
20701W        W38905  15.863  16.484  12.244 -0.2140  0.1535  0.1083
20702W        W38906  16.904  10.786   0.515 -0.1312 -0.0743 -0.0964
20703W        W38907   2.668  13.768   5.845 -0.1542  0.0215  0.0563
20704W        W38908   1.968   7.373   2.662  0.1355  0.0969 -0.0136
20705W        W38909   1.324   0.587  14.732 -0.0739 -0.0859 -0.2721
20706W        W38910   0.802  17.047  12.558  0.0874 -0.1102 -0.0749
20707W        W38911   5.821  15.372   0.081  0.0632 -0.2957  0.0668
20708W        W38912  10.425  11.392   1.489  0.2125 -0.1294 -0.0676
20709W        W38913   1.452  12.998   0.383  0.1957 -0.3837 -0.0959
20710W        W38914  10.409  13.892  14.734 -0.1789  0.2333 -0.1658
20711W        W38915   2.776   1.586  13.139  0.0068  0.0062  0.1312
20712W        W38916  13.849   1.820  14.049 -0.2216  0.0296 -0.0078
20713W        W38917   0.183  10.251   4.214  0.1214 -0.2822 -0.0696
20714W        W38918   3.233   8.540   2.360 -0.2637  0.0352 -0.1970
20715W        W38919  15.317   2.900  14.689 -0.0526  0.1325 -0.0766
20716W        W38920  14.618   9.327  11.589  0.0168  0.0797 -0.0526
20717W        W38921   9.792  17.387   5.529 -0.1122 -0.0989  0.3511
20718W        W38922   3.258  16.490  11.217  0.1959  0.0959  0.0051
20719W        W38923  13.751   4.627   3.321  0.3949  0.1184  0.0824
20720W        W38924  10.686   0.225   9.924  0.1270 -0.3172  0.1375
20721W        W38925  17.180  11.063   4.741 -0.0455 -0.3206  0.1374
20722W        W38926   4.062   1.873  11.152  0.2353 -0.2404 -0.2259
20723W        W38927   0.272  16.577   0.197 -0.1479  0.1120  0.0028
20724W        W38928   5.015   6.777   3.873  0.0643  0.1208 -0.4780
20725W        W38929   3.557  16.229  13.309 -0.3852  0.1769  0.1091
20726W        W38930   8.595   3.590   1.908 -0.3954 -0.0745 -0.3207
20727W        W38931  10.833  11.583   0.197  0.3584  0.1680 -0.1925
20728W        W38932   8.460  14.783  15.256 -0.3353 -0.0573  0.0385
20729W        W38933  11.363   5.605   2.349  0.4103 -0.0816 -0.1275
20730W        W38934   7.008   5.543  13.158  0.5398  0.3003 -0.0020
20731W        W38935  17.573  18.425  10.831 -0.1276  0.2711  0.0280
20732W        W38936   8.509   1.293  14.932 -0.1747  0.0204 -0.1295
20733W        W38937   3.276   0.721   1.979  0.1850 -0.1382  0.2516
20734W        W38938   9.813  13.167   1.752 -0.0613  0.0907  0.1689
20735W        W38939  17.824   0.077   4.428 -0.0420  0.1232 -0.1085
20736W        W38940   6.132  11.306   3.932  0.2065 -0.1915 -0.0757
20737W        W38941   7.395  16.432   2.972 -0.0204 -0.0122  0.0646
20738W        W38942   0.768   6.273  13.741  0.0970 -0.0774  0.3697
20739W        W38943  18.066   8.174   0.937  0.2975  0.0995  0.0505
20740W        W38944  15.424   9.590   0.883  0.2873 -0.0004 -0.2502
20741W        W38945   2.198  15.255  10.551  0.1610 -0.0564 -0.1339
20742W        W38946   8.416   3.913  11.905  0.1693 -0.1108  0.2240
20743W        W38947  14.158  18.433  11.141 -0.1169  0.0508  0.2188
20744W        W38948   8.781   7.673  13.668  0.0225 -0.0442 -0.1131
20745W        W38949   4.122   1.758  14.100  0.1311 -0.0608  0.4652
20746W        W38950  13.419  10.749   0.926  0.0296  0.2859 -0.0926
20747W        W38951   2.200   5.046  14.752 -0.2334  0.4242 -0.3580
20748W        W38952   6.745  17.904   4.807  0.1928  0.3113 -0.0138
20749W        W38953  12.607  14.038  11.553 -0.1620  0.0576 -0.2917
20750W        W38954   9.448  13.853  13.445 -0.1611 -0.1263 -0.0792
20751W        W38955   3.322   4.534   2.518  0.0624  0.1028 -0.0519
20752W        W38956  15.547   3.336   0.679 -0.1128 -0.1787 -0.0471
20753W        W38957  15.408   3.458   5.145 -0.1219 -0.1347 -0.1818
20754W        W38958   1.665   0.323  13.882  0.0746  0.2374 -0.2634
20755W        W38959  12.542  11.902   0.617  0.1576  0.0881  0.0183
20756W        W38960  15.742   0.212   1.814 -0.2938  0.1474 -0.4216
20757W        W38961   6.688  10.098   1.772 -0.0046  0.2681 -0.4939
20758W        W38962  11.469   0.337   1.062  0.0689 -0.0087 -0.0951
20759W        W38963  15.533  10.798  13.781  0.2093 -0.3411  0.1937
20760W        W38964   8.060   6.391  14.439 -0.0351  0.1881  0.0453
20761W        W38965  12.055   2.292  12.762 -0.1886 -0.1591 -0.0081
20762W        W38966  10.898  11.884  14.482 -0.0171  0.0383 -0.2689
20763W        W38967   4.494  14.855  13.200 -0.0240  0.0899  0.0636
20764W        W38968   1.601   2.576  11.466  0.1758  0.0263  0.3725
20765W        W38969  16.226   8.081  13.146  0.0465 -0.0771 -0.1121
20766W        W38970  17.229  10.314   3.313  0.2521 -0.3695  0.3676
20767W        W38971  13.113  15.393   1.222 -0.1977 -0.0271 -0.0978
20768W        W38972   4.787   8.655   4.714  0.0350  0.2729 -0.3107
20769W        W38973  15.304  15.293  14.901  0.0295  0.0059  0.3206
20770W        W38974  11.808   7.309  15.326  0.0855 -0.0611 -0.3372
20771W        W38975   6.403   6.871  11.881  0.3683 -0.3465 -0.0286
20772W        W38976   6.972  17.642  11.118 -0.0897 -0.1859 -0.0283
20773W        W38977  17.212   0.578   0.839 -0.0549  0.0496 -0.2165
20774W        W38978   1.149   0.063  12.061 -0.2115  0.0282  0.1003
20775W        W38979  10.551  17.692  12.587 -0.1014  0.1507 -0.0604
20776W        W38980   6.277   4.381   0.321  0.2548 -0.1966 -0.2897
20777W        W38981   5.224   0.940   0.933  0.3935  0.1863  0.0816
20778W        W38982   5.059   4.403   0.854 -0.2430  0.0815 -0.1609
20779W        W38983  12.160  12.106  15.301 -0.0373 -0.1423 -0.0056
20780W        W38984  14.630  14.349   2.047  0.1313  0.4087  0.2331
20781W        W38985   9.324   6.609  15.018  0.3625 -0.2452  0.1319
20782W        W38986  14.134   1.705  12.543  0.0070  0.1610  0.0648
20783W        W38987   4.921   3.417  12.824  0.0781  0.2156  0.0478
20784W        W38988   7.785   4.868  13.280  0.0670  0.1923 -0.3025
20785W        W38989   7.817   2.142  11.599 -0.2081  0.0895  0.1291
20786W        W38990   8.279   3.237  12.640 -0.3540 -0.0393 -0.1634
20787W        W38991   3.948  10.303  12.888  0.4289  0.4632 -0.4030
20788W        W38992   6.058   7.686  12.174  0.0615 -0.1058  0.3211
20789W        W38993   4.222  13.488  15.348 -0.2310 -0.3117  0.0524
20790W        W38994   8.299  10.799   3.752  0.4637 -0.0823 -0.2896
20791W        W38995   4.384   7.195  12.385  0.1067  0.2000 -0.0599
20792W        W38996  14.921   3.541   3.582 -0.0050 -0.4325 -0.2219
20793W        W38997  16.688  10.994   4.850 -0.0841 -0.1592 -0.1310
20794W        W38998   9.344  17.109   4.024  0.1401 -0.1902 -0.0948
20795W        W38999   8.976  14.334   1.234  0.0233  0.0456  0.1318
20796W        W39000   4.597  16.225  10.652 -0.1487  0.0507  0.1634
20797W        W39001  14.030   3.184   2.352 -0.3729  0.1172  0.0604
20798W        W39002   9.493  18.308   0.871  0.2870  0.2009 -0.1899
20799W        W39003  13.768  18.060  14.380 -0.2347 -0.0823  0.1977
20800W        W39004   7.865   2.070   2.789  0.1742 -0.0072  0.0548
20801W        W39005   5.867  18.258  10.655  0.2951  0.2521 -0.2557
20802W        W39006   0.460   8.178   1.810 -0.0109 -0.0841  0.3610
20803W        W39007   6.916  16.718  12.393  0.0434 -0.1116  0.4361
20804W        W39008  15.252  13.364   3.118  0.3602 -0.1006 -0.0149
20805W        W39009   9.533  12.712  14.271 -0.0155 -0.1227  0.1520
20806W        W39010  10.933   0.708  12.806 -0.0788 -0.1220  0.0275
20807W        W39011  18.208   5.035   3.250 -0.0973 -0.2772 -0.1035
20808W        W39012   4.669  18.601  13.388  0.3116  0.0138  0.0424
20809W        W39013   5.047   3.570  12.339  0.1663 -0.1386  0.1805
20810W        W39014  13.580   4.288   0.118  0.1340  0.2324  0.4337
20811W        W39015  16.760   2.479   2.967  0.0947 -0.0601 -0.0704
20812W        W39016   0.959   1.407  14.603  0.0442  0.0975  0.1966
20813W        W39017   1.010  16.967  13.130  0.0761  0.2192  0.0092
20814W        W39018  14.244   7.763  11.164 -0.0310 -0.2559  0.0643
20815W        W39019   4.617  15.570   0.716 -0.1207 -0.0797 -0.4038
20816W        W39020   6.532   3.666  11.027 -0.4266 -0.3117 -0.0099
20817W        W39021  14.856   1.892  10.243  0.1646 -0.2318 -0.4127
20818W        W39022   5.453  18.077  14.394  0.0074 -0.0895  0.0545
20819W        W39023   3.132  12.753   3.333  0.1596 -0.0991  0.3065
20820W        W39024   2.010   9.437  15.432  0.1963  0.1739  0.3724
20821W        W39025  18.263   4.430  14.225 -0.4680 -0.3090 -0.1564
20822W        W39026   6.207   5.199   4.610 -0.1355 -0.0335  0.1496
20823W        W39027  18.493   0.170   1.539  0.1966  0.0217 -0.2403
20824W        W39028   4.325   8.382  14.263  0.0112 -0.2892 -0.1426
20825W        W39029  14.603  15.658   3.179  0.1841  0.1093 -0.0414
20826W        W39030   8.358   3.081  12.185  0.2069 -0.0658 -0.1279
20827W        W39031   5.810   7.194  13.424 -0.0278 -0.2504 -0.0023
20828W        W39032  11.562  10.242  13.274 -0.1764 -0.2163  0.1099
20829W        W39033  17.007  15.165   4.057  0.2278 -0.0034 -0.0990
20830W        W39034  16.300   7.102  11.250  0.1070  0.3180 -0.2280
20831W        W39035   0.068   6.076   1.885 -0.1813 -0.0925 -0.0183
20832W        W39036  18.334  11.707   3.235 -0.1514  0.0009  0.1511
20833W        W39037  11.314   0.419  13.756  0.0052 -0.2141 -0.2164
20834W        W39038   6.788   3.242  10.903  0.3330 -0.2893 -0.2523
20835W        W39039   0.428   6.586  13.173  0.0727 -0.2424  0.3159
20836W        W39040   7.303   4.566   4.329  0.0159 -0.0578 -0.0538
20837W        W39041   9.268   8.428  15.310 -0.2043  0.0629 -0.4289
20838W        W39042  11.511  13.546  13.151  0.0566  0.2180  0.1553
20839W        W39043  15.412   9.184  11.713 -0.2189 -0.0254 -0.2518
20840W        W39044  16.911  14.042   2.637  0.3079  0.4075 -0.1600
20841W        W39045   0.544  11.147  12.366 -0.3129  0.1300  0.0322
20842W        W39046   2.851  16.205  12.969 -0.1538  0.0111 -0.3893
20843W        W39047   1.383  16.069  15.405 -0.2287  0.1493  0.3777
20844W        W39048   4.998   9.492   4.373 -0.0106  0.3016 -0.2346
20845W        W39049   5.514   7.265   3.036  0.0405  0.0110 -0.0377
20846W        W39050  18.120   2.811   1.089  0.3443  0.1371 -0.3048
20847W        W39051  17.788   5.939   0.358 -0.0166 -0.0198  0.2226
20848W        W39052   3.597  16.744  13.233 -0.0167  0.0941  0.0775
20849W        W39053   8.064   9.336   3.179 -0.0688  0.0644 -0.2710
20850W        W39054   1.739   7.318  12.494  0.0964 -0.0119 -0.1354
20851W        W39055  10.280   2.464   3.457 -0.3259 -0.4837  0.2479
20852W        W39056  10.281   1.178   3.546 -0.1053 -0.1435  0.1404
20853W        W39057  14.629   3.533   0.461  0.3610 -0.3353  0.0323
20854W        W39058   8.089   3.357   1.805 -0.1200  0.0074 -0.1111
20855W        W39059   2.550   3.245   0.809 -0.2382  0.3820 -0.2366
20856W        W39060   5.984  15.378  12.929 -0.4145  0.1689  0.0708
20857W        W39061  17.985  11.710  15.052  0.2480  0.3851 -0.2617
20858W        W39062   9.593  15.692  15.418  0.2781 -0.0520 -0.1594
20859W        W39063   7.050   2.945   3.046 -0.0904  0.1724  0.1586
20860W        W39064  14.958  16.719   4.109 -0.1104 -0.0955 -0.0012
20861W        W39065   4.967   5.967  14.007 -0.1137  0.2099  0.2046
20862W        W39066   2.303   6.467  13.571 -0.2064 -0.1135 -0.0184
20863W        W39067   6.878   2.526   3.788 -0.1592  0.1458  0.3226
20864W        W39068  12.414  11.475   4.331  0.0093 -0.0463 -0.0999
20865W        W39069  17.226  17.509   5.705  0.1138 -0.1641 -0.1786
20866W        W39070  12.580   8.633  10.919 -0.1356  0.1186  0.1605
20867W        W39071  10.382   7.016  15.264  0.4421 -0.1966  0.2188
20868W        W39072   2.471   8.724   3.551  0.1245  0.0020  0.0727
20869W        W39073   1.928   6.529   1.055 -0.1816  0.2373 -0.0905
20870W        W39074   3.925   7.628   2.146  0.1027  0.3644 -0.0576
20871W        W39075  13.665  15.931  11.990 -0.0179  0.0025  0.1467
20872W        W39076  12.736  14.523   3.039 -0.2127  0.0769  0.0278
20873W        W39077   4.949  18.292   4.020  0.0640 -0.0714 -0.0950
20874W        W39078   6.916   2.305  11.579  0.0656 -0.0517 -0.0569
20875W        W39079   1.868   7.965   4.821  0.2375  0.0676 -0.2186
20876W        W39080   0.026  12.303   3.777  0.1401  0.0373  0.0742
20877W        W39081   8.800  17.108   2.555  0.0338 -0.1497 -0.1433
20878W        W39082   9.729  13.935   3.769 -0.2240  0.3121 -0.0335
20879W        W39083  12.564   4.549   3.946 -0.0937 -0.2410 -0.1209
20880W        W39084  15.400   1.421   1.154 -0.0524 -0.0830  0.3976
20881W        W39085  14.119   5.210   2.894  0.1856 -0.3018  0.1079
20882W        W39086  16.824   8.550  10.174 -0.0126  0.0088 -0.5003
20883W        W39087   6.124   3.262  12.288  0.0479  0.3111 -0.0500
20884W        W39088   1.752   7.956   1.520 -0.1178  0.0157 -0.2000
20885W        W39089   5.831  17.802   3.898  0.1721 -0.1661  0.0314
20886W        W39090  14.738   0.843   1.605 -0.1056 -0.0280 -0.0340
20887W        W39091  14.634  13.172  14.217  0.0295 -0.0124 -0.5123
20888W        W39092  10.446  11.589   3.518 -0.0238 -0.0897  0.0858
20889W        W39093   1.892   5.207  15.085 -0.2446 -0.0471 -0.0642
20890W        W39094  18.075   8.514   0.318  0.1638 -0.3887  0.0641
20891W        W39095   3.150   2.511  12.988 -0.2503 -0.2087  0.0539
20892W        W39096  14.103   5.815  14.827 -0.1692  0.1837 -0.0966
20893W        W39097  16.924   2.098   2.507  0.0789  0.0914  0.0283
20894W        W39098   5.320   0.827   2.223 -0.0104  0.3862 -0.1317
20895W        W39099   1.449  13.713  12.064  0.0836 -0.1029 -0.1977
20896W        W39100   6.718   7.178  14.637 -0.3014  0.0883  0.1088
20897W        W39101   3.054  16.229   4.157  0.2536  0.1230  0.0384
20898W        W39102   3.602   1.014   0.251  0.0692 -0.1019  0.3613
20899W        W39103  14.565   9.696   1.444  0.3355  0.1513 -0.2560
20900W        W39104  16.886   7.976  14.243  0.1792  0.0408  0.2009
20901W        W39105   0.617   0.036  11.783  0.1339 -0.0618  0.0601
20902W        W39106   5.974  10.163   0.594 -0.0827  0.3054 -0.1630
20903W        W39107  17.961  13.931  15.153 -0.1988 -0.0219 -0.1063
20904W        W39108   6.581   3.754  13.016  0.4650  0.0823 -0.0946
20905W        W39109   3.594  10.072   4.186  0.0315  0.0240  0.2276
20906W        W39110  16.790   4.292  10.887 -0.1288  0.0447  0.3447
20907W        W39111   6.085  11.358  14.694  0.2451 -0.2185  0.1784
20908W        W39112  18.179   7.672  14.688  0.0033  0.0590 -0.0516
20909W        W39113   3.165   5.383  11.452  0.1510 -0.2703  0.0879
20910W        W39114   4.443   7.463  15.382 -0.3256 -0.0029 -0.3692
20911W        W39115   7.461   7.676  10.640  0.0986  0.0938 -0.2092
20912W        W39116   0.928  13.140  12.115  0.1766  0.0617  0.1576
20913W        W39117  16.367  16.072   0.120 -0.3527 -0.2564  0.0746
20914W        W39118  15.278   3.131  12.985 -0.1806 -0.3357 -0.2102
20915W        W39119  14.149  15.879  14.522  0.0389 -0.2461 -0.2379
20916W        W39120  17.821  16.928   3.683 -0.0497  0.0778 -0.0638
20917W        W39121  12.840   6.142  14.068  0.3017 -0.0921  0.0446
20918W        W39122   2.827  14.377   2.908  0.0356  0.1648 -0.0814
20919W        W39123  13.504   8.539  12.489  0.0282 -0.1733  0.1815
20920W        W39124  11.403   9.487  10.989  0.1016 -0.4707 -0.1257
20921W        W39125  12.626   7.485  10.352  0.1136  0.1339  0.0670
20922W        W39126   3.600  11.252  14.710  0.0960  0.0568 -0.0631
20923W        W39127  10.161   4.186   2.793 -0.1927  0.1360  0.0568
20924W        W39128   8.345  13.113   1.032  0.0775  0.0648  0.1804
20925W        W39129  18.257  11.507  12.311 -0.0273 -0.0366  0.3827
20926W        W39130   4.120   5.944   0.310 -0.0111 -0.0095  0.1266
20927W        W39131  10.125  12.810  13.585 -0.1144 -0.0422  0.0574
20928W        W39132   6.265  11.390  12.234 -0.1281 -0.2887  0.0235
20929W        W39133   7.376  13.776   1.465 -0.2219  0.2207 -0.2098
20930W        W39134   5.118   5.633   2.939 -0.0204  0.1196 -0.0228
20931W        W39135  15.921  10.900  12.661  0.0816  0.0237 -0.2011
20932W        W39136   5.422   3.437   4.318 -0.2274  0.1824  0.1831
20933W        W39137  14.111  12.759  11.028 -0.1165 -0.3552  0.3242
20934W        W39138  10.350  10.414   3.413  0.1010 -0.5652 -0.0509
20935W        W39139  12.291  17.968  11.167 -0.0347  0.4587  0.0619
20936W        W39140  10.818  11.519  14.815 -0.0091 -0.0581 -0.1775
20937W        W39141   8.832   5.021  14.738 -0.0071 -0.0831  0.1787
20938W        W39142  15.531   0.681  14.850 -0.1051  0.1256 -0.1321
20939W        W39143  13.687   0.432   1.682  0.0052 -0.0635  0.0140
20940W        W39144   2.103   4.166   0.777 -0.0736  0.0304  0.2987
20941W        W39145   3.186   4.618   3.026  0.0506 -0.1357 -0.0968
20942W        W39146  10.290   5.910  11.198  0.3308  0.0180  0.2563
20943W        W39147   8.669  13.722   4.598  0.3869 -0.3117 -0.0590
20944W        W39148  14.752   2.561  11.732 -0.1934 -0.0250  0.0740
20945W        W39149   7.927   4.177  14.896  0.1049  0.0496  0.2428
20946W        W39150   2.187  12.822   2.430  0.1734  0.0546  0.0280
20947W        W39151   6.940   2.612  15.089 -0.2612 -0.1036 -0.1114
20948W        W39152  12.205  14.870  11.346 -0.3019 -0.0560 -0.0364
20949W        W39153  14.526   0.207   2.186 -0.1030  0.2108  0.2009
20950W        W39154   3.615   3.683  12.182 -0.1323  0.0736  0.0162
20951W        W39155   1.519  16.386   3.416 -0.1866  0.3473  0.3588
20952W        W39156   7.882  11.152   4.805  0.1513  0.0467  0.0414
20953W        W39157  17.930  15.870   3.403 -0.2213 -0.0281 -0.1224
20954W        W39158  18.420  11.064  11.830  0.1318  0.1402 -0.3523
20955W        W39159   5.647   8.946  11.917 -0.3001 -0.0453  0.1587
20956W        W39160   7.410   2.341   9.963 -0.0726  0.0349  0.2139
20957W        W39161   7.744   1.094  11.721  0.2535  0.0774 -0.1438
20958W        W39162  11.420  13.773  10.983 -0.2264  0.0175 -0.1005
20959W        W39163  12.401  17.981   2.704 -0.1139  0.0994  0.2292
20960W        W39164  15.436   4.309  10.838 -0.1201 -0.0204 -0.1518
20961W        W39165   0.640   6.841   1.732  0.1647  0.1193  0.3730
20962W        W39166  17.113   1.715  14.563 -0.1900  0.1732 -0.0848
20963W        W39167   3.351  14.158   3.119 -0.1367 -0.0374  0.1575
20964W        W39168  14.515  13.610   2.534 -0.0954 -0.1590 -0.1238
20965W        W39169   1.767   0.241   2.967 -0.3019  0.1329 -0.3722
20966W        W39170   2.944  12.104   2.891 -0.0851  0.0692  0.3039
20967W        W39171   8.706   6.937  12.113  0.1846  0.1113 -0.0972
20968W        W39172  15.994  12.228   5.002 -0.0180 -0.0688  0.2112
20969W        W39173   0.248  12.460   1.187  0.1046 -0.0692  0.3956
20970W        W39174   1.731   1.399  11.706  0.1279  0.1489  0.0958
20971W        W39175  13.918   2.242  15.321 -0.3227  0.0494  0.0027
20972W        W39176  17.569   0.267  13.544 -0.0457 -0.1514 -0.1341
20973W        W39177  15.806   5.194   0.723  0.0231  0.3076 -0.2927
20974W        W39178  14.911  13.911  12.065  0.1319  0.0575  0.3096
20975W        W39179   7.522   1.370  14.643 -0.2011  0.1514 -0.1307
20976W        W39180  13.210   7.505  12.415 -0.3351  0.1437 -0.1479
20977W        W39181  14.140   1.882  12.078  0.1723  0.1625 -0.0376
20978W        W39182   9.295   1.598   2.514  0.0463 -0.1740  0.2916
20979W        W39183  16.042  15.332  14.273  0.1733 -0.1648 -0.0757
20980W        W39184  11.739  16.587   2.978  0.3203  0.0224 -0.0415
20981W        W39185   5.473   8.762  12.453  0.0327  0.2926  0.1994
20982W        W39186  12.854  17.533  15.092 -0.1302 -0.2067  0.0944
20983W        W39187   4.122   5.103   5.321 -0.1018  0.0814 -0.1392
20984W        W39188  11.828   3.194  13.233 -0.1308 -0.1596  0.0549
20985W        W39189  10.324  15.591   1.742 -0.0497 -0.0208  0.0983
20986W        W39190  15.887  11.338   5.714  0.2239 -0.4651  0.0540
20987W        W39191  17.632  15.360   3.044 -0.2242  0.2410  0.1739
20988W        W39192   9.906  13.493  11.317  0.1125 -0.1265  0.0545
20989W        W39193   1.212  15.684   2.671 -0.2588 -0.0560  0.1625
20990W        W39194  10.620   5.577  14.197 -0.2892 -0.1413  0.0426
20991W        W39195  16.153   7.192   3.981 -0.1139  0.1062  0.1002
20992W        W39196  13.430  14.989  13.679 -0.1222 -0.3274  0.3276
20993W        W39197  12.237  15.134  11.820 -0.0901  0.2101  0.0352
20994W        W39198   5.872   7.812  15.266  0.2587 -0.3114 -0.2103
20995W        W39199   2.088  11.151  12.243  0.3095  0.1041 -0.0391
20996W        W39200  10.738  10.749  10.983 -0.2184  0.0481 -0.1112
20997W        W39201   7.895  16.933   4.581 -0.1732 -0.1071 -0.0974
20998W        W39202  11.772   2.364   0.894 -0.1268 -0.2198 -0.0435
20999W        W39203  14.417  13.904  13.427 -0.3035  0.0821 -0.2289
21000W        W39204   1.540   4.298   4.290 -0.0588 -0.1159  0.0357
21001W        W39205   8.539   7.082   0.971  0.3149  0.0863  0.3318
21002W        W39206  14.179   6.847   4.367 -0.0873 -0.1722 -0.3890
21003W        W39207   3.846   8.686   4.022  0.2260  0.0425 -0.0525
21004W        W39208  14.339   9.654  13.101  0.2584  0.2778  0.1673
21005W        W39209  14.515   5.516   0.320 -0.1309 -0.0142 -0.1174
21006W        W39210   2.792  16.503   0.916 -0.0432 -0.1042  0.0946
21007W        W39211  16.033   5.627  11.444 -0.4191 -0.1021  0.0571
21008W        W39212  14.182   9.801  11.582  0.2398 -0.0106 -0.1071
21009W        W39213  15.564  11.581  13.177  0.2913  0.5144  0.2539
21010W        W39214  10.360  16.004   0.073  0.2345  0.1669  0.1310
21011W        W39215  11.314  18.470   1.143  0.1829 -0.0247  0.0764
21012W        W39216   9.729  18.481  15.315 -0.1743  0.0992  0.1075
21013W        W39217   1.849   7.530  11.604  0.1940  0.1492 -0.2804
21014W        W39218   8.437  11.809  14.841 -0.4933 -0.1411  0.3841
21015W        W39219  11.772   1.172   3.652 -0.0314 -0.1970 -0.0387
21016W        W39220   7.034   3.444   2.804  0.2397  0.0384  0.3036
21017W        W39221   1.619  13.085  14.484  0.0556 -0.0153 -0.0778
21018W        W39222  11.319  15.179   5.311 -0.1567  0.1862 -0.2878
21019W        W39223   6.678  13.351  12.051  0.0594  0.2866 -0.0027
21020W        W39224   9.718   9.377  13.396  0.1236 -0.1237  0.1725
21021W        W39225   4.297   5.217  13.718 -0.0311  0.1646 -0.0378
21022W        W39226   7.284   5.201   2.930  0.1717 -0.1222  0.1564
21023W        W39227  13.205   1.355  11.739  0.1720 -0.1666  0.0012
21024W        W39228  14.334  15.232  13.070  0.1140  0.2429 -0.1041
21025W        W39229  11.378   7.204   0.255  0.1546 -0.2220 -0.1427
21026W        W39230  14.818   0.914   4.062 -0.3914 -0.0120  0.3666
21027W        W39231   9.773   0.048   3.601 -0.0141  0.2353  0.2762
21028W        W39232   3.202  15.119   1.007 -0.1684  0.0922  0.0567
21029W        W39233   7.234   9.306  13.886  0.1670 -0.3375  0.0357
21030W        W39234  11.259  16.092   2.235 -0.1775  0.2461  0.1328
21031W        W39235  12.430  13.740   2.682  0.2199  0.1207  0.0995
21032W        W39236   8.860   8.284   2.120  0.0680 -0.2055 -0.0941
21033W        W39237  14.412  11.351  14.142 -0.1990  0.0966 -0.2457
21034W        W39238   0.829  16.469   1.745  0.0295 -0.0644  0.0911
21035W        W39239  13.227  18.116   0.999  0.0899  0.1633  0.0748
21036W        W39240   0.378   2.825  13.508  0.1402 -0.0152  0.2199
21037W        W39241   4.027  15.920  11.291  0.1745  0.1600  0.1759
21038W        W39242  16.532   5.214  14.278 -0.1627  0.0115 -0.0796
21039W        W39243  11.242   9.769  13.204 -0.4953  0.0076 -0.2275
21040W        W39244  14.840  15.483   1.703  0.1023 -0.1776  0.2993
21041W        W39245   2.775   1.638   4.355  0.2064 -0.2863  0.1727
21042W        W39246   8.823   0.258   1.978 -0.1931 -0.1239 -0.1250
21043W        W39247   5.156   2.179   1.778  0.2161  0.0466 -0.1481
21044W        W39248   3.977   7.007  13.280  0.1492  0.0665 -0.1743
21045W        W39249   1.707  17.017   3.100  0.0026 -0.0286 -0.1546
21046W        W39250   8.336  13.308   0.089  0.2888 -0.2750  0.3407
21047W        W39251   9.205   4.630  15.446  0.1928 -0.0356 -0.4147
21048W        W39252   4.062   7.894  11.666 -0.0775  0.0439 -0.0896
21049W        W39253  14.681  16.970  12.699 -0.3198  0.0126  0.0351
21050W        W39254  16.198   5.152  10.675 -0.1506 -0.0197 -0.1695
21051W        W39255  18.025   6.239   3.687  0.0414 -0.5491  0.6209
21052W        W39256   7.350   0.834  10.672 -0.4068 -0.0055  0.0520
21053W        W39257   1.480  18.319   1.994 -0.2961  0.2992  0.0219
21054W        W39258  13.444   8.203  14.032  0.1497  0.0751 -0.2977
21055W        W39259  17.599   3.761  11.139  0.0288 -0.0771 -0.1365
21056W        W39260  15.854  15.834  12.077 -0.3399  0.1781 -0.0505
21057W        W39261   2.676  16.259   2.511  0.1048  0.1697  0.0373
21058W        W39262   7.322   0.223   0.387 -0.0137 -0.1110 -0.1339
21059W        W39263   7.609  13.629   4.088  0.0337 -0.2884  0.0873
21060W        W39264  14.424  16.680   0.430 -0.2444  0.0027  0.0881
21061W        W39265   6.616  18.592  12.629  0.2610  0.2353 -0.2638
21062W        W39266  17.912  18.056   3.923 -0.0552 -0.0914  0.3344
21063W        W39267  17.948  13.920  13.772  0.0206 -0.0105 -0.2002
21064W        W39268   8.610  10.228  14.405  0.0359 -0.1910  0.0180
21065W        W39269   8.741   6.114  14.805  0.0252 -0.0699  0.0302
21066W        W39270  14.441   1.858   4.220  0.1449  0.0156  0.1921
21067W        W39271  17.869  10.647   1.691  0.2925  0.1279 -0.3533
21068W        W39272  18.008   4.597   1.235  0.1155 -0.1082  0.2533
21069W        W39273   2.087  14.320  15.424 -0.3980 -0.2576 -0.0288
21070W        W39274   6.959   8.134   0.485  0.0408  0.0562 -0.0275
21071W        W39275   0.421   4.324   0.493  0.1814 -0.0724 -0.0124
21072W        W39276   2.667  18.341   1.089 -0.4574  0.2790 -0.0100
21073W        W39277  10.648  11.053   0.375  0.0656 -0.0594  0.1741
21074W        W39278   8.345   9.210  12.756 -0.0577  0.1934  0.2741
21075W        W39279  13.612   2.353   4.074 -0.2178 -0.1091 -0.1862
21076W        W39280   5.049   0.649  11.348 -0.0615 -0.0795  0.1342
21077W        W39281   4.346  10.146  11.523 -0.1022  0.1726 -0.3275
21078W        W39282  14.087   2.463  12.276 -0.0910 -0.1608  0.1103
21079W        W39283   6.261  18.406   2.454 -0.0433 -0.0453 -0.0446
21080W        W39284  17.827   5.945  13.372 -0.0908  0.1399 -0.0598
21081W        W39285  14.700   6.427   2.352  0.2476  0.0421  0.1551
21082W        W39286   3.442  13.922   4.773 -0.0043  0.0859 -0.0536
21083W        W39287   9.851  11.263   2.393 -0.1475  0.1520  0.0673
21084W        W39288  18.346   2.842   4.738 -0.1549 -0.2373  0.4609
21085W        W39289  15.689   5.366  10.083  0.4316 -0.4809 -0.3278
21086W        W39290   2.321   8.596   4.181 -0.0162  0.0920  0.0620
21087W        W39291  16.225  13.380  11.837 -0.1935  0.1226 -0.0366
21088W        W39292   6.359   2.844   0.176 -0.0268 -0.2127 -0.2406
21089W        W39293  15.387  17.233  11.996  0.2069 -0.0994 -0.1686
21090W        W39294  15.064  11.095   1.133  0.1350 -0.0405  0.0570
21091W        W39295   0.246   3.287  11.721 -0.3384  0.2470 -0.1348
21092W        W39296  10.350   0.314   1.051 -0.0934 -0.0427 -0.1714
21093W        W39297   4.382   8.936   4.527 -0.0556 -0.0623  0.0847
21094W        W39298  10.062   2.266   2.562 -0.1398  0.5288 -0.1537
21095W        W39299   7.161  12.229  14.526  0.2469  0.1764 -0.0972
21096W        W39300  10.147  13.723   1.024  0.1602  0.1380  0.0691
21097W        W39301   9.283  17.642  11.136 -0.0223 -0.0549  0.3986
21098W        W39302   0.578   3.969  14.936  0.1495  0.0312 -0.2131
21099W        W39303   0.535  12.170   1.589  0.2408 -0.1053  0.0784
21100W        W39304  17.199   2.378  13.886 -0.0329 -0.0898  0.0330
21101W        W39305   2.591  13.302   3.531 -0.3327 -0.0008 -0.0900
21102W        W39306   6.859   8.923  15.387  0.0750  0.3312  0.4386
21103W        W39307   8.377   3.868  11.402 -0.0317  0.0299  0.0166
21104W        W39308  16.890   6.201  11.316 -0.2068  0.1035 -0.1550
21105W        W39309  15.149   4.368  14.482  0.2088 -0.2068 -0.0042
21106W        W39310   9.457   0.244  12.789  0.0752  0.2726 -0.1707
21107W        W39311   4.886   8.017   2.336  0.1071 -0.1113  0.0380
21108W        W39312  11.936   8.634   4.212  0.1509  0.1095  0.1798
21109W        W39313   2.699  11.823   0.446  0.1244 -0.1387  0.3015
21110W        W39314  15.101  10.374   3.186  0.0093  0.2481 -0.1664
21111W        W39315  11.967  13.542   2.728 -0.2989 -0.0052 -0.2037
21112W        W39316  16.824  12.583   4.908  0.0623 -0.1461  0.1893
21113W        W39317   3.464  16.788   0.459 -0.2119 -0.0457 -0.1433
21114W        W39318   4.274   7.809   4.082 -0.0759 -0.1493  0.0744
21115W        W39319   1.023   8.183   1.960  0.0966  0.2354  0.1417
21116W        W39320   2.050   7.283  12.927  0.0356  0.2996 -0.1202
21117W        W39321   2.548   2.463  14.370 -0.2226 -0.0314 -0.2401
21118W        W39322  13.137  14.042  11.396  0.2902  0.0633 -0.0288
21119W        W39323   2.271   0.784  14.618 -0.3454  0.0749  0.0670
21120W        W39324   5.174  16.028  14.086 -0.2568  0.2794 -0.0624
21121W        W39325   4.523   5.679  12.983  0.2264 -0.2195 -0.0377
21122W        W39326  13.647  16.195   1.614  0.0971 -0.1193  0.1878
21123W        W39327   6.217  11.117   2.483 -0.0706 -0.3626  0.0640
21124W        W39328  14.136  12.964   2.864 -0.0940 -0.0321  0.1916
21125W        W39329   6.410   9.581  11.855  0.0468  0.2938  0.2889
21126W        W39330  16.437  11.803   4.300 -0.0195  0.0644 -0.0256
21127W        W39331   0.274   2.017   3.813 -0.1690  0.0441  0.0538
21128W        W39332  17.040   8.124  11.876 -0.4580  0.0711 -0.1159
21129W        W39333   6.100  17.623   0.097 -0.1497 -0.3280 -0.2055
21130W        W39334   9.090   5.883   3.086 -0.0863 -0.2936 -0.2271
21131W        W39335   5.891  13.321  10.935  0.0644  0.0372  0.2187
21132W        W39336  17.751   8.741   5.054  0.1323 -0.1293  0.0487
21133W        W39337   4.047   4.453  11.131  0.1021  0.1483  0.1178
21134W        W39338  17.003  10.009  11.659 -0.0647  0.2430 -0.0368
21135W        W39339   8.531   1.184  10.744 -0.0365 -0.0460  0.0382
21136W        W39340  17.087   3.339   1.651 -0.1939 -0.0960 -0.2047
21137W        W39341   8.647  10.127   0.466  0.4988 -0.1054  0.1162
21138W        W39342  17.777  11.742  11.370 -0.0207  0.4846  0.1560
21139W        W39343   5.463   9.412  10.391  0.2194 -0.0991 -0.1444
21140W        W39344  14.776   9.161  14.967  0.0364  0.3946  0.0427
21141W        W39345   7.327   5.787  14.097  0.1426 -0.0262 -0.4128
21142W        W39346  13.636   1.260   2.572 -0.1244  0.2792  0.2340
21143W        W39347   3.797   1.410   4.010  0.0934 -0.0158 -0.0193
21144W        W39348  17.482   8.389   0.521 -0.0980 -0.0314  0.2207
21145W        W39349  18.539   3.532   0.885  0.2068 -0.0446 -0.1479
21146W        W39350  15.317  15.926  10.880  0.1896 -0.1205  0.1152
21147W        W39351   9.952   7.065   0.626 -0.0888  0.3126 -0.0456
21148W        W39352  10.919  14.424  14.464 -0.1134  0.0524  0.1541
21149W        W39353   6.735   0.387   4.725 -0.1460  0.0871 -0.0642
21150W        W39354   6.574   2.470   2.155  0.0376 -0.0133 -0.1447
21151W        W39355   0.696  18.350  11.331  0.1331 -0.1243 -0.0088
21152W        W39356  13.430   1.328   0.619  0.0777 -0.2149  0.1429
21153W        W39357   2.665   0.319   3.353 -0.0974  0.1789  0.1156
21154W        W39358   9.996  10.281   1.053 -0.0051  0.2552  0.2475
21155W        W39359  14.861   8.355  11.863 -0.2377  0.1016  0.3262
21156W        W39360   6.998   1.196  12.720 -0.2265 -0.0912 -0.3710
21157W        W39361   5.950  14.341   2.561 -0.3022  0.2095 -0.0342
21158W        W39362  13.111   0.228   1.601  0.0001 -0.3653 -0.1869
21159W        W39363  14.464  10.863  14.519  0.0226  0.1057 -0.1532
21160W        W39364   7.988  11.556   2.350 -0.1966 -0.0272  0.1943
21161W        W39365  15.400   1.086  10.203 -0.0830  0.1476  0.1393
21162W        W39366  11.404   7.821   1.042  0.0060 -0.1224  0.3859
21163W        W39367   0.795   4.041   2.711 -0.2628  0.3866  0.1754
21164W        W39368  18.275   0.525   2.934  0.0790  0.0204  0.2118
21165W        W39369   4.919   2.208  15.282 -0.1938 -0.3917 -0.0093
21166W        W39370  10.820   8.211  11.348  0.1363  0.0306  0.2848
21167W        W39371   4.154  16.492  12.568  0.0962 -0.3433 -0.1755
21168W        W39372  10.625  10.257  14.516  0.1975 -0.0527  0.1407
21169W        W39373   5.480  18.606   2.647  0.1038 -0.1673 -0.0337
21170W        W39374   2.313   0.528   3.695  0.0245 -0.3051  0.1461
21171W        W39375   8.826   4.907  13.461  0.0756  0.0380  0.0202
21172W        W39376  13.380  18.575   2.725 -0.1805 -0.0642 -0.2729
21173W        W39377   6.161  10.232   1.809 -0.0096 -0.1532  0.2999
21174W        W39378   5.261  15.036  11.401 -0.0134 -0.1790 -0.1245
21175W        W39379   4.027   1.307  12.688  0.3028  0.0863  0.0854
21176W        W39380   2.135  17.346  14.160  0.0368 -0.1674 -0.1355
21177W        W39381  17.259   2.535  13.116 -0.0506 -0.0556 -0.0463
21178W        W39382   8.152   1.097  11.376  0.2267 -0.2195 -0.0537
21179W        W39383  10.943   9.753  12.425 -0.0892 -0.5569  0.0850
21180W        W39384   2.796  13.271   4.189 -0.0607 -0.1189  0.1680
21181W        W39385  14.466  18.536   1.068  0.0534 -0.2240 -0.0535
21182W        W39386  18.190  14.291   3.305  0.2085  0.1455  0.3315
21183W        W39387   8.666  14.527   2.446 -0.1167 -0.2516 -0.2655
21184W        W39388   1.980   6.509   3.368 -0.3063 -0.0969  0.2851
21185W        W39389  12.854   8.165  10.890 -0.1200  0.1100 -0.1102
21186W        W39390   1.098   3.379   0.594  0.0488 -0.1953  0.2139
21187W        W39391  11.591   8.929  12.446  0.0223  0.1106  0.2438
21188W        W39392   5.495   9.236  15.373  0.1591 -0.0196 -0.2930
21189W        W39393   9.060   2.087   2.795  0.0803  0.1725  0.1229
21190W        W39394  15.381  17.584   2.150  0.0315  0.0525 -0.2151
21191W        W39395  13.299  14.525  11.466  0.1976 -0.1176 -0.2595
21192W        W39396   6.212   5.956  10.546  0.0489  0.0097  0.0645
21193W        W39397   4.421   3.581  14.152 -0.0386 -0.4968 -0.0268
21194W        W39398   3.550  11.350  15.350  0.0607 -0.4471 -0.1700
21195W        W39399   1.632   6.885   3.416  0.0459  0.1881  0.0173
21196W        W39400   7.899   9.191  10.018 -0.1405  0.1072 -0.0457
21197W        W39401  17.631   3.219  11.914  0.4123 -0.2021  0.4044
21198W        W39402   0.584   2.413  15.356 -0.2879 -0.2271  0.2571
21199W        W39403   3.978   0.885   0.668 -0.3048 -0.2141 -0.1464
21200W        W39404  14.685   1.193  15.185  0.0101  0.1996 -0.1435
21201W        W39405   3.136  10.467   2.910 -0.2691 -0.3272 -0.0898
21202W        W39406  14.148  12.957  13.638 -0.0541  0.0657  0.3647
21203W        W39407  14.541  15.110   4.000  0.1834 -0.2605 -0.1237
21204W        W39408   9.186  15.251   0.750  0.3403 -0.0545 -0.1342
21205W        W39409   5.033   7.394  10.726  0.3201  0.2610  0.0489
21206W        W39410   8.479   9.972   9.956  0.2764 -0.0176 -0.0569
21207W        W39411  13.204   7.312   0.675 -0.0934  0.0977 -0.0004
21208W        W39412  15.516  13.854   4.835  0.0889 -0.1699 -0.2104
21209W        W39413  16.335   7.329   3.522  0.1285 -0.1779  0.2814
21210W        W39414   3.713   8.686  13.534  0.1748 -0.0239  0.0596
21211W        W39415  16.679  18.032  14.594  0.2043 -0.0306  0.2631
21212W        W39416  15.621  15.480   0.281 -0.0253 -0.0592  0.1531
21213W        W39417  11.511  10.736  13.079  0.1082  0.0152 -0.0104
21214W        W39418   8.240  11.342   0.585 -0.0807 -0.2208 -0.2072
21215W        W39419  17.228   0.469  12.540 -0.2568  0.0255 -0.1795
21216W        W39420  11.275   8.504  12.577 -0.1087  0.2029  0.0847
21217W        W39421  15.077  13.714  12.499  0.0362  0.0277 -0.0679
21218W        W39422  10.288  15.126   1.512 -0.0343 -0.0150  0.1061
21219W        W39423   7.553  18.198  14.702 -0.0273 -0.2551  0.0108
21220W        W39424  10.007   4.861  12.547  0.0464 -0.1120  0.2081
21221W        W39425  12.376  16.145   2.494  0.1628 -0.0073 -0.1247
21222W        W39426  15.825   4.747   5.634 -0.0564 -0.2874 -0.0555
21223W        W39427  11.029   2.678   1.895 -0.3547  0.1911  0.2178
21224W        W39428  12.840   6.368  11.434 -0.0243  0.3185 -0.1405
21225W        W39429   7.306  12.589  13.714 -0.1468 -0.0757 -0.1022
21226W        W39430  13.559   9.908  13.882  0.2095 -0.1565 -0.0049
21227W        W39431   7.697  18.553   2.205  0.2167  0.0483  0.1380
21228W        W39432   6.464   5.974  15.180  0.4774 -0.0429  0.1693
21229W        W39433   3.548   1.096  11.051 -0.1465  0.0207  0.1951
21230W        W39434   9.229  16.699   0.264 -0.0074  0.0828 -0.0501
21231W        W39435  12.742   2.145  13.292 -0.3320 -0.0179 -0.0165
21232W        W39436   5.292   7.409  11.436 -0.0725  0.2928  0.0547
21233W        W39437  10.861  15.029  14.311  0.0066  0.0002  0.0998
21234W        W39438   6.210  14.421   0.171 -0.3724  0.0534  0.1157
21235W        W39439   4.789  15.784  12.328 -0.2680  0.2452 -0.0944
21236W        W39440  17.474  12.584   4.081  0.1002  0.0295 -0.1827
21237W        W39441  12.862  15.646  11.395 -0.1212  0.2060  0.0767
21238W        W39442  12.447   0.218   3.778  0.0324 -0.0961  0.0495
21239W        W39443  10.512  17.005   0.481  0.0804  0.1690  0.0027
21240W        W39444  18.619  13.533   0.963  0.1472  0.1088  0.1181
21241W        W39445   8.036   1.365   0.192  0.0688  0.0366 -0.1592
21242W        W39446  10.493   8.625   3.062  0.0717  0.1230 -0.0363
21243W        W39447  12.821  13.138  15.296  0.0353 -0.0751  0.0698
21244W        W39448   2.579   9.825   4.018  0.0050  0.0464  0.1410
21245W        W39449  17.858  12.671  15.069 -0.0126  0.1127 -0.0146
21246W        W39450   3.890  16.132  15.253 -0.0746 -0.0696 -0.1777
21247W        W39451  17.621   6.810   3.782  0.2043  0.0960  0.0428
21248W        W39452   5.227  17.606   0.544 -0.1445  0.0312 -0.0353
21249W        W39453  18.172   6.822  11.763 -0.0468 -0.0461  0.4885
21250W        W39454   4.797   8.134  13.690 -0.0014  0.0207 -0.2572
21251W        W39455  11.428   8.793   2.844 -0.1689  0.0542 -0.0601
21252W        W39456   2.717   9.725  14.511 -0.2801 -0.1072 -0.2682
21253W        W39457   3.550   9.760   9.906 -0.1437  0.1145 -0.0002
21254W        W39458  10.255  11.064  14.095 -0.1315 -0.1555 -0.2520
21255W        W39459  15.517  16.013  13.980 -0.2722  0.0854  0.0479
21256W        W39460   5.715   3.324   2.656 -0.0400 -0.2891 -0.2270
21257W        W39461   0.290  12.630   2.414 -0.0500  0.0855  0.0277
21258W        W39462   7.592   9.369   2.469 -0.0743 -0.1774  0.0603
21259W        W39463  12.070   7.730  15.288  0.0727  0.2220 -0.0814
21260W        W39464  15.832   9.132  12.876 -0.0604 -0.1947  0.0728
21261W        W39465  18.513   8.103  11.786 -0.0505  0.0057 -0.1772
21262W        W39466  10.269  13.902   3.864  0.1893 -0.5702  0.0229
21263W        W39467  10.014  10.264   2.206  0.2542  0.0855  0.2807
21264W        W39468  15.189   8.347   1.714 -0.3470 -0.1305 -0.1067
21265W        W39469  14.916  14.732   1.125 -0.0569  0.0418 -0.0287
21266W        W39470  13.559   6.450  12.983  0.1097  0.4991 -0.0444
21267W        W39471   1.911   2.980   0.287 -0.1297  0.0254  0.1431
21268W        W39472   3.036  12.085  10.830 -0.1520 -0.0120 -0.5255
21269W        W39473  11.771   1.793   2.819  0.0794 -0.2306  0.1892
21270W        W39474  13.188  10.249  11.195  0.0681 -0.3018  0.1704
21271W        W39475   0.305   1.412  13.377  0.0211  0.2327 -0.2151
21272W        W39476   3.378   3.179   2.352  0.0931 -0.0026 -0.2782
21273W        W39477  16.583  15.085   1.722  0.3558 -0.5197 -0.0645
21274W        W39478   8.401   2.538   0.085  0.2684 -0.0877  0.1683
21275W        W39479   2.724  10.079  12.172  0.2420 -0.4343  0.0403
21276W        W39480  10.358   1.947   0.508 -0.0946 -0.1810 -0.1961
21277W        W39481  10.664  18.133   1.752  0.1087 -0.1089  0.0460
21278W        W39482   1.640   6.014  15.385 -0.1826  0.0448  0.0014
21279W        W39483   8.978  14.677   1.647 -0.2834  0.0255  0.1776
21280W        W39484  10.948  15.896  10.551 -0.2381  0.3693  0.3533
21281W        W39485  11.143  10.077  12.780  0.1463 -0.2219 -0.1980
21282W        W39486   2.820   1.647   3.793 -0.1817  0.2461  0.1358
21283W        W39487  14.826  10.927   3.220  0.5624  0.2120  0.0821
21284W        W39488   3.019   6.555  12.338 -0.2746  0.1610  0.1843
21285W        W39489  15.612  17.838   1.776  0.3004  0.0238  0.0464
21286W        W39490   6.745   0.794   3.327 -0.2227 -0.2012  0.2528
21287W        W39491  14.283   9.441   2.803 -0.0724 -0.1153 -0.3177
21288W        W39492   0.778   1.813  12.894  0.3421 -0.0742 -0.0583
21289W        W39493   6.793   5.891   3.998 -0.3109  0.1357 -0.1633
21290W        W39494   1.682  17.896   9.997  0.1103  0.0554 -0.1020
21291W        W39495  12.659   4.342   2.868  0.0504  0.0630  0.0143
21292W        W39496  10.375   4.218   2.223  0.2662  0.1040 -0.1411
21293W        W39497   7.957  11.862  14.114  0.2681 -0.0206 -0.2016
21294W        W39498   8.022   4.943   1.533 -0.0739 -0.2919  0.2160
21295W        W39499   9.998   9.716  13.071 -0.1420  0.0515 -0.1109
21296W        W39500  17.928   3.322   0.596 -0.1420 -0.1564 -0.0258
21297W        W39501   7.301  13.138   0.426  0.1144  0.0037  0.3121
21298W        W39502  17.151  15.058  13.037  0.1915 -0.0702  0.0767
21299W        W39503  18.023  14.925  14.934 -0.3355 -0.1693  0.3163
21300W        W39504  11.196  15.597   0.536 -0.1539  0.0540 -0.0169
21301W        W39505  13.475   1.285   2.057  0.5372 -0.0970 -0.1172
21302W        W39506  11.606  15.822   3.459  0.1916  0.1828 -0.0068
21303W        W39507   5.234  15.961   1.841 -0.3483 -0.0539 -0.2032
21304W        W39508  11.127  10.746  12.168  0.1481 -0.2321 -0.0854
21305W        W39509  17.356   7.247   3.757 -0.0901 -0.0543 -0.0082
21306W        W39510   9.371   7.541  14.850  0.0552 -0.1950 -0.1070
21307W        W39511   4.035  11.695  10.476 -0.0826  0.1309 -0.0629
21308W        W39512   8.521  10.148   4.200 -0.0323  0.3335  0.0959
21309W        W39513   3.314  17.355   4.506  0.1417  0.2358 -0.3964
21310W        W39514   8.007   5.713   2.544 -0.1739  0.1370  0.2907
21311W        W39515  16.440   1.799  11.159 -0.0649 -0.0782 -0.1480
21312W        W39516   6.115   6.515   0.528 -0.0354  0.0737 -0.0820
21313W        W39517   5.399  11.585   0.061  0.1935 -0.1461  0.1028
21314W        W39518  18.378   9.315  14.067 -0.3012  0.2133  0.1465
21315W        W39519   2.962   6.739  11.029 -0.1429 -0.3876  0.1483
21316W        W39520  18.312   0.864   3.282 -0.0673 -0.1720  0.1337
21317W        W39521  15.030   2.147   0.371 -0.2937  0.0099 -0.3112
21318W        W39522  12.138   5.900   0.636 -0.2989  0.1768  0.2606
21319W        W39523  14.615   2.065   3.166  0.0385  0.0878 -0.2238
21320W        W39524  16.131  17.997  14.605  0.0548 -0.2240 -0.1164
21321W        W39525   4.563  11.922  10.460 -0.1211 -0.0787  0.2017
21322W        W39526  13.602   9.926   1.261 -0.4014 -0.1432 -0.1513
21323W        W39527  17.159  17.877  11.699 -0.0372  0.0201 -0.2709
21324W        W39528   9.597  13.379  13.366  0.3311 -0.2387 -0.1005
21325W        W39529  14.957  17.469  14.678 -0.1272 -0.1308 -0.0942
21326W        W39530  16.532  14.054   0.156 -0.1324 -0.1333  0.0155
21327W        W39531   9.204  11.806  11.936  0.0031  0.0766  0.2120
21328W        W39532   6.471  18.210  11.446  0.0951 -0.0924  0.0374
21329W        W39533  16.762  14.598  14.368  0.1346  0.0821  0.1844
21330W        W39534  17.688   4.938  12.311  0.2269  0.0166 -0.2147
21331W        W39535  11.555  16.479  13.215 -0.2701  0.2186  0.0759
21332W        W39536   2.311  15.554   1.692 -0.0899  0.1631 -0.0524
21333W        W39537  11.862  14.395   3.066  0.3426 -0.2516 -0.0817
21334W        W39538  17.994  17.328   1.683 -0.0844  0.1044 -0.1567
21335W        W39539  18.461   1.359  11.389  0.1180  0.1463 -0.0661
21336W        W39540  13.105   8.345   0.377  0.1747  0.0924  0.3488
21337W        W39541  15.835   7.778   3.607 -0.1458  0.0771  0.0081
21338W        W39542  15.198   6.606   3.509 -0.0339  0.2250 -0.1205
21339W        W39543   0.813   2.949  10.471  0.0397 -0.1367  0.3940
21340W        W39544   0.331   8.879  15.310  0.2800  0.0307  0.1204
21341W        W39545   0.463   2.883  11.373  0.2862  0.0205 -0.0493
21342W        W39546   3.942  17.626   3.379 -0.1857  0.0444  0.2022
21343W        W39547   3.263  14.219  12.906  0.0486  0.0688  0.1538
21344W        W39548  15.135  11.130   3.699  0.0333 -0.0012  0.0141
21345W        W39549   5.885   4.990  14.565 -0.0250  0.2461 -0.0424
21346W        W39550   6.647   6.474  11.181  0.0906  0.0745  0.1276
21347W        W39551  11.882   5.461  14.781 -0.5095 -0.2090  0.0600
21348W        W39552   7.471  15.081  11.501  0.0296  0.2233  0.0687
21349W        W39553  10.040   2.304  14.219  0.3870 -0.4616 -0.1453
21350W        W39554  17.073  13.719   0.010 -0.3120 -0.0551  0.0976
21351W        W39555   8.362   7.256  14.035  0.0662 -0.2664 -0.1990
21352W        W39556   5.123  17.387   4.156  0.0284 -0.1764  0.3734
21353W        W39557  13.396  11.063   1.878 -0.1544 -0.0714  0.0745
21354W        W39558  15.414   1.882  13.784 -0.1586 -0.4806 -0.0237
21355W        W39559   3.155  10.554   4.512  0.1316  0.1848  0.1902
21356W        W39560   5.313   0.440  14.547 -0.2017  0.1740  0.0905
21357W        W39561   3.082   6.727   0.037 -0.1490  0.0152  0.0679
21358W        W39562   2.157  15.582  13.526  0.0708 -0.0576  0.2112
21359W        W39563  10.882   4.686  13.026  0.0200 -0.1738  0.0525
21360W        W39564   2.045   0.954  13.264  0.0959 -0.2785  0.1659
21361W        W39565   0.891  16.435  13.099  0.2821 -0.0615  0.2334
21362W        W39566   5.308   1.038  14.433  0.0884 -0.0275  0.0506
21363W        W39567   0.425   3.865   4.380 -0.1216 -0.1510  0.1920
21364W        W39568   3.707  18.115  14.193 -0.3097  0.0481  0.1311
21365W        W39569   0.906  12.526  14.186  0.0382  0.0024 -0.3643
21366W        W39570  17.665   7.416   0.527  0.2219  0.1117 -0.2615
21367W        W39571  18.522   1.447  10.364 -0.0032 -0.0291  0.1098
21368W        W39572  10.427  13.377   4.167  0.0989  0.1322  0.2004
21369W        W39573  10.717   6.084   3.472  0.0601  0.1932  0.3693
21370W        W39574  10.538   3.980  11.575  0.0598  0.4741 -0.0882
21371W        W39575   9.141   2.230  13.685  0.0897 -0.3365  0.0281
21372W        W39576  11.699  14.361  13.636  0.0555 -0.0121  0.0827
21373W        W39577  16.249  13.802   2.004  0.1550  0.0063  0.1574
21374W        W39578   5.458   4.813  14.465 -0.2044  0.0827 -0.0754
21375W        W39579  11.652   8.576   3.565  0.0192 -0.2416  0.2144
21376W        W39580   1.336   7.021  15.394 -0.0269 -0.1358 -0.1856
21377W        W39581   4.810   6.827   3.189 -0.3018  0.1993 -0.0033
21378W        W39582   8.553   7.490   2.490 -0.1128 -0.0287  0.1100
21379W        W39583   8.459   6.368  11.305  0.3273  0.0939 -0.0149
21380W        W39584   4.718   9.374   3.675 -0.3407  0.2136  0.1679
21381W        W39585   4.003   5.676  13.914  0.1289  0.2513  0.1151
21382W        W39586   9.113  17.151   1.086 -0.0771 -0.0921  0.1384
21383W        W39587  15.432  16.050   1.808 -0.1538  0.2050  0.1204
21384W        W39588  10.138   5.080   3.221  0.0874 -0.3117  0.2741
21385W        W39589  16.104   4.437  14.222 -0.1637 -0.1358  0.0543
21386W        W39590  10.702  15.091   4.364  0.0292  0.0132  0.0957
21387W        W39591   2.187  11.179  15.144 -0.0330 -0.0868 -0.0151
21388W        W39592   9.710  12.183   1.242  0.0257  0.2924  0.2690
21389W        W39593   9.582   9.190   2.037 -0.2904 -0.1071 -0.1513
21390W        W39594   2.513   9.047   3.891 -0.1301  0.2500 -0.3385
21391W        W39595  11.325   9.501  13.681 -0.4523  0.2254  0.1449
21392W        W39596   9.617  18.204  14.218 -0.1607 -0.4627  0.1491
21393W        W39597   8.816  16.129   3.018  0.2435 -0.2225  0.0536
21394W        W39598  17.517   6.394  10.330 -0.0026  0.0220 -0.1437
21395W        W39599  15.717  16.021  11.222 -0.0542  0.2708 -0.1158
21396W        W39600  17.826  12.333  14.708  0.1043 -0.0372  0.0301
21397W        W39601   6.225   5.646  13.603 -0.1353 -0.0999 -0.3983
21398W        W39602   7.729   4.775  11.869  0.3272  0.2961  0.1334
21399W        W39603   3.203  17.020  14.956  0.0510 -0.0542  0.0617
21400W        W39604   6.853  10.741  11.557 -0.3473 -0.4500  0.0513
21401W        W39605  14.841  17.161   0.539 -0.1997  0.2666 -0.0997
21402W        W39606   7.117  14.272  13.107 -0.1970 -0.1191  0.1635
21403W        W39607  16.890  17.214  12.569 -0.2583 -0.3361 -0.0542
21404W        W39608   4.460   2.344   1.079  0.2417 -0.0546  0.0193
21405W        W39609   1.004   8.695   1.216 -0.3699  0.1197 -0.0616
21406W        W39610  17.416  11.240   5.206 -0.0304 -0.2386  0.1162
21407W        W39611  10.524   6.454   3.760  0.1039  0.1220 -0.1483
21408W        W39612   3.124   2.765  13.833  0.1210  0.0953  0.0550
21409W        W39613  13.760   7.861   1.986  0.0263  0.0908  0.2227
21410W        W39614  15.044   5.211   3.761  0.0476  0.0918 -0.2407
21411W        W39615  12.721   7.458  13.141 -0.1020 -0.0696  0.3208
21412W        W39616   3.908   9.064   2.036  0.3389  0.2795  0.1268
21413W        W39617   8.575  14.783   0.557 -0.0364 -0.0793 -0.0729
21414W        W39618  12.506  18.008   3.667 -0.0493  0.3230  0.1584
21415W        W39619  12.025  13.766   2.295 -0.0362 -0.1435 -0.2908
21416W        W39620  14.464   3.815   0.107 -0.2534 -0.3049  0.1997
21417W        W39621   4.773   5.698   1.057 -0.0702 -0.2002 -0.2240
21418W        W39622   9.666  14.396  12.389 -0.2172  0.2281 -0.1824
21419W        W39623   4.353   2.661   2.173 -0.0119  0.2062 -0.2119
21420W        W39624   9.376   0.918   3.497 -0.0501  0.0025  0.3691
21421W        W39625  15.553   5.640   4.667  0.0349  0.2773  0.0059
21422W        W39626   3.755   4.216   2.335  0.1510  0.1482  0.0852
21423W        W39627  13.013  15.207  13.483 -0.0871  0.2650  0.2900
21424W        W39628   2.775  12.202   4.054  0.0829 -0.1868 -0.0015
21425W        W39629  17.466   3.179  11.024 -0.0613  0.2176  0.2183
21426W        W39630  10.036   9.098   1.359 -0.2236  0.0440  0.0163
21427W        W39631   0.095   0.735   3.034  0.0938 -0.2777 -0.1760
21428W        W39632   0.417  10.014  10.629 -0.2890  0.1406 -0.0101
21429W        W39633   3.345  13.492   0.277  0.0520  0.0145 -0.0073
21430W        W39634  13.983   6.072   4.048 -0.1109  0.0076 -0.0509
21431W        W39635  12.938  13.824  14.688  0.1162  0.2763 -0.0346
21432W        W39636   7.719  17.062  13.970  0.1792  0.1294 -0.1667
21433W        W39637   6.245  13.165  15.065  0.3440 -0.0563 -0.0402
21434W        W39638   2.599   5.986  11.660 -0.0147 -0.0992  0.1854
21435W        W39639   3.004  13.256   0.935 -0.3257  0.0787  0.2940
21436W        W39640   9.878   6.928   3.569 -0.0984  0.3425  0.3217
21437W        W39641   9.498   4.210  14.767  0.0692 -0.0066  0.1211
21438W        W39642   8.551  12.246  10.857  0.0561  0.1849  0.1965
21439W        W39643  10.004  16.085   2.536 -0.1899 -0.3802 -0.2179
21440W        W39644  16.440   7.319  11.726 -0.1726  0.0965  0.1317
21441W        W39645   3.617  11.698   2.023  0.1101 -0.1182 -0.0174
21442W        W39646   2.363   4.465   3.013  0.1839 -0.0669 -0.0265
21443W        W39647  10.177   6.438  11.569 -0.0345  0.2125 -0.1366
21444W        W39648   7.167  15.602  15.444  0.1543 -0.0425  0.3258
21445W        W39649   4.008  15.465  11.536 -0.2110  0.1633  0.3091
21446W        W39650  15.539   9.826   2.506  0.2118  0.0746  0.0663
21447W        W39651   6.303  16.961  14.741  0.0084 -0.2465  0.2976
21448W        W39652  13.121   6.862   0.441  0.1344 -0.1092 -0.1599
21449W        W39653   5.934   6.695  11.820 -0.1891 -0.1633  0.2106
21450W        W39654  15.565  16.299  15.193 -0.1573  0.0871 -0.2213
21451W        W39655   6.858   4.067  14.270 -0.3845  0.0435 -0.2114
21452W        W39656   4.287  10.058   1.150 -0.0965  0.0750  0.1482
21453W        W39657  12.575  14.601  11.625 -0.1045  0.0685 -0.0963
21454W        W39658  12.719   6.104  13.559  0.0961 -0.0675 -0.2118
21455W        W39659   9.627  10.302  12.139 -0.1296  0.2527  0.3381
21456W        W39660  12.079  16.326   3.196  0.1819 -0.3288  0.1176
21457W        W39661   3.864   0.735   1.952 -0.0114 -0.1184 -0.2007
21458W        W39662   4.924  12.890   4.492 -0.0252 -0.0473  0.4260
21459W        W39663   9.349   2.565   3.099  0.0914 -0.3312 -0.0034
21460W        W39664   9.154  11.080  14.355 -0.2355  0.0292  0.2166
21461W        W39665   1.141   2.524  13.967 -0.0401  0.1568  0.1355
21462W        W39666   3.120   5.226  10.502  0.0477  0.2388  0.1252
21463W        W39667   8.828   2.079   3.844 -0.0478  0.3010 -0.1560
21464W        W39668   2.641   2.496   1.041  0.0212 -0.2173  0.1388
21465W        W39669   8.785  11.174   1.277 -0.1529  0.3178 -0.0069
21466W        W39670  17.871   3.214  13.135 -0.0754 -0.1930 -0.1313
21467W        W39671  13.575  16.891  14.510  0.0450 -0.2251  0.2612
21468W        W39672  16.346  10.948  10.888  0.2425 -0.1106  0.0332
21469W        W39673  17.454   8.891   3.745 -0.2141  0.3676  0.1585
21470W        W39674  12.335  17.328   1.311 -0.0017  0.2324 -0.1565
21471W        W39675   1.193  14.515  13.913 -0.2369 -0.0995  0.0186
21472W        W39676   2.721   9.547   4.445  0.0102  0.0631 -0.0937
21473W        W39677   2.217   6.744   0.278 -0.0815 -0.1254  0.0655
21474W        W39678  11.903   8.435  13.585 -0.1388  0.4159 -0.0341
21475W        W39679   1.951  12.889  14.147  0.3763 -0.2686 -0.5394
21476W        W39680  12.254   9.170  12.542  0.3480 -0.0933 -0.0041
21477W        W39681  15.753  16.545   1.160  0.1022  0.2505  0.4380
21478W        W39682   9.089  17.443   3.237  0.0642  0.0076  0.3585
21479W        W39683   8.129   5.216  10.751 -0.0751  0.0729 -0.0529
21480W        W39684   6.653   0.451   1.648 -0.2024  0.2789 -0.1108
21481W        W39685  16.821   8.822  12.885 -0.1040 -0.3241 -0.1147
21482W        W39686  11.958  12.839  11.234  0.0649  0.0716 -0.2604
21483W        W39687  15.002   7.027  15.311 -0.2525  0.0632  0.0725
21484W        W39688   1.850  16.034   3.418 -0.1343  0.0742 -0.4664
21485W        W39689   3.988   7.112  12.757 -0.0801  0.0531 -0.1778
21486W        W39690  16.273   0.172   4.288 -0.0329 -0.3183  0.0355
21487W        W39691  18.345  12.378   1.998 -0.3153  0.0368  0.1022
21488W        W39692   9.485   6.736  14.205 -0.1212 -0.1234 -0.0976
21489W        W39693  14.024  16.690   3.507  0.2185 -0.0403  0.0512
21490W        W39694  18.374  12.941  13.750  0.2001  0.1463 -0.1074
21491W        W39695   2.162   4.421   1.898  0.0610  0.0605  0.0669
21492W        W39696   0.834   7.997  15.273  0.0249 -0.0420  0.0807
21493W        W39697   5.240   4.343   4.379  0.1998  0.0578  0.0664
21494W        W39698  16.506   6.520   3.262 -0.0974  0.0147 -0.0174
21495W        W39699  12.852   0.966   3.951  0.0484  0.3190 -0.2282
21496W        W39700  17.267   0.825  15.169  0.3327 -0.2679  0.0487
21497W        W39701  15.748  13.047  15.407  0.4174 -0.1057 -0.0277
21498W        W39702   4.268  15.612  13.726  0.1340  0.2751 -0.0889
21499W        W39703  18.463  13.276   0.132  0.0393 -0.1934  0.1374
21500W        W39704  14.543  15.650   1.218  0.0317  0.0344  0.0772
21501W        W39705  16.909   4.036   2.584 -0.2512  0.1520 -0.1842
21502W        W39706  10.265  12.543   1.965  0.1354 -0.0394 -0.2415
21503W        W39707  16.943   5.022   0.027 -0.1520 -0.1153 -0.2005
21504W        W39708  12.327  10.911   1.292 -0.0878 -0.0014 -0.1160
21505W        W39709  11.653   7.510  13.593  0.2228  0.0968 -0.0101
21506W        W39710   3.513  10.433   9.817  0.2400 -0.0554  0.0557
21507W        W39711   6.544  12.975  13.343  0.2880  0.1515  0.0520
21508W        W39712   3.489  10.046  12.776 -0.3190 -0.1822 -0.2216
21509W        W39713  10.691  14.930   2.920  0.0658 -0.1351 -0.0004
21510W        W39714  14.107  12.198   0.681  0.0727  0.0079 -0.2403
21511W        W39715   9.845   5.562   3.998 -0.0511 -0.0157  0.0180
21512W        W39716   2.192  17.404  12.157  0.2201  0.2149 -0.1077
21513W        W39717   4.816  11.651   5.497 -0.2503  0.0171 -0.1907
21514W        W39718  17.366   7.136   1.346 -0.0108 -0.0455  0.0089
21515W        W39719   2.792   3.198  13.799 -0.0672 -0.0150 -0.0113
21516W        W39720  17.948   4.519  13.773  0.1601 -0.2937  0.1727
21517W        W39721   7.263  14.184   4.092  0.4259  0.0628  0.1222
21518W        W39722   8.104   1.376   1.543 -0.3765  0.2474 -0.3188
21519W        W39723   4.599  12.355   0.826 -0.0553  0.0031  0.5685
21520W        W39724   8.248   7.705  11.647 -0.0973  0.0672 -0.1685
21521W        W39725  11.583  12.064  15.157  0.2201 -0.0946 -0.2820
21522W        W39726  18.422  14.619  15.149 -0.5405  0.1810 -0.1726
21523W        W39727   1.755  11.041  12.759  0.0662  0.1924  0.1584
21524W        W39728   4.792   7.635   4.181  0.2800 -0.1479  0.0539
21525W        W39729   4.698   6.321  10.844 -0.3710  0.0378  0.2584
21526W        W39730   5.669   3.204   3.166  0.0153  0.4850 -0.0925
21527W        W39731  17.564  15.070   1.894  0.1369  0.3288  0.0000
21528W        W39732   4.841  13.825  13.161  0.0954  0.2385  0.3711
21529W        W39733   4.452  17.122   0.645 -0.1775 -0.0771  0.0760
21530W        W39734  14.226  14.644   1.900  0.0149  0.0564 -0.1990
21531W        W39735  17.091  13.981  11.907 -0.2018 -0.2566  0.2461
21532W        W39736  12.433   3.182   5.191  0.1033  0.0822  0.4443
21533W        W39737   2.587  15.050   1.526  0.0889 -0.2741  0.2186
21534W        W39738  17.528   9.866  12.581  0.1091 -0.2178  0.3419
21535W        W39739   2.890   0.864  12.711 -0.0283 -0.0816 -0.0941
21536W        W39740   5.504   2.041  13.609 -0.3198 -0.0925  0.0412
21537W        W39741   5.524  11.516  11.373  0.0169  0.0787  0.1188
21538W        W39742   9.266   7.024  10.989 -0.2017 -0.0625  0.0067
21539W        W39743   3.258   5.090  14.214  0.0601  0.0356  0.0362
21540W        W39744  11.842  10.618  14.492 -0.0494 -0.0598  0.0204
21541W        W39745   0.807   6.123   4.883  0.0284 -0.0320 -0.0407
21542W        W39746  10.635   8.165   0.269 -0.3587 -0.2297 -0.0646
21543W        W39747   4.591   2.912  11.532  0.2095  0.0963  0.0323
21544W        W39748   4.367   7.339   2.463 -0.0054  0.0069  0.2030
21545W        W39749   6.924   5.320   4.643 -0.1178 -0.1976  0.0477
21546W        W39750   3.120   4.692   3.683  0.0139  0.2421 -0.0575
21547W        W39751   1.548   5.954   3.952 -0.1248 -0.0105 -0.2200
21548W        W39752   7.449   8.178   0.684 -0.1087  0.0231  0.2335
21549W        W39753   7.577  10.991   3.631 -0.2270 -0.0449  0.4253
21550W        W39754   3.944  13.736   3.965 -0.1028  0.2204  0.0042
21551W        W39755   7.650  13.056  12.713  0.0275 -0.1998  0.1247
21552W        W39756   0.014   2.892  11.569  0.1923  0.0689 -0.1321
21553W        W39757  18.369   3.437  15.287  0.1696 -0.3931  0.0905
21554W        W39758  13.137   7.056  11.720  0.1412 -0.0622  0.1291
21555W        W39759  14.679  16.294  15.369  0.0012  0.0668  0.0379
21556W        W39760  13.379   0.848   3.072 -0.0566  0.0835 -0.1651
21557W        W39761  11.398   2.605   3.709  0.0977 -0.1477 -0.1070
21558W        W39762  13.827   5.867  11.520 -0.1157 -0.0186  0.1313
21559W        W39763   8.647  16.686  14.158  0.0268 -0.0236  0.0650
21560W        W39764   2.806  17.304   2.623  0.2432 -0.0273 -0.0090
21561W        W39765   1.727   6.715  13.606  0.3319  0.3253 -0.2232
21562W        W39766  13.122   7.026  12.976 -0.1632 -0.0002 -0.0688
21563W        W39767  15.096  13.526   1.866 -0.1002 -0.3545 -0.1323
21564W        W39768   0.334  13.119  13.265  0.3042  0.3467  0.1717
21565W        W39769  10.590   9.391  10.845  0.1414  0.3155  0.0086
21566W        W39770  12.254   8.392  14.241  0.1038  0.0798 -0.0069
21567W        W39771   5.291  15.428   0.122 -0.0144 -0.3519 -0.0405
21568W        W39772  16.177  14.530  11.138  0.1946 -0.0795  0.2429
21569W        W39773   8.728  16.014   1.915  0.2253  0.1187 -0.0085
21570W        W39774   3.752   5.593   0.389 -0.1558 -0.2553  0.0573
21571W        W39775  10.885  13.023  11.333 -0.0145 -0.1039 -0.0935
21572W        W39776  10.355  12.204   0.203 -0.2399 -0.0117 -0.0410
21573W        W39777  10.925   4.751  12.007  0.0279 -0.0793 -0.1341
21574W        W39778  13.376   1.711  14.092  0.2716 -0.1588  0.1958
21575W        W39779  13.604   6.510   4.087  0.1799  0.3797 -0.1139
21576W        W39780  15.954   6.130   3.860  0.1499 -0.2208  0.3994
21577W        W39781   7.946   9.465   3.660 -0.0595 -0.1452 -0.0525
21578W        W39782  13.168   0.399  11.493  0.1022  0.1403 -0.1655
21579W        W39783   3.411   5.189   1.389  0.0423  0.3349  0.0784
21580W        W39784   5.847  15.279  13.418  0.2328  0.1314  0.0315
21581W        W39785   2.162   6.026  14.955 -0.0727 -0.1823  0.1441
21582W        W39786   8.473  11.389  11.869 -0.1988 -0.1677 -0.1262
21583W        W39787  12.743   4.199   1.700 -0.1034 -0.6476 -0.1465
21584W        W39788  10.959   5.002   1.086  0.3729 -0.0105 -0.1760
21585W        W39789  14.382   8.435  10.916 -0.1635 -0.0018  0.0522
21586W        W39790  15.009   7.045   2.983 -0.1923 -0.1590 -0.0016
21587W        W39791   3.523   4.742   1.446 -0.1163 -0.1591 -0.0674
21588W        W39792   5.529  14.713  14.221 -0.2134 -0.1846  0.1835
21589W        W39793   0.370   0.643   0.825  0.0373  0.1673 -0.1762
21590W        W39794  16.580   1.985   1.051 -0.0147 -0.0852  0.0536
21591W        W39795   3.564   1.324  12.494 -0.1489  0.1906 -0.2057
21592W        W39796  18.150   2.548   0.240 -0.2060 -0.2377  0.0378
21593W        W39797   9.579  17.502   1.920  0.0765 -0.2354 -0.3203
21594W        W39798  13.665   9.553   4.468  0.0096  0.1599  0.0628
21595W        W39799   9.076   3.206   0.271 -0.1046 -0.0110  0.0794
21596W        W39800   3.090  12.254  14.608 -0.2212 -0.1077  0.2643
21597W        W39801   2.673   3.408   2.893  0.3020  0.0774  0.1101
21598W        W39802  11.385   8.675   2.324  0.1090  0.0736  0.0271
21599W        W39803   6.460   1.119  12.814  0.0698  0.2093  0.0894
21600W        W39804  11.350   3.550  14.686  0.0539 -0.3836 -0.2521
21601W        W39805  14.766  11.437  14.652  0.1028  0.3386  0.1502
21602W        W39806   7.961   4.832  13.723 -0.1263 -0.3260  0.1640
21603W        W39807   8.987  11.061  14.788 -0.1595  0.3432 -0.0806
21604W        W39808   2.610  15.627  13.016 -0.2349 -0.2980 -0.1138
21605W        W39809  17.925   4.561   3.115 -0.1260  0.1258 -0.1999
21606W        W39810  11.114  10.775   1.930  0.1473  0.2193  0.1930
21607W        W39811  13.549   7.350  13.026  0.2756 -0.0085  0.0183
21608W        W39812  15.697   3.396   4.528 -0.2066 -0.1085 -0.3305
21609W        W39813   2.520   4.030   3.700 -0.1787 -0.1013 -0.0069
21610W        W39814   1.577   2.657   1.569  0.0209  0.1511  0.0488
21611W        W39815   8.686   7.316  11.098  0.0281  0.2981 -0.3026
21612W        W39816   8.860  16.127  11.864 -0.2237 -0.1384 -0.2616
21613W        W39817  15.713  13.028   4.769  0.0633 -0.1248  0.0509
21614W        W39818  14.420   4.553  11.361 -0.1323 -0.2131 -0.3090
21615W        W39819   7.323   6.088   3.261 -0.3272 -0.0915 -0.0920
21616W        W39820  12.759   1.400   1.726  0.4894 -0.3755  0.1824
21617W        W39821   6.099   7.356  12.547  0.2961 -0.0500 -0.0475
21618W        W39822  16.939   1.419  11.890  0.0223 -0.2685  0.1033
21619W        W39823   4.467  16.248   3.697  0.1400 -0.2544  0.1423
21620W        W39824  17.742  17.799   0.869 -0.3154  0.0514 -0.1572
21621W        W39825   9.008   0.927  14.912 -0.1224 -0.1861 -0.2114
21622W        W39826  18.237  18.429   4.257  0.0902 -0.0941 -0.3729
21623W        W39827   9.863  13.319   0.973 -0.1182  0.1474  0.1142
21624W        W39828  13.077   0.085  15.431  0.0037  0.1417  0.0830
21625W        W39829   1.945   9.120   1.401 -0.0378 -0.1547 -0.1494
21626W        W39830  10.648   7.510   3.081 -0.0304  0.2195 -0.3086
21627W        W39831   4.518  14.509  14.433  0.0301  0.1938 -0.3065
21628W        W39832   8.467  17.716   3.944  0.2256 -0.1681  0.0168
21629W        W39833   4.620   1.799   4.029  0.0589  0.1348 -0.1821
21630W        W39834  10.667   5.875   0.266 -0.2025 -0.1465 -0.0179
21631W        W39835  18.403   9.136  11.522 -0.1405 -0.0807 -0.0619
21632W        W39836   0.818  10.219   0.376 -0.1030 -0.5680  0.2226
21633W        W39837  11.421  17.773  13.230 -0.3762 -0.0599  0.1129
21634W        W39838  16.319   9.759   1.974 -0.0164  0.1273  0.1106
21635W        W39839  11.689  10.744  12.093  0.2026 -0.1516 -0.1316
21636W        W39840  15.240   3.419  11.220  0.2624  0.1044 -0.2788
21637W        W39841  12.257   8.712   2.572 -0.1938 -0.1482 -0.3480
21638W        W39842  14.490  10.673  13.094  0.1728  0.1546 -0.1819
21639W        W39843  11.116   8.448  11.928 -0.1156 -0.0949  0.0422
21640W        W39844   4.998   0.871  13.198 -0.3508  0.1000 -0.2245
21641W        W39845   3.564   8.984  15.341  0.1503  0.3529 -0.0157
21642W        W39846   5.351  16.606   3.360 -0.0878  0.0947  0.1084
21643W        W39847  10.914   7.112  11.302  0.2034  0.3150  0.2827
21644W        W39848  10.333   2.609   2.865 -0.1683 -0.1140  0.2978
21645W        W39849  14.924   0.347   0.492  0.2810 -0.2314 -0.1677
21646W        W39850  17.740  17.750   3.526  0.0161  0.2171 -0.0585
21647W        W39851   3.825  12.350   2.726 -0.0195 -0.0228  0.0435
21648W        W39852   8.666  18.216   3.999 -0.0263 -0.0813  0.1451
21649W        W39853   3.477  11.403  13.550 -0.0120 -0.1552  0.2207
21650W        W39854   8.490   7.483  14.958 -0.0692 -0.0314  0.0919
21651W        W39855   6.821   8.921  11.103  0.0276  0.1507 -0.0548
21652W        W39856  12.315  16.594  12.465  0.2216  0.2877  0.0468
21653W        W39857   1.972   9.392   0.473  0.1773  0.2696 -0.1552
21654W        W39858   6.261   1.241   2.750 -0.0435  0.1535 -0.0434
21655W        W39859  18.103   2.130   3.905  0.0599 -0.3400 -0.0828
21656W        W39860  17.117  16.275   0.830  0.0008  0.0188  0.1210
21657W        W39861   4.790   1.111   1.127  0.0917  0.2015  0.3466
21658W        W39862   4.729   1.624   0.677 -0.2300 -0.0355 -0.0102
21659W        W39863   8.673  16.757  14.682 -0.4105  0.1746  0.0133
21660W        W39864   1.275  17.353   2.940 -0.1160  0.1171  0.0095
21661W        W39865  15.700   4.410  13.949  0.2684 -0.2496  0.5478
21662W        W39866   7.760   3.346   4.349 -0.2729 -0.2845  0.2943
21663W        W39867   9.193  13.998   5.350 -0.2785  0.1259  0.1519
21664W        W39868  11.780   5.280   1.128 -0.0964  0.0787 -0.0316
21665W        W39869   3.686  12.638  14.605 -0.0367  0.0174  0.0584
21666W        W39870  13.995   2.002   2.949 -0.1773 -0.2064 -0.4050
21667W        W39871   2.338   7.000   1.810  0.2112  0.3998 -0.3793
21668W        W39872   7.184  12.354   1.113 -0.3039  0.2049  0.0144
21669W        W39873   2.909   0.950  13.644 -0.0768  0.5248 -0.0872
21670W        W39874   2.794   0.922  14.555  0.0614 -0.1120 -0.0585
21671W        W39875  10.729  14.713  13.446 -0.1139 -0.1084  0.0947
21672W        W39876   3.475  16.951   4.777  0.0151  0.2240 -0.1155
21673W        W39877   4.372  12.824  13.907 -0.1088  0.1187  0.1326
21674W        W39878   5.824   4.388   3.592 -0.0191 -0.0202  0.0728
21675W        W39879   2.713   0.216   3.857  0.4282  0.3059  0.1095
21676W        W39880   8.136  11.775   0.863 -0.0788  0.1634  0.0067
21677W        W39881  14.954  14.795  14.025 -0.5748 -0.4400  0.0267
21678W        W39882  12.141  12.351  11.061 -0.0296  0.0490  0.0194
21679W        W39883  11.967  16.866   2.090 -0.1902 -0.1519 -0.0577
21680W        W39884  11.185  12.976  15.217 -0.1709  0.0909  0.0012
21681W        W39885   8.232   1.748  15.080  0.0134 -0.2397 -0.2487
21682W        W39886  10.982   4.205  11.668 -0.1053 -0.0836 -0.2064
21683W        W39887  11.293   7.175   0.914 -0.0916 -0.3724 -0.1305
21684W        W39888  13.960  13.888  11.665  0.0128  0.0431  0.0556
21685W        W39889   0.319   6.735  12.504  0.1435  0.0420  0.1284
21686W        W39890  11.881   4.186  14.539  0.0421 -0.0081 -0.3751
21687W        W39891  15.798   3.732  10.423  0.0318  0.1019 -0.1399
21688W        W39892   7.077  10.614   0.969 -0.3194 -0.0026  0.1592
21689W        W39893   6.728  11.120  12.408 -0.1004  0.4305 -0.1520
21690W        W39894   3.059  12.646  12.507 -0.3568  0.5147 -0.2403
21691W        W39895  11.098   5.012  11.105  0.1012 -0.0726  0.0507
21692W        W39896  16.662  16.179  14.161  0.1547 -0.0491 -0.2601
21693W        W39897  14.547  16.372   1.917 -0.0579  0.2119  0.1559
21694W        W39898   4.949  15.493  11.802 -0.3427  0.1777 -0.0030
21695W        W39899   3.328   8.997  11.786  0.0998  0.4913  0.0176
21696W        W39900  16.296   1.259  11.951 -0.0335  0.0406 -0.2595
21697W        W39901  13.628   4.505   2.819  0.1661 -0.0245 -0.0219
21698W        W39902  14.036   1.309   1.202  0.0625 -0.2398 -0.1540
21699W        W39903  15.698   9.710   1.286 -0.0497  0.3215 -0.1279
21700W        W39904  12.702   8.205   1.926 -0.0743  0.0122  0.2323
21701W        W39905  15.620   8.753  14.844 -0.0422 -0.1845 -0.2808
21702W        W39906   3.273   2.113  14.592  0.0187 -0.1257 -0.1630
21703W        W39907   0.475  10.581  13.649  0.1861  0.0367  0.0108
21704W        W39908  17.487   9.921  11.612  0.1367  0.0586 -0.0141
21705W        W39909   5.456   9.382   1.991  0.2297  0.0895  0.1287
21706W        W39910   8.212  16.519  12.217  0.2189 -0.1370 -0.1741
21707W        W39911  15.748   2.486   3.072 -0.0793 -0.1793 -0.1148
21708W        W39912   8.413   5.335   2.040 -0.0299 -0.2251 -0.1998
21709W        W39913  14.397  12.053   1.587 -0.2364  0.2692 -0.0645
21710W        W39914  15.160   4.970  12.923  0.0960 -0.0044  0.0241
21711W        W39915   5.060  18.535  13.655 -0.0118 -0.0356 -0.0600
21712W        W39916  12.787  18.274   9.957 -0.3893 -0.2560 -0.3859
21713W        W39917  17.033  11.334  11.968  0.3276 -0.1968  0.3057
21714W        W39918  13.366   1.172  14.521  0.2876  0.2224 -0.0248
21715W        W39919   9.278  14.214   3.449 -0.0900  0.1084  0.3252
21716W        W39920  14.059   0.943  14.034 -0.1101  0.1176 -0.0551
21717W        W39921   4.735  18.090   3.612  0.1591  0.1157  0.1345
21718W        W39922   8.109  17.528  12.476 -0.1075 -0.0101 -0.1938
21719W        W39923  10.325  16.374  12.393 -0.2291  0.1862  0.0277
21720W        W39924  18.009  14.646  13.058 -0.1702 -0.0887 -0.2234
21721W        W39925   1.828   4.667  15.283  0.1919 -0.1526 -0.0576
21722W        W39926  13.558  13.409  12.396 -0.0911  0.3070 -0.0220
21723W        W39927   3.841  16.834  12.240  0.1403 -0.3061  0.1543
21724W        W39928   0.861   1.491   3.454  0.0572  0.0516 -0.1546
21725W        W39929   1.970   2.700   2.430  0.0176 -0.2697  0.2417
21726W        W39930  10.897  14.805  12.029  0.1893  0.0278 -0.0890
21727W        W39931  14.522   8.096   3.627 -0.1687  0.1142 -0.2284
21728W        W39932  17.148   0.678  11.155 -0.0509 -0.0273 -0.2065
21729W        W39933   2.008   5.381  14.128  0.0091  0.4841  0.0941
21730W        W39934  17.719   1.618  13.066  0.1344 -0.1463  0.0359
21731W        W39935   2.383   6.304   2.441  0.0238 -0.0188 -0.3986
21732W        W39936  15.943  15.934   1.069 -0.0480  0.2579 -0.0646
21733W        W39937   1.306   8.631   2.117 -0.1165  0.1006  0.5045
21734W        W39938  10.979  15.121  15.162  0.0344  0.1502 -0.2663
21735W        W39939   5.281   9.586  12.477 -0.2751 -0.1934 -0.0186
21736W        W39940   1.995  13.547   5.392 -0.1321  0.0495 -0.0350
21737W        W39941   7.444  12.272  11.838  0.2031  0.2068  0.2412
21738W        W39942   1.143  16.647  13.481  0.1007  0.1011 -0.1692
21739W        W39943   4.925   5.575  12.187 -0.2479  0.1265  0.0803
21740W        W39944  17.931   6.221  14.614 -0.0710 -0.0658 -0.0645
21741W        W39945   1.393  18.254  11.681  0.2542 -0.2534  0.0003
21742W        W39946  13.913   0.830   1.337  0.2574 -0.1469 -0.0435
21743W        W39947  12.543   0.246  11.709 -0.1974 -0.3621  0.1606
21744W        W39948   4.463   2.969  15.362  0.3008 -0.0908  0.0374
21745W        W39949   8.347  12.127  12.856 -0.0364  0.1991  0.0098
21746W        W39950  12.799   6.262   5.145 -0.0713 -0.2616  0.1399
21747W        W39951   6.885  10.799   2.925  0.0010  0.0154  0.0663
21748W        W39952  13.740   6.371  14.934 -0.0446 -0.3380 -0.0871
21749W        W39953   8.384  13.689  12.639  0.0517  0.2509  0.0691
21750W        W39954   7.346  10.805   4.186  0.2000 -0.1094 -0.0184
21751W        W39955  12.803   3.578   5.128  0.0656  0.0338 -0.1103
21752W        W39956   2.742  12.354  11.699 -0.0912  0.0484  0.0567
21753W        W39957  16.040  16.623  14.595  0.1664 -0.0877 -0.1503
21754W        W39958  11.812  14.525   2.539 -0.2675  0.1800  0.1607
21755W        W39959   0.656   5.036  11.189 -0.3014 -0.0396  0.0019
21756W        W39960   7.149   0.576  14.691 -0.0947 -0.1362  0.0261
21757W        W39961  11.891  10.181  14.161  0.0998 -0.1167  0.2058
21758W        W39962  18.460   3.677  11.581  0.0095 -0.1264 -0.2248
21759W        W39963   5.084  15.167   1.923 -0.0429  0.0741  0.0628
21760W        W39964  14.004  15.245   3.143  0.0581  0.1903  0.0822
21761W        W39965   8.893   3.799   2.323  0.1051  0.1190 -0.3344
21762W        W39966   6.975   9.199   2.670 -0.0199  0.0603 -0.0431
21763W        W39967  16.138   7.122   5.363  0.2100 -0.0807 -0.1115
21764W        W39968  13.330  16.684   4.536  0.4727 -0.0107 -0.0001
21765W        W39969   0.228   3.664   1.202  0.3603 -0.3431 -0.2919
21766W        W39970   4.571  11.949   2.845  0.0295 -0.1990  0.4261
21767W        W39971   6.719  11.062   3.346  0.1143  0.2077 -0.1877
21768W        W39972   1.812  14.136   0.291 -0.2508  0.3023 -0.3702
21769W        W39973   5.255   9.044  10.690 -0.0022  0.0309 -0.1199
21770W        W39974   8.161  14.164   1.609 -0.0980 -0.0195 -0.1799
21771W        W39975  10.257  12.538   2.452  0.1925  0.2476  0.1099
21772W        W39976   0.034   4.431  13.427  0.2299  0.3408 -0.0713
21773W        W39977  17.714   8.967  10.782 -0.0692 -0.0663  0.3925
21774W        W39978  17.124   9.539  11.497  0.0150  0.1174  0.0029
21775W        W39979  11.504  18.400  11.727 -0.1208  0.0240 -0.0818
21776W        W39980   6.480   3.684  14.908 -0.2722  0.0037 -0.3309
21777W        W39981   1.042   1.026   4.285 -0.0539  0.0380 -0.2288
21778W        W39982  10.159   9.747   2.276 -0.4424  0.1777  0.1207
21779W        W39983  13.636   7.330   3.022  0.2306 -0.0504  0.1661
21780W        W39984  16.210  13.269  10.908  0.0029  0.1519  0.3272
21781W        W39985   2.528   5.053  15.125  0.0051  0.4646  0.0360
21782W        W39986  11.300  16.386  12.807  0.0262 -0.0430  0.1053
21783W        W39987  17.636   3.501  14.655 -0.0895  0.0063  0.0878
21784W        W39988  12.614   8.535   0.741  0.2095 -0.0600  0.0997
21785W        W39989  11.903   2.621  13.135 -0.0690 -0.0682 -0.0242
21786W        W39990  13.753   3.807  12.289 -0.0276 -0.0479  0.0720
21787W        W39991  16.267  17.441  13.003 -0.0202  0.1511 -0.0476
21788W        W39992  16.723   5.362  13.852  0.0503 -0.0434 -0.1026
21789W        W39993   5.826   6.886   0.759 -0.0769  0.0139  0.1245
21790W        W39994   0.550   2.641   1.773 -0.2171 -0.2855 -0.0205
21791W        W39995  14.515   5.350   3.709 -0.0563  0.1002 -0.0506
21792W        W39996  14.106  17.935   5.422  0.4327 -0.2953 -0.1403
21793W        W39997  14.715   7.190  14.340  0.2294 -0.1669  0.0820
21794W        W39998  16.666   5.762   2.646  0.0633 -0.2333 -0.2584
21795W        W39999  18.109  17.219  11.072  0.2273 -0.1716 -0.1189
21796W        W40000  12.865   2.240   4.450 -0.3641  0.0828 -0.0586
21797W        W40001   2.211   0.928  11.487  0.1606 -0.0804  0.3757
21798W        W40002   1.332  11.483   1.618 -0.1253 -0.0233 -0.1589
21799W        W40003  10.035  12.827  12.544  0.0410 -0.0128  0.0641
21800W        W40004  16.074  14.535  12.027 -0.1258  0.0090  0.0936
21801W        W40005   4.402   3.877  11.638 -0.1863 -0.0270  0.1273
21802W        W40006   4.920   4.546   9.674  0.0225 -0.1070  0.1422
21803W        W40007   3.018   7.116  13.367 -0.0687  0.1357 -0.2198
21804W        W40008   5.859  15.591   1.391 -0.1739  0.3545 -0.3299
21805W        W40009  18.379   5.845  14.562  0.0000 -0.2299  0.1448
21806W        W40010   9.144   0.878   1.433  0.1995 -0.0012 -0.0265
21807W        W40011  13.762   0.959  13.542  0.1267 -0.0902 -0.1397
21808W        W40012  10.436  18.055   4.078 -0.2600 -0.0064  0.0425
21809W        W40013   5.913   8.019  10.301 -0.2151 -0.1632  0.0713
21810W        W40014  17.947  15.084   0.885  0.1884 -0.0130  0.1485
21811W        W40015   9.682   3.486  11.836 -0.2108 -0.2644 -0.0568
21812W        W40016   1.861   6.032   0.854  0.4910 -0.0115  0.1681
21813W        W40017   8.537  16.029   5.092 -0.2423 -0.0500  0.0907
21814W        W40018   4.554   0.826  15.442 -0.0676  0.2088 -0.0128
21815W        W40019  10.460  13.349  12.107  0.0871 -0.4903 -0.0671
21816W        W40020   2.349  10.430  13.827 -0.2833 -0.1031  0.3083
21817W        W40021   2.192  17.548   2.531  0.2262 -0.1066  0.0305
21818W        W40022  17.318   0.655  14.019  0.0163  0.1211  0.0383
21819W        W40023   8.554   7.552   0.013  0.0740  0.0098 -0.1002
21820W        W40024   9.839  17.436  13.529  0.1349  0.3170  0.1853
21821W        W40025   5.932   5.155  14.060 -0.0515 -0.1043  0.4064
21822W        W40026  11.194  16.787  11.191 -0.2123  0.0144 -0.0250
21823W        W40027  13.946   9.499   1.204 -0.2280  0.0864  0.0176
21824W        W40028   2.328   0.047   1.517 -0.2736  0.1259  0.2758
21825W        W40029   5.764   6.308   3.934  0.0451 -0.0334 -0.1708
21826W        W40030   4.119  12.293   0.808 -0.0103 -0.1350 -0.0515
21827W        W40031  15.492   4.009   0.048 -0.2300 -0.3309 -0.0675
21828W        W40032  10.262   7.610   3.301 -0.0135  0.2467  0.1681
21829W        W40033   6.189   8.906   1.964 -0.1093 -0.0465  0.0346
21830W        W40034   5.386  13.424   2.256  0.2584 -0.2418 -0.0931
21831W        W40035   0.099  17.526  13.176  0.2287  0.0606 -0.0799
21832W        W40036   6.126   4.173   0.769 -0.0440 -0.0307  0.0493
21833W        W40037  12.256  16.806  14.206  0.0448 -0.2269  0.2134
21834W        W40038  12.815  14.624   0.979 -0.1855 -0.1609 -0.1561
21835W        W40039  12.054   0.181  15.245 -0.0812 -0.2767  0.0479
21836W        W40040   4.189  10.296   3.377 -0.1927  0.1825 -0.0748
21837W        W40041  13.217  15.472   2.015 -0.0212  0.1273 -0.1871
21838W        W40042   9.835  14.106  13.889 -0.0278  0.3089  0.0882
21839W        W40043  12.048   9.515  15.336  0.2740 -0.1071  0.1560
21840W        W40044  11.784  12.330   0.564  0.4310 -0.2148  0.1863
21841W        W40045   2.296   0.853   2.031 -0.1936  0.0479  0.1256
21842W        W40046   2.718  11.746   3.193  0.0893 -0.3275 -0.1412
21843W        W40047   4.806  16.128  13.039 -0.0765  0.0026  0.1511
21844W        W40048   5.601   2.666  12.811  0.2602 -0.0901  0.0485
21845W        W40049   5.898  13.282  13.692 -0.2477  0.0030 -0.0183
21846W        W40050   3.110  15.845  13.122  0.0483  0.0781  0.0620
21847W        W40051  10.403  15.909   0.748  0.0177 -0.2682  0.3030
21848W        W40052   7.559  15.320   0.117  0.0192 -0.0030  0.0065
21849W        W40053   8.932   3.467  14.220  0.2970 -0.1570 -0.2090
21850W        W40054  18.390   7.948  14.257 -0.0833 -0.0082 -0.2382
21851W        W40055  17.122  13.971   3.912  0.1006 -0.0669  0.1452
21852W        W40056  11.539   5.891   1.877  0.1146  0.2113 -0.1799
21853W        W40057   7.300   1.659  12.526  0.2847  0.0232 -0.2787
21854W        W40058  17.114  15.709   1.053  0.2697  0.1575  0.0033
21855W        W40059  14.962  10.138   1.461  0.0876  0.0056  0.0591
21856W        W40060  18.087  13.339  13.504  0.0298  0.0081  0.2176
21857W        W40061  14.189   1.218   2.563 -0.3480  0.1253 -0.1216
21858W        W40062  16.870  10.542  12.764  0.3343  0.1227  0.0656
21859W        W40063  15.575  13.036   1.229  0.4216  0.1885  0.0819
21860W        W40064   6.038   7.043  14.860  0.1076 -0.2952 -0.3762
21861W        W40065  18.134   6.537  14.251  0.1262 -0.0878  0.3010
21862W        W40066  14.625  13.998  13.862 -0.1119 -0.0595 -0.1311
21863W        W40067  17.982   6.867  11.185 -0.0897 -0.1562 -0.0078
21864W        W40068  10.171   9.082  14.918 -0.2443 -0.0807  0.0934
21865W        W40069   1.106  13.759  15.144  0.0712 -0.2507 -0.3018
21866W        W40070  14.582   4.985   2.634 -0.4126 -0.1950  0.3248
21867W        W40071  14.531  15.009  11.186  0.1269 -0.4100  0.1465
21868W        W40072   9.979   8.919   0.885 -0.0979 -0.0662 -0.2111
21869W        W40073  18.324   0.745  13.344  0.0737 -0.2208  0.0697
21870W        W40074  18.606  10.520  13.092  0.1436 -0.0455  0.1972
21871W        W40075   1.788   9.248   0.973  0.0096  0.0965 -0.0416
21872W        W40076   4.828  18.119   2.358 -0.0750  0.2299 -0.3500
21873W        W40077  14.253   9.498  14.297 -0.0619  0.1186  0.1600
21874W        W40078   9.196   9.889   3.128  0.0034 -0.1423  0.0406
21875W        W40079   5.663   5.483   0.277  0.0108  0.1666  0.1397
21876W        W40080   2.480  16.903   4.709 -0.2384 -0.1440 -0.0329
21877W        W40081  15.276   8.718  11.604  0.2099 -0.0208  0.0591
21878W        W40082  15.270   1.911   0.776 -0.1828 -0.2622 -0.1696
21879W        W40083   1.598   0.674  13.466 -0.0725  0.1798 -0.2441
21880W        W40084  15.289  16.452   1.534 -0.2168  0.2371  0.0263
21881W        W40085   0.928   2.435   2.591 -0.0643 -0.1465  0.0400
21882W        W40086  14.669  12.082  11.518  0.4646  0.2417  0.0649
21883W        W40087   1.420  18.583  14.815  0.0380  0.0812 -0.2106
21884W        W40088  14.873   4.896  12.489 -0.0910  0.0513  0.1347
21885W        W40089  10.890   6.059   4.318 -0.2661  0.0521  0.0687
21886W        W40090  17.629   5.567   4.934 -0.1972 -0.2955 -0.0779
21887W        W40091  10.916   0.088   0.159  0.1269 -0.0824  0.0261
21888W        W40092  18.192   8.985   5.087 -0.0413 -0.2266 -0.1278
21889W        W40093  10.568  16.654   4.714 -0.1403 -0.1031 -0.0663
21890W        W40094   2.967   9.664  12.052  0.1200  0.0943 -0.1765
21891W        W40095  15.478   6.018   3.914  0.1583 -0.3755  0.1247
21892W        W40096  15.390   1.594  13.219  0.3368 -0.0557 -0.0127
21893W        W40097   8.561   4.018  14.895  0.2688  0.1210  0.0331
21894W        W40098  11.548  16.004  12.647 -0.2407  0.0511  0.1509
21895W        W40099  11.731   7.526   1.367  0.1793 -0.3873  0.0260
21896W        W40100  13.760  11.407   3.934  0.0406  0.3800  0.0236
21897W        W40101   2.599   8.177   0.820 -0.2199  0.1122 -0.0495
21898W        W40102   4.914   6.589  11.899  0.0645  0.4929  0.1489
21899W        W40103  13.403   3.077  11.297 -0.1419 -0.3249 -0.1040
21900W        W40104  11.475   5.181   2.684  0.1636  0.1108  0.4861
21901W        W40105   0.647   9.974  12.903  0.0512 -0.0726 -0.3770
21902W        W40106  10.539   0.402   0.039  0.2986 -0.2196 -0.3466
21903W        W40107   1.423   1.573  11.332  0.2555 -0.0992 -0.1072
21904W        W40108   8.363  10.925  14.798 -0.4675  0.3477  0.0762
21905W        W40109  14.422   1.135  14.396  0.0528  0.0258 -0.0977
21906W        W40110  13.754   2.089  12.655 -0.0370  0.1625 -0.0180
21907W        W40111   3.137   6.353   0.500 -0.1533 -0.1811 -0.2219
21908W        W40112   9.018   3.756   4.697 -0.1979  0.0273 -0.0201
21909W        W40113  12.943   2.938  11.347 -0.0158  0.1644  0.1703
21910W        W40114   5.417  17.249   0.111 -0.0330  0.1249 -0.0422
21911W        W40115   4.514   0.775  13.317 -0.2201  0.4002 -0.2055
21912W        W40116   7.880   1.038  14.384  0.2287  0.1071 -0.0608
21913W        W40117  10.574   8.604   0.093 -0.3964 -0.1610  0.0613
21914W        W40118  12.608  16.707  14.710  0.0751 -0.0184  0.2192
21915W        W40119  16.037   4.528   0.368 -0.0052 -0.0136 -0.2157
21916W        W40120   0.363  13.715  13.470 -0.0041  0.1961 -0.2612
21917W        W40121  11.145   9.229   3.084  0.1359  0.0441  0.0017
21918W        W40122  10.152   8.016  14.745 -0.4531 -0.0890  0.4746
21919W        W40123  15.404   7.590   3.512 -0.0062 -0.0161  0.0465
21920W        W40124  11.344  11.777  14.691  0.0918 -0.0940 -0.2496
21921W        W40125  11.853  14.138   3.498 -0.0529  0.3137  0.2903
21922W        W40126  16.906   8.491  13.393  0.1678  0.1116  0.0891
21923W        W40127  16.726   8.942  14.069 -0.0439  0.1521 -0.0253
21924W        W40128   4.665   4.162   0.560  0.0036 -0.1783  0.0925
21925W        W40129   4.229   4.192   2.225 -0.3188 -0.2608 -0.0602
21926W        W40130   4.372   5.101   2.278 -0.3973  0.0452 -0.0267
21927W        W40131   3.426   6.596   3.500  0.0424  0.2334 -0.2672
21928W        W40132  16.781   1.146  15.305  0.0189  0.0156 -0.0219
21929W        W40133  18.612   4.565   2.491  0.1115  0.0767 -0.2105
21930W        W40134  17.740   1.838  12.523  0.0531  0.1464  0.4468
21931W        W40135   3.062   5.297   2.286  0.0564  0.0762  0.0785
21932W        W40136  14.788   5.493  15.312 -0.0179  0.0549 -0.0585
21933W        W40137   8.476   4.141   3.656  0.1968  0.2196 -0.1823
21934W        W40138   2.021   3.938  12.162 -0.0447 -0.1377  0.1444
21935W        W40139   3.506  11.928   5.675  0.0875  0.0528 -0.3881
21936W        W40140   2.510  11.827   4.197 -0.0887 -0.0305  0.0947
21937W        W40141  10.301  13.037   5.094 -0.0051 -0.0065  0.1112
21938W        W40142  17.779  11.507   2.825 -0.1604 -0.0805 -0.1460
21939W        W40143  15.779   8.329  12.427 -0.0007  0.0383  0.0803
21940W        W40144   5.802  12.671  14.553  0.2976  0.2761 -0.1980
21941W        W40145  10.594   1.659   0.061 -0.2256 -0.3419  0.0800
21942W        W40146  14.596   4.913   3.164 -0.0068 -0.0980  0.1699
21943W        W40147   6.670   4.234   3.408 -0.2060 -0.0953  0.1687
21944W        W40148  11.229  16.204   1.386  0.2233  0.0570 -0.2072
21945W        W40149  13.902   0.206  13.531 -0.2511 -0.1579 -0.1002
21946W        W40150  12.847  16.820   0.377 -0.1517 -0.1879 -0.1719
21947W        W40151  14.782   6.383   1.077  0.1592 -0.0288 -0.0863
21948W        W40152   5.901  12.036  14.401  0.0934 -0.1106 -0.1635
21949W        W40153  17.486   9.977  13.273 -0.1505  0.0191 -0.0230
21950W        W40154  17.160  13.054  14.052  0.0894  0.1638 -0.1409
21951W        W40155  12.993   0.555   0.291 -0.0387  0.2146 -0.4584
21952W        W40156  10.684   7.649   4.053 -0.4032  0.0857  0.2638
21953W        W40157   4.412   5.103   3.933 -0.4134 -0.0945  0.0686
21954W        W40158   6.095  16.117   0.711 -0.3023  0.1660 -0.1732
21955W        W40159  12.417  12.232   2.507 -0.0157  0.1643 -0.3552
21956W        W40160  15.006  14.338  12.909  0.0507 -0.0733 -0.3531
21957W        W40161   0.390   5.736   3.809 -0.0767  0.0257 -0.1838
21958W        W40162   1.301   4.419  14.936 -0.0763 -0.0092  0.1554
21959W        W40163   9.389   2.912  15.102  0.0547 -0.0457 -0.0182
21960W        W40164   6.833   0.581   2.094  0.2892 -0.0060  0.0286
21961W        W40165   1.060  17.528  13.450 -0.0400  0.1466  0.1040
21962W        W40166   1.111  11.059   4.332 -0.1307  0.2325 -0.1564
21963W        W40167  15.914   4.429   0.852 -0.2746  0.2383 -0.2082
21964W        W40168   1.141  16.501   0.037 -0.1594  0.0799 -0.0266
21965W        W40169   4.278  11.842   3.203  0.1366 -0.1013  0.0189
21966W        W40170   8.775  11.467  14.099  0.0475 -0.2922  0.0381
21967W        W40171   8.815  12.527  14.012 -0.1766  0.1714  0.2530
21968W        W40172   2.934  16.798  14.269  0.2464 -0.0222  0.4223
21969W        W40173   6.372   0.964   4.175  0.0774  0.0540  0.0082
21970W        W40174   5.204   9.047   0.251 -0.1123 -0.0615 -0.3668
21971W        W40175   4.636  18.144  15.229 -0.0548 -0.1828  0.0224
21972W        W40176  11.801   1.714  15.149 -0.1669  0.1757 -0.1418
21973W        W40177   9.942  15.818  13.214 -0.2244  0.1095  0.0092
21974W        W40178   9.048  17.578  12.325 -0.2154 -0.0649  0.1874
21975W        W40179   8.380  18.357   1.781  0.2499 -0.2172  0.1923
21976W        W40180   6.206   7.653  14.093 -0.2785 -0.0912  0.3048
21977W        W40181   2.275  16.290  15.213 -0.4003  0.0431  0.1704
21978W        W40182   0.400   2.998   3.590  0.1102 -0.0895  0.0438
21979W        W40183   1.407   9.423   0.667 -0.0644  0.2206 -0.1155
21980W        W40184  14.625   1.777   1.915  0.2832 -0.2213  0.3396
21981W        W40185  17.254   5.155   1.693  0.1982  0.1586  0.1654
21982W        W40186   0.624  12.739   0.701  0.0979  0.2448  0.1001
21983W        W40187   2.081   7.809  13.612 -0.0006  0.1627 -0.1281
21984W        W40188  14.081  14.056   3.062  0.3353 -0.1854 -0.0036
21985W        W40189   2.009   2.485   1.584  0.1771 -0.1645 -0.2183
21986W        W40190  13.496  15.432   0.595 -0.2267  0.2030  0.0866
21987W        W40191  17.169  18.552  13.684  0.2141 -0.1289  0.2404
21988W        W40192   4.703   5.543  11.233  0.0136 -0.2107 -0.2298
21989W        W40193  16.059   0.107  15.153  0.1870 -0.1437  0.1385
21990W        W40194  15.873  18.354   0.626  0.1484 -0.1537 -0.1145
21991W        W40195   9.985   6.532  10.110  0.0408  0.1931  0.2270
21992W        W40196  15.413   9.651  12.011 -0.0603 -0.0392 -0.0689
21993W        W40197  18.408   5.159   3.970 -0.1525 -0.2033 -0.1104
21994W        W40198  16.133  14.563   0.939  0.0673 -0.0647  0.3139
21995W        W40199   3.613  12.569  10.651  0.1186 -0.0527 -0.0102
21996W        W40200  16.670  15.551   2.835 -0.0930  0.1992  0.0945
21997W        W40201   7.014  10.623  14.110  0.0210  0.0896 -0.1547
21998W        W40202  13.413  12.868   0.667  0.3377 -0.1242  0.1979
21999W        W40203   7.901   9.975  13.198  0.3418 -0.0081 -0.2705
22000W        W40204   9.228   6.131  11.400  0.0256 -0.1285  0.0847
22001W        W40205   5.437   6.935  12.267  0.2923  0.1987 -0.1197
22002W        W40206  13.853   5.019   1.968 -0.0467  0.1892  0.0413
22003W        W40207   2.134  14.012  10.691  0.1466  0.0548 -0.1488
22004W        W40208   6.433   1.779  11.733  0.1527 -0.0716 -0.0711
22005W        W40209  18.062   9.294  13.242  0.0352  0.2720  0.1672
22006W        W40210   6.841   6.998   0.010 -0.0840 -0.2000  0.2110
22007W        W40211   2.885  18.599  11.777 -0.0607 -0.1588 -0.2089
22008W        W40212  18.054  15.658   2.972 -0.0528  0.2998  0.1330
22009W        W40213  12.026   3.245  12.359  0.3244  0.0330 -0.2288
22010W        W40214  16.379  10.287   4.535 -0.0914  0.2606 -0.0334
22011W        W40215   6.588   3.834  12.547 -0.1732  0.1938 -0.1126
22012W        W40216   0.772   1.760  13.500 -0.1909  0.0353 -0.1615
22013W        W40217   0.052   2.029  12.803  0.0852 -0.0179 -0.1128
22014W        W40218  10.491   6.619   2.473  0.0856 -0.0373  0.3642
22015W        W40219  11.138  15.218   4.567 -0.1878 -0.0108  0.1966
22016W        W40220   4.930  14.307   1.446  0.0128  0.0190 -0.2517
22017W        W40221   7.268  12.558   2.893  0.0893 -0.2019 -0.0460
22018W        W40222  13.409   3.207   3.740  0.1069 -0.2589  0.0678
22019W        W40223   5.555   4.029   2.982 -0.0643  0.0430 -0.3827
22020W        W40224  10.127   2.695  14.516  0.1294 -0.1069  0.0409
22021W        W40225  16.968   1.824  15.046  0.2640 -0.0230  0.1836
22022W        W40226  17.065  14.752  12.600  0.0721 -0.2864  0.2569
22023W        W40227  16.684  13.054   4.890  0.0415  0.3597  0.0512
22024W        W40228   9.956  11.106   2.906  0.0528 -0.0459 -0.0907
22025W        W40229  14.422  10.269   2.102 -0.0724 -0.2140  0.2409
22026W        W40230  15.644  18.264  12.725 -0.1167 -0.2843 -0.1520
22027W        W40231   4.231   9.869   4.710 -0.0642  0.0728  0.5349
22028W        W40232   9.918   5.811  12.176 -0.0224 -0.1201 -0.3068
22029W        W40233   1.125  15.360  13.866  0.1766  0.0026 -0.0757
22030W        W40234   6.520  16.123   2.035 -0.1228  0.0838  0.0218
22031W        W40235  12.182   3.709   3.325 -0.2431 -0.1702  0.1304
22032W        W40236   5.931  12.408   0.071  0.2411  0.0512  0.1128
22033W        W40237   8.489   6.666  14.748  0.1101 -0.1688 -0.0566
22034W        W40238   3.761  13.178   2.706 -0.2768 -0.1731 -0.0626
22035W        W40239  10.232   0.446   0.602  0.2441  0.0554 -0.0324
22036W        W40240   3.235   0.038   0.370  0.1287  0.0405  0.1435
22037W        W40241   2.106  11.209   4.092 -0.3340  0.0333  0.1888
22038W        W40242  14.988  17.832  11.067  0.2565 -0.0670 -0.0555
22039W        W40243  10.470  10.399   2.457 -0.3507 -0.0733 -0.0592
22040W        W40244  14.959   3.815  10.264 -0.1059 -0.0521  0.0121
22041W        W40245   8.402   6.334   3.663  0.3114 -0.0410  0.0031
22042W        W40246   9.552   2.426   3.938  0.0069 -0.2268  0.1399
22043W        W40247  16.258   5.156  11.547  0.0075  0.1025 -0.1195
22044W        W40248  10.452   5.582   2.830 -0.2512  0.1182  0.0852
22045W        W40249   1.278  17.760   4.494 -0.1690  0.0340 -0.1962
22046W        W40250  17.196  16.662  12.182 -0.0028  0.0843 -0.1761
22047W        W40251   0.035  14.315   2.880  0.1881 -0.1832 -0.2493
22048W        W40252   9.893   4.442  13.495 -0.0292  0.0732  0.1555
22049W        W40253   1.859  14.165  12.213  0.0993 -0.2412 -0.0300
22050W        W40254  16.822  18.123  15.423  0.1147  0.0097 -0.1527
22051W        W40255  10.129  14.420   3.893  0.0083  0.2607 -0.0036
22052W        W40256   0.984  14.064  14.160  0.2987 -0.1637 -0.2313
22053W        W40257  12.064   1.684  10.969  0.1831  0.0160 -0.0227
22054W        W40258   0.618   0.636   1.306  0.1092  0.1446  0.0596
22055W        W40259  12.212   6.221  14.260  0.0653  0.1839 -0.0589
22056W        W40260   7.009  12.841  14.729  0.0356  0.0761  0.1234
22057W        W40261  17.391  12.584  13.233 -0.0630  0.0245  0.0336
22058W        W40262   5.094  17.021  10.907  0.1031  0.1031 -0.0274
22059W        W40263  12.206   0.510   4.177 -0.1773  0.0939  0.1105
22060W        W40264  18.394   9.192   1.838 -0.0246  0.0336  0.0270
22061W        W40265  16.319  17.381   2.145  0.0256 -0.0119  0.0577
22062W        W40266  12.356   1.916  11.618 -0.3626  0.2338  0.0441
22063W        W40267   4.792  13.288   4.836 -0.0791 -0.2054  0.1950
22064W        W40268   5.760   8.369  13.245 -0.1023 -0.1328 -0.1825
22065W        W40269   2.120  18.326   4.271 -0.4584  0.1172  0.0831
22066W        W40270   4.650   2.233   1.851  0.1439 -0.1406  0.1866
22067W        W40271   4.859   8.493   2.230  0.1298  0.1979  0.2077
22068W        W40272   6.908   6.696  12.161  0.1930  0.2653 -0.3176
22069W        W40273  13.897  13.547  14.250 -0.0351 -0.1725 -0.1127
22070W        W40274  16.194   7.033  14.636  0.1732  0.0809  0.0106
22071W        W40275  11.778   6.870   0.389  0.0037 -0.1788 -0.1292
22072W        W40276   3.278  13.305  11.919  0.1189 -0.0062  0.2620
22073W        W40277  15.100   0.290   2.264  0.3312 -0.3635 -0.0865
22074W        W40278  12.682  14.803   3.548  0.0511  0.0715  0.1309
22075W        W40279   6.122  17.135   1.948  0.0676  0.1626  0.2225
22076W        W40280   7.458   3.128   4.007 -0.0090 -0.0330 -0.0813
22077W        W40281   3.315  13.647  15.225  0.2634 -0.1110 -0.1434
22078W        W40282  17.807   3.176   3.028  0.1287  0.1665  0.3350
22079W        W40283  12.927  16.134   3.784 -0.0124 -0.0969 -0.0603
22080W        W40284  10.011  11.537   3.231  0.1267 -0.0303  0.2533
22081W        W40285   6.948   7.135  12.331  0.0712 -0.2750 -0.4018
22082W        W40286  15.935  13.911   0.110 -0.1759  0.4269  0.0865
22083W        W40287   6.739  10.715  14.600 -0.0383  0.2212 -0.0422
22084W        W40288  13.385   3.545  12.497 -0.0293 -0.1766  0.2769
22085W        W40289   9.406   1.730   1.613  0.1030  0.0569  0.3009
22086W        W40290   0.525  16.809  12.990 -0.0667 -0.6220 -0.2192
22087W        W40291  14.457   6.253   3.618 -0.0192  0.0856 -0.0847
22088W        W40292   6.509   9.502   3.998 -0.2031  0.3038 -0.4065
22089W        W40293   6.393  18.008  12.453 -0.1218 -0.3925  0.0002
22090W        W40294  14.708  16.189  14.184  0.2658  0.0685  0.2156
22091W        W40295  15.246   9.234  12.231 -0.2840 -0.0719 -0.0034
22092W        W40296   3.212  12.141  11.351  0.2018 -0.1446  0.2797
22093W        W40297  13.287  17.221  15.028  0.0804  0.1036  0.0045
22094W        W40298   3.657  11.951   4.949 -0.0207  0.0393 -0.0542
22095W        W40299   8.509   8.873   1.420  0.1695  0.4220 -0.2930
22096W        W40300   8.708  15.611  14.204 -0.0170 -0.0228 -0.4630
22097W        W40301   3.285  10.746  12.449 -0.2770  0.2046  0.1066
22098W        W40302  13.593   1.849  15.408  0.0820  0.1227 -0.4004
22099W        W40303   3.717  14.184  13.994 -0.3598  0.1819  0.1115
22100W        W40304   0.388  15.739  12.138  0.1174 -0.1012 -0.4549
22101W        W40305  17.762   4.807   2.327  0.1107  0.1900  0.2738
22102W        W40306  10.909  16.358  13.096  0.1595 -0.3216 -0.2722
22103W        W40307  12.907  15.273   2.470 -0.4557  0.2626 -0.4359
22104W        W40308  16.001  18.138   5.084  0.1846 -0.1604  0.2125
22105W        W40309   5.622   7.868   4.273  0.1737  0.3101 -0.0053
22106W        W40310   8.449   9.901  13.284  0.0753  0.2633  0.1117
22107W        W40311   4.084   0.131  14.906  0.0319 -0.2301 -0.0809
22108W        W40312  13.434   7.841  12.873 -0.0028 -0.0101 -0.1901
22109W        W40313   5.755   5.933   2.816 -0.0834 -0.3082 -0.0865
22110W        W40314   3.195   1.254   3.077 -0.0397 -0.2686 -0.2904
22111W        W40315   3.382   5.167   3.683  0.0443 -0.3642  0.0367
22112W        W40316  10.691  15.571  12.141  0.2276  0.1312 -0.3292
22113W        W40317  13.552  10.514   0.046  0.1564 -0.1928  0.0914
22114W        W40318  15.296  14.242  11.357  0.1001 -0.0293  0.0326
22115W        W40319  10.749   2.546   2.328 -0.1253 -0.1246 -0.0958
22116W        W40320   9.798   2.733  14.959 -0.3026 -0.1969 -0.0346
22117W        W40321   1.621  14.032   9.878 -0.0223  0.1844 -0.0898
22118W        W40322   2.905  13.835  14.417  0.1625  0.1190 -0.2994
22119W        W40323   3.203   0.409   2.483  0.1988  0.2040  0.1240
22120W        W40324  16.463  15.006   0.856  0.0978  0.0997  0.0900
22121W        W40325  18.440   4.551  11.900  0.3005  0.0569 -0.2433
22122W        W40326   3.968   7.395   3.337  0.0845  0.1891 -0.0257
22123W        W40327   7.467   4.747  10.807  0.2105 -0.0719  0.2459
22124W        W40328   6.588  14.604   3.702 -0.0151  0.2020 -0.1059
22125W        W40329   0.485  11.300  15.224  0.1283 -0.1703 -0.1788
22126W        W40330   7.030  16.584  15.149  0.1710  0.3941  0.3341
22127W        W40331   9.300  11.983  14.647 -0.3600  0.1095 -0.0009
22128W        W40332  17.254  16.361  14.103  0.0224 -0.2916 -0.1665
22129W        W40333   7.640  14.496  14.415 -0.1063 -0.1567  0.0554
22130W        W40334   8.491  12.524   4.838 -0.0794 -0.1373 -0.1277
22131W        W40335   4.136  12.922   1.828 -0.0152 -0.0291 -0.0264
22132W        W40336   3.527  14.245   1.957  0.2197 -0.1669 -0.2397
22133W        W40337   4.841   8.484   1.468 -0.1490 -0.1084  0.3127
22134W        W40338   2.529   0.786  13.366 -0.0409  0.2705 -0.0098
22135W        W40339   2.810  16.876   4.279 -0.0885  0.1023  0.3431
22136W        W40340  14.813   9.995   3.312  0.1379  0.0490  0.0817
22137W        W40341  14.734   4.644  10.383  0.1207  0.2800 -0.1469
22138W        W40342  17.689  13.717   4.681 -0.1633 -0.2842 -0.2154
22139W        W40343   5.984  14.501  15.101  0.0453  0.2056  0.0972
22140W        W40344   5.741   5.797  13.548  0.1912 -0.0332  0.1978
22141W        W40345   3.460   3.280  14.565  0.2226 -0.1896  0.2112
22142W        W40346  14.887  17.664  12.476  0.0063  0.0134  0.4301
22143W        W40347  16.181  18.410   1.085 -0.0145 -0.1495  0.0947
22144W        W40348   2.879   8.618  11.473  0.2714  0.3662 -0.0495
22145W        W40349   1.262  15.938   4.661 -0.0020 -0.0687 -0.2103
22146W        W40350  17.235   1.094   5.148  0.3510 -0.0312  0.0358
22147W        W40351  18.470   2.608   2.508  0.1940  0.0887 -0.1029
22148W        W40352   0.002  14.928   0.127  0.1489  0.0208 -0.2381
22149W        W40353   3.865   3.559   0.992 -0.2266 -0.1847 -0.0891
22150W        W40354   0.290   4.257   1.383 -0.0784 -0.2051 -0.0436
22151W        W40355  16.082  10.427   4.121 -0.1610  0.1326  0.4869
22152W        W40356  10.200   0.884   2.562 -0.2643  0.0117  0.1940
22153W        W40357   3.304   6.351   3.953 -0.5309  0.0237  0.1765
22154W        W40358  11.668   9.810  15.164 -0.1001 -0.0042  0.1647
22155W        W40359  11.326   6.416   0.248 -0.3544 -0.0341 -0.1112
22156W        W40360   5.114   2.273   0.395 -0.3188 -0.1731  0.0091
22157W        W40361  16.774   7.024   0.095 -0.0321 -0.1126  0.1217
22158W        W40362   4.545  18.196  10.943  0.1784 -0.0383 -0.2935
22159W        W40363   8.030  17.049   4.039 -0.0372 -0.3480 -0.3636
22160W        W40364   5.345   2.992   0.112 -0.0004  0.0049  0.1497
22161W        W40365   1.646   2.092   0.359  0.1183 -0.1407  0.2841
22162W        W40366   8.145  18.274  12.837  0.0577 -0.1414  0.3168
22163W        W40367   8.447   1.799   3.477  0.2391  0.2074 -0.3268
22164W        W40368   6.582   3.518   0.803  0.0706  0.0729  0.0497
22165W        W40369   5.195   8.727  11.913  0.2785 -0.2366  0.0097
22166W        W40370  16.159   4.216   3.692 -0.1533 -0.1426 -0.2078
22167W        W40371   5.747   1.405   1.628  0.1499 -0.0327 -0.3025
22168W        W40372  11.539   0.720  11.667 -0.1873 -0.1190 -0.1872
22169W        W40373  17.504   3.506   0.830 -0.2912  0.2077 -0.0510
22170W        W40374   9.351   1.534  14.712  0.3332 -0.0795 -0.0287
22171W        W40375   3.082   3.213   0.963  0.2115 -0.3145  0.2018
22172W        W40376  16.108  16.812   3.116  0.1197  0.0179  0.2703
22173W        W40377   5.568  18.577   4.048  0.0113  0.1622 -0.2227
22174W        W40378  18.211  17.269  14.704  0.1068  0.0360 -0.1791
22175W        W40379   9.414   1.950  13.061  0.1472 -0.1361  0.1879
22176W        W40380  17.570  10.503   1.290 -0.0044 -0.0285 -0.1877
22177W        W40381  17.396  10.668  13.772  0.0572  0.1507  0.1029
22178W        W40382   6.465   1.831  12.245  0.1459  0.2152 -0.1269
22179W        W40383   5.207   7.350  13.784 -0.0666  0.1280  0.0991
22180W        W40384   4.852  14.272   4.316 -0.1013 -0.2266 -0.0744
22181W        W40385  14.133   8.562   2.917 -0.0409  0.2400 -0.1084
22182W        W40386   3.347   1.383   2.115  0.0912  0.0400  0.0444
22183W        W40387   1.596   6.389   1.821  0.0006 -0.1402  0.4703
22184W        W40388   2.534  14.653  11.007 -0.2972  0.0687 -0.0591
22185W        W40389   3.918   3.644  15.446 -0.1884  0.0134  0.1673
22186W        W40390  16.276  14.949   0.011  0.1194  0.0891  0.0318
22187W        W40391   3.665  11.030   0.326 -0.0291 -0.0599  0.0223
22188W        W40392  10.513   2.915  11.481  0.1182  0.1025 -0.0548
22189W        W40393   6.830  13.411   4.592 -0.2576  0.1596  0.0389
22190W        W40394   3.407  17.645  12.285  0.1485  0.1634  0.0214
22191W        W40395  14.157  14.701   0.287  0.0506 -0.1027  0.4002
22192W        W40396  13.181  12.377   2.074  0.4155  0.2339  0.1891
22193W        W40397  12.836   5.969  15.429  0.1143 -0.0230  0.3011
22194W        W40398   6.260  14.667  14.687  0.3054 -0.3362  0.2065
22195W        W40399  10.822   6.827   5.648 -0.0636 -0.3499 -0.0044
22196W        W40400   0.191   2.497  11.279  0.1446  0.1066  0.0557
22197W        W40401   8.691  10.441   2.542  0.3733 -0.2357  0.2318
22198W        W40402   2.708  17.802  14.986  0.4083 -0.1638  0.1728
22199W        W40403   8.251  11.258  10.509  0.2142 -0.2345 -0.0297
22200W        W40404   6.636  15.269  14.124  0.1233  0.3614  0.1842
22201W        W40405  17.077  11.541   2.375 -0.2295 -0.3757  0.1992
22202W        W40406   5.653   8.468  10.537 -0.0986  0.1654  0.0415
22203W        W40407  18.045   5.136  10.414  0.1380 -0.2269  0.2368
22204W        W40408  12.905  14.870  13.848  0.0920 -0.3822  0.0864
22205W        W40409   0.880   0.975   0.923 -0.0458 -0.0093  0.2074
22206W        W40410  18.329  11.524  13.362 -0.0908 -0.1991 -0.4131
22207W        W40411   9.977  11.732  14.282  0.0820 -0.1812 -0.2181
22208W        W40412   6.575  15.128  11.790 -0.2658 -0.0637 -0.0290
22209W        W40413   3.498   5.188  12.420  0.0077  0.0241  0.0941
22210W        W40414  15.821  15.418   1.147  0.2097  0.1699 -0.0380
22211W        W40415   4.028   3.191  15.418  0.1291 -0.0825 -0.1949
22212W        W40416  10.963  15.581   2.277  0.2227  0.0742  0.1560
22213W        W40417  16.458  12.451   0.353 -0.3253  0.0261  0.3329
22214W        W40418  14.454   0.594  12.197  0.0927  0.3088 -0.1248
22215W        W40419  14.862   3.080  12.504  0.0208 -0.1162  0.3053
22216W        W40420   9.497  10.912  14.738 -0.3694  0.1907 -0.0584
22217W        W40421   0.726   6.681   3.425  0.3462 -0.0331  0.1479
22218W        W40422  11.501  14.443   3.551  0.1683  0.1873  0.1261
22219W        W40423  10.877  16.058   0.593  0.0846  0.1738 -0.1069
22220W        W40424  16.753  11.407   1.700  0.2309  0.3126 -0.1436
22221W        W40425  18.415   2.363  14.315 -0.1150  0.0963 -0.0380
22222W        W40426   7.360  10.633   3.320  0.2287  0.2318  0.0277
22223W        W40427  14.074   3.887   3.481 -0.0292  0.1049 -0.0010
22224W        W40428   1.926  18.108  11.790 -0.0575 -0.0157  0.1587
22225W        W40429  18.155  11.966   0.073 -0.0351 -0.1939 -0.1127
22226W        W40430   6.495  16.195  12.165 -0.2106  0.0198  0.4267
22227W        W40431   9.107   0.809   0.789 -0.0689 -0.0255 -0.0091
22228W        W40432  13.537   8.455   3.785 -0.2377 -0.0305  0.1192
22229W        W40433   7.168  10.189  14.506  0.0010 -0.0711  0.3119
22230W        W40434   0.327   4.399  12.500  0.2170 -0.2221  0.2984
22231W        W40435  11.529  15.056  10.710  0.0499  0.0100 -0.0932
22232W        W40436  14.637  11.547   4.179  0.0010 -0.0324  0.2055
22233W        W40437   2.842  17.052  12.833  0.1719 -0.5364  0.0542
22234W        W40438   7.257  14.776  14.618  0.1022 -0.2141  0.3447
22235W        W40439   8.679  12.398   1.111 -0.1567  0.0172 -0.1415
22236W        W40440  18.319   0.070  12.042  0.0456  0.0256  0.1027
22237W        W40441  11.033   6.253  11.125  0.5590 -0.1052 -0.1240
22238W        W40442   2.028   7.151   2.201  0.0283 -0.0871  0.0338
22239W        W40443  10.876   8.464  14.356  0.1526  0.0199  0.1311
22240W        W40444  12.813  15.394   1.620 -0.0007 -0.0036 -0.2575
22241W        W40445   4.585   0.136  14.881  0.1625 -0.2416  0.0047
22242W        W40446   8.527   3.489   5.373 -0.1373  0.1684  0.3655
22243W        W40447   2.158  16.762  15.293 -0.4267 -0.0638 -0.1509
22244W        W40448   2.920   2.456   0.112  0.0827  0.1501 -0.1040
22245W        W40449   4.800   7.276  13.337  0.2644  0.1509  0.2135
22246W        W40450   9.881   8.440  11.568 -0.2329  0.1062 -0.4308
22247W        W40451  15.593  10.262   3.276 -0.2741  0.2743  0.1432
22248W        W40452  14.148   2.244   0.612 -0.1325  0.3414  0.1647
22249W        W40453  16.124  17.656  11.910 -0.1400 -0.1489 -0.0262
22250W        W40454   8.962  12.874  14.334 -0.3471  0.1570  0.0774
22251W        W40455  16.882  11.749  15.000 -0.0661  0.0766  0.1727
22252W        W40456  17.546  15.054   1.342 -0.0805 -0.1562 -0.1958
22253W        W40457   0.111   0.629  12.886 -0.1807 -0.1172  0.1670
22254W        W40458   8.107   4.069   4.031  0.1068 -0.0444  0.3934
22255W        W40459  12.294   1.288   1.891  0.2106 -0.2526 -0.0085
22256W        W40460   0.130   4.037   2.295  0.0354  0.4068 -0.0376
22257W        W40461  10.833   7.200  10.830 -0.2684 -0.1664 -0.3230
22258W        W40462   5.648  13.649   4.190 -0.2139  0.1331  0.2101
22259W        W40463   3.607   9.105   4.929 -0.4182 -0.1140 -0.1349
22260W        W40464  18.470   5.741   0.579 -0.5568 -0.0224 -0.1521
22261W        W40465  14.669  10.194  14.691 -0.0033  0.2825  0.0461
22262W        W40466  17.459  12.924  14.913 -0.4677 -0.2065 -0.0370
22263W        W40467   4.822   7.576   5.228  0.2921 -0.1506  0.0740
22264W        W40468  15.613  10.855  14.603  0.1216  0.1833 -0.0117
22265W        W40469   9.119  18.126   2.392 -0.1079 -0.1582  0.0157
22266W        W40470  13.763   2.118  14.438  0.0623  0.0957 -0.5375
22267W        W40471  17.440  15.759  10.947 -0.2476 -0.0473 -0.1167
22268W        W40472   9.481   5.606   3.456  0.0794 -0.1611  0.0357
22269W        W40473  13.302   6.327   2.803 -0.3774  0.0345 -0.0799
22270W        W40474  16.019   8.242   0.811 -0.0414 -0.2164 -0.0105
22271W        W40475   9.353   5.659  11.405 -0.0680  0.2037  0.1376
22272W        W40476  13.268  15.063   1.605  0.1288 -0.0945 -0.3757
22273W        W40477  18.100   4.866   3.702 -0.3076  0.0980  0.0662
22274W        W40478  12.402  12.531  15.327  0.2449 -0.0392 -0.0300
22275W        W40479  11.259  11.597  11.127 -0.3091 -0.0334 -0.2166
22276W        W40480   2.956   9.167  15.278  0.0716 -0.0589 -0.1443
22277W        W40481   0.921   4.043  11.256 -0.2847 -0.1387 -0.2721
22278W        W40482   2.603   5.155   4.319  0.0788 -0.1172  0.1675
22279W        W40483  12.863  10.156   2.377  0.0704 -0.0287  0.0171
22280W        W40484  14.801  16.399  13.261 -0.2267 -0.3253 -0.1797
22281W        W40485   1.047   4.345   3.551  0.1458  0.0624 -0.1139
22282W        W40486   9.362  12.180   1.603 -0.2393  0.0221 -0.0329
22283W        W40487  17.458   3.688  11.633 -0.0726 -0.0042  0.1892
22284W        W40488  13.644   3.835  14.012  0.0306 -0.2104 -0.0557
22285W        W40489  16.485   1.379   3.872  0.1222 -0.0807 -0.0850
22286W        W40490   6.459   7.543   1.150 -0.0461 -0.0084 -0.1258
22287W        W40491   2.185   5.372  12.873 -0.1017  0.1412  0.2027
22288W        W40492   3.202  13.419  12.780  0.0399  0.1995 -0.0503
22289W        W40493   7.321   7.832  14.337  0.1483  0.0252 -0.1922
22290W        W40494   7.859   6.068   1.640 -0.0374  0.0469  0.0703
22291W        W40495  14.843   1.244  14.113 -0.1392  0.0779  0.1106
22292W        W40496   8.802  14.245   3.734 -0.1923  0.1719  0.2110
22293W        W40497   1.796  18.193  14.197 -0.1330  0.2783  0.2144
22294W        W40498  13.448   6.267  15.315 -0.2060 -0.1822  0.2457
22295W        W40499  18.561   5.250  11.185 -0.0631  0.4881 -0.0950
22296W        W40500  18.292  14.012   5.863 -0.1584 -0.1018  0.0777
22297W        W40501  11.643   8.957   4.469 -0.0418 -0.1892 -0.0031
22298W        W40502  12.093  15.829  12.729  0.2036 -0.2640 -0.1280
22299W        W40503  16.065   5.659  12.319 -0.4973 -0.0052 -0.1215
22300W        W40504  15.901   3.185  14.174 -0.1605 -0.2198  0.0495
22301W        W40505  18.360   8.865  10.280  0.2198  0.2983 -0.2105
22302W        W40506  15.259  13.555  14.620 -0.0755  0.0286  0.1913
22303W        W40507   0.848   8.785  13.336 -0.0726  0.1440  0.0829
22304W        W40508   2.322  16.376   0.753  0.0547 -0.0599 -0.1346
22305W        W40509   2.392   1.060   3.757 -0.3399 -0.0418  0.1323
22306W        W40510  12.708  17.453  10.088 -0.0036  0.2232 -0.2564
22307W        W40511  13.184   5.795   3.081  0.0049  0.3040 -0.0409
22308W        W40512   3.264   5.344   0.411  0.1252  0.0047 -0.2266
22309W        W40513   6.936   5.365   2.601  0.1350  0.0455  0.0303
22310W        W40514  14.602  13.178  11.895 -0.2380  0.1855 -0.1981
22311W        W40515   3.957   5.892   4.487  0.2247 -0.4390 -0.0140
22312W        W40516   3.327   3.244  13.038 -0.0534  0.1703  0.0640
22313W        W40517   6.279  17.829   4.148  0.2816  0.2806  0.0645
22314W        W40518  13.049   5.242   5.316 -0.1368  0.2206 -0.1702
22315W        W40519  14.141   1.495   3.993 -0.2868 -0.0375  0.0456
22316W        W40520  13.976   8.875   3.795  0.0106  0.0581 -0.3684
22317W        W40521   0.677   7.615   3.624  0.3887  0.2975  0.0130
22318W        W40522   7.943  15.995   2.281 -0.0599 -0.2103 -0.0279
22319W        W40523  16.094  10.370   1.192  0.1011 -0.0437 -0.0294
22320W        W40524   8.566  15.257   0.794 -0.2102 -0.0790  0.1695
22321W        W40525  16.554  14.739  12.469 -0.1377 -0.0236 -0.0543
22322W        W40526   3.227   6.155   3.470  0.3496  0.1071 -0.0326
22323W        W40527  10.517   0.392  14.976 -0.0050 -0.1319  0.0741
22324W        W40528   2.627   4.720   0.109  0.0719 -0.3943 -0.2701
22325W        W40529  18.057  18.574   1.407 -0.0493 -0.2303 -0.1427
22326W        W40530   4.331   5.862  11.419 -0.2023 -0.0363 -0.2740
22327W        W40531   5.982  17.583  12.604  0.2003  0.0836 -0.2059
22328W        W40532  17.257   7.564  13.076 -0.1595  0.0379 -0.1755
22329W        W40533  15.066  11.802  15.016  0.0578 -0.1553 -0.2354
22330W        W40534  14.944  15.863   3.510  0.2758  0.0307  0.2847
22331W        W40535  12.581   6.927  13.225  0.2983 -0.2399 -0.0465
22332W        W40536   1.484  16.094   1.794 -0.0456 -0.1131 -0.2855
22333W        W40537  17.043   7.769  14.873  0.2030 -0.2085  0.1343
22334W        W40538   3.288   6.968   3.962 -0.0377  0.0496  0.2275
22335W        W40539  10.692   1.505  13.139  0.1655 -0.1824 -0.3640
22336W        W40540   1.413  17.452   1.689 -0.1169 -0.0425 -0.0096
22337W        W40541   6.430  11.124   5.053  0.3644 -0.1415  0.1650
22338W        W40542   3.529   8.113  14.280  0.1754  0.2141 -0.2234
22339W        W40543   9.916  12.703   4.898  0.2254  0.0261  0.0030
22340W        W40544   9.579   1.625  13.436  0.0708 -0.3305 -0.1661
22341W        W40545  17.356  14.597   0.397  0.1350 -0.0050  0.1304
22342W        W40546   0.269  11.848  13.055 -0.1765  0.2289 -0.0701
22343W        W40547  15.776  11.615  11.313 -0.0584 -0.0155 -0.0887
22344W        W40548   2.765   6.229   4.162 -0.0131  0.1544 -0.1668
22345W        W40549  17.997   6.379  11.567 -0.3267  0.0977 -0.2373
22346W        W40550   2.889   3.535  12.141  0.1150 -0.0748 -0.1685
22347W        W40551  10.292   2.246   1.602  0.0405  0.1352  0.0005
22348W        W40552   8.818  16.653  15.192  0.1668 -0.0539 -0.0830
22349W        W40553   2.250   4.344   3.489 -0.0507 -0.0022 -0.3406
22350W        W40554  16.227   6.254  14.170 -0.3105  0.2032  0.1931
22351W        W40555  10.733   1.692   3.019 -0.3257  0.1144 -0.3294
22352W        W40556  12.958   7.714   3.849  0.1541 -0.0930 -0.0380
22353W        W40557   8.215   7.842   1.309  0.2085 -0.1115  0.2664
22354W        W40558  15.531   7.573  13.589  0.1945 -0.0339 -0.1613
22355W        W40559   7.380   6.704  10.933  0.1541 -0.1942  0.0390
22356W        W40560  10.109   3.721  14.867 -0.0644 -0.0562 -0.0812
22357W        W40561  18.493  13.734   3.870  0.1079 -0.2366  0.0848
22358W        W40562   4.641  14.760  15.127 -0.2323  0.0360  0.1558
22359W        W40563  10.691   0.130  14.319 -0.4109 -0.1316  0.2192
22360W        W40564   9.201  10.440   4.014  0.1937  0.1172  0.1694
22361W        W40565  13.653  18.098  12.627 -0.1237  0.0861  0.0012
22362W        W40566  10.122  15.325   2.159 -0.1318  0.3267 -0.0205
22363W        W40567   0.325  18.025  13.462  0.0047  0.1711  0.0842
22364W        W40568   7.857  16.170   1.379  0.1459 -0.0608  0.1009
22365W        W40569   5.532   0.258  12.403  0.0435 -0.3443  0.0003
22366W        W40570   1.646   3.350   3.210  0.0976 -0.0070 -0.2823
22367W        W40571  10.910   1.654  10.955 -0.1866 -0.0237 -0.0885
22368W        W40572   1.044   0.720  11.370 -0.3786  0.3063 -0.1121
22369W        W40573   8.976   3.826  10.911 -0.3092  0.0142 -0.1154
22370W        W40574   8.888   9.475   2.658  0.0170  0.0464 -0.1647
22371W        W40575   4.103   8.078   5.398  0.1677 -0.1938 -0.2090
22372W        W40576   3.203  16.820  11.802  0.1320 -0.0502 -0.0803
22373W        W40577   5.301  14.652  13.764  0.0548 -0.2298  0.0150
22374W        W40578  10.836   4.919  12.523  0.2818  0.3052 -0.0458
22375W        W40579  10.162   4.714   0.321 -0.0764 -0.2313 -0.1051
22376W        W40580  11.126  10.764   0.085 -0.5798 -0.0785  0.4343
22377W        W40581  17.201  14.353   3.540 -0.2541 -0.0777 -0.0702
22378W        W40582  16.142  10.895   1.247  0.1221 -0.2489  0.0612
22379W        W40583  14.913  18.254  10.730  0.1035  0.3201  0.0529
22380W        W40584   1.056  12.201  13.596 -0.3981  0.1340 -0.1308
22381W        W40585   8.009   8.384  14.003  0.0907 -0.0630 -0.0751
22382W        W40586  15.776   3.421  13.766 -0.0675 -0.0236 -0.4136
22383W        W40587   9.804   2.346  12.254  0.1561 -0.1312 -0.0855
22384W        W40588   0.250  13.265   1.829  0.2598 -0.0454 -0.1893
22385W        W40589   4.480  14.911   0.671 -0.0201  0.0583  0.3079
22386W        W40590   8.150  10.346   4.641 -0.0515 -0.0186  0.0677
22387W        W40591   0.457  13.406   3.966 -0.2574  0.1304  0.0678
22388W        W40592  14.455  14.971  14.861  0.1409 -0.3388  0.0379
22389W        W40593   1.904   0.019   0.230 -0.2544  0.1069  0.0078
22390W        W40594   5.162  15.182  13.354  0.2384 -0.0670  0.1788
22391W        W40595   0.339   9.478  13.508  0.0514  0.0346  0.0980
22392W        W40596   9.425  10.998  13.501 -0.2932 -0.2134  0.2510
22393W        W40597   4.953  12.415  11.464 -0.0590 -0.1189  0.0935
22394W        W40598  17.412   5.027   2.559 -0.1825 -0.0303 -0.2534
22395W        W40599  15.732   2.578  14.833 -0.1901  0.0154  0.2718
22396W        W40600   9.101  16.187  15.052 -0.1408  0.1461  0.2142
22397W        W40601  14.025   1.889   0.220  0.1612  0.2213 -0.0786
22398W        W40602   7.286   2.058  11.954 -0.2481  0.1389 -0.1234
22399W        W40603   1.325  14.434  10.508  0.0598 -0.0305  0.0009
22400W        W40604  17.919  15.491  14.103 -0.0755  0.0039 -0.1140
22401W        W40605  12.617  17.099   3.070 -0.1176  0.2445  0.0354
22402W        W40606   6.945  17.958  15.336 -0.0901  0.1090  0.0998
22403W        W40607   4.910   8.266  13.127  0.1527  0.4075  0.0619
22404W        W40608  14.975  16.018   1.687  0.0221 -0.1769  0.1417
22405W        W40609  18.270  10.797  14.979  0.3556  0.1247  0.1808
22406W        W40610  15.946  17.248  14.955 -0.0518  0.1766 -0.1445
22407W        W40611   0.697  12.225   0.680 -0.0312 -0.5161 -0.2983
22408W        W40612   6.419   1.470  15.355  0.0937  0.1724  0.3818
22409W        W40613  17.906  13.682   2.642  0.2271  0.1366  0.0615
22410W        W40614   0.534  12.115   0.203  0.1624  0.2539 -0.1924
22411W        W40615   6.624   4.399   0.686  0.2190  0.1471 -0.1340
22412W        W40616   8.838  10.502   1.369 -0.2453  0.0817 -0.0372
22413W        W40617  15.831  14.507   4.203 -0.0322 -0.1842  0.0691
22414W        W40618  18.409  14.816  14.604  0.2413  0.1720 -0.1856
22415W        W40619   7.193   4.622   0.008 -0.1479  0.2404  0.0552
22416W        W40620  16.989  11.528   4.624  0.0465  0.1152  0.1801
22417W        W40621   3.028  15.650  14.861 -0.0853  0.2037  0.1027
22418W        W40622  16.654  18.491   3.350 -0.0354  0.2633  0.0186
22419W        W40623   8.635   0.164   2.531  0.0244 -0.0060 -0.2863
22420W        W40624   9.866   3.981  11.962  0.0586  0.0284 -0.2978
22421W        W40625  17.893   5.013   2.782 -0.2418 -0.0434  0.2407
22422W        W40626  17.424  17.515  11.961  0.1742 -0.1900  0.1541
22423W        W40627   6.895   4.705  15.044  0.0406 -0.0783  0.0820
22424W        W40628  11.589   6.335   4.875 -0.4043 -0.2735 -0.0708
22425W        W40629   5.338   6.644  15.392 -0.1589  0.2118 -0.2560
22426W        W40630  18.506  11.863  15.064 -0.3324 -0.4590 -0.0758
22427W        W40631   5.417  15.547   2.151  0.1043  0.3034 -0.4491
22428W        W40632  18.462   1.454   3.264  0.1304 -0.1949  0.4413
22429W        W40633   4.779   6.340  13.609 -0.2993 -0.2426  0.0997
22430W        W40634   8.420   5.804  13.456  0.2678 -0.0424  0.0338
22431W        W40635   3.896   3.479  10.713  0.2280  0.2896  0.1996
22432W        W40636  11.029   7.622   4.381 -0.1565 -0.1944 -0.1042
22433W        W40637  17.156  15.539   2.094  0.1980 -0.1488  0.0081
22434W        W40638   5.329   2.493   2.542  0.0945 -0.2225 -0.3738
22435W        W40639  10.188  16.765   4.356  0.1223  0.0438 -0.1667
22436W        W40640   1.615   2.035   3.143 -0.2268  0.3107 -0.1042
22437W        W40641  18.444  13.266   4.090 -0.1109 -0.3282 -0.2046
22438W        W40642  12.229  18.060  14.337  0.1516 -0.0435 -0.2926
22439W        W40643  15.044   1.973   2.025 -0.2490 -0.1824 -0.2308
22440W        W40644   9.608  13.702  14.233 -0.0070  0.0138  0.1368
22441W        W40645  13.344  12.456   1.566  0.2741  0.2063 -0.2621
22442W        W40646  16.694  17.639   3.682  0.3681 -0.0675  0.4504
22443W        W40647  14.451  13.345  13.724  0.2239 -0.3703 -0.1855
22444W        W40648  18.528   7.527  13.964  0.0561 -0.0826  0.3711
22445W        W40649   4.506   0.944  14.372 -0.0247  0.2363 -0.2114
22446W        W40650   4.587   8.555  13.851  0.4446 -0.5283 -0.0749
22447W        W40651  13.452  18.479  12.282 -0.0401  0.0189 -0.2264
22448W        W40652   3.471   7.020  15.234  0.1559 -0.0939  0.1667
22449W        W40653   5.224   7.347  12.494 -0.1700 -0.0727 -0.1275
22450W        W40654   7.439  18.454   1.782 -0.1696 -0.0981  0.3423
22451W        W40655  17.713   9.364   1.197  0.0752 -0.1194 -0.1073
22452W        W40656   7.954   8.371  15.357 -0.0998  0.2177  0.1194
22453W        W40657   9.513   5.840   0.847 -0.0359  0.0759 -0.1430
22454W        W40658   4.045   2.832   2.480  0.2181  0.0540 -0.1687
22455W        W40659   9.472   7.508   5.215  0.1479 -0.1012  0.0343
22456W        W40660  14.450   7.025   0.013 -0.2887  0.0801  0.0141
22457W        W40661   5.181   9.661  11.846  0.0770  0.0247  0.1588
22458W        W40662  17.248  12.936   4.662 -0.0990 -0.2204  0.0769
22459W        W40663  13.837  15.991  12.912 -0.0871 -0.1813 -0.0663
22460W        W40664  16.663   2.451   4.218 -0.1304  0.0036 -0.1251
22461W        W40665  15.693  10.221   0.859 -0.0103 -0.1191  0.0532
22462W        W40666   5.826  14.163  11.176 -0.1418 -0.0434 -0.1613
22463W        W40667   6.066   9.322  10.575  0.0200  0.0858 -0.0584
22464W        W40668   9.290   9.106   2.452 -0.2372  0.2172 -0.0764
22465W        W40669   9.382  13.455   4.677  0.2512 -0.1499 -0.1164
22466W        W40670  14.085  15.562  11.456  0.3063 -0.0922 -0.1255
22467W        W40671  12.978  16.385   0.069  0.1933 -0.0208 -0.2988
22468W        W40672   7.614   6.709   1.016 -0.2722  0.1511 -0.3841
22469W        W40673   6.396  13.126   4.395  0.0905 -0.1144  0.0584
22470W        W40674  11.014  16.004   4.028 -0.0474  0.0446 -0.2108
22471W        W40675  17.920  16.449   4.719  0.3402  0.0083  0.1172
22472W        W40676  11.150   5.797   3.905 -0.0098  0.0826  0.3019
22473W        W40677  12.505   9.568   2.940 -0.1350  0.2103  0.2279
22474W        W40678  17.070   3.804   2.198 -0.0216 -0.0641  0.2557
22475W        W40679  18.593  17.504   0.270 -0.0061 -0.1873  0.0157
22476W        W40680   0.871  10.715   4.123  0.0702 -0.0023  0.0223
22477W        W40681  11.913  18.333   0.057 -0.1434  0.0328 -0.3038
22478W        W40682   1.380   0.859   5.360  0.0369  0.4531  0.4451
22479W        W40683  16.380   5.639  13.470 -0.0964  0.1373 -0.0187
22480W        W40684   1.846   9.691  13.480 -0.2978  0.1206  0.0195
22481W        W40685   0.967  10.213  12.165 -0.3095 -0.2590  0.0193
22482W        W40686   6.017  13.992  15.255  0.1153  0.1733  0.1244
22483W        W40687  16.385   7.108  13.910  0.1978  0.1501  0.1412
22484W        W40688   5.768  16.091  11.933 -0.1770 -0.1046  0.2061
22485W        W40689  16.289  17.009   2.500 -0.2054  0.0369  0.0554
22486W        W40690  17.953  18.422  10.448  0.2725 -0.1441 -0.1763
22487W        W40691   1.599   6.586  15.072 -0.2294 -0.0789 -0.0502
22488W        W40692  17.855  16.607  12.383 -0.0525  0.0728 -0.0139
22489W        W40693  15.886   5.354  14.055  0.1721 -0.0897  0.0059
22490W        W40694  15.210   9.149   0.491  0.0900  0.3202  0.1800
22491W        W40695  10.656  10.839  15.404 -0.1753  0.0533 -0.1482
22492W        W40696  17.844   4.106   0.200  0.0187 -0.2526  0.0703
22493W        W40697   1.939   1.668   2.450 -0.0665 -0.3691  0.1249
22494W        W40698  11.335  12.665  12.135  0.1036  0.1500  0.0784
22495W        W40699  17.114   1.060  11.453  0.0598  0.2740  0.0819
22496W        W40700  10.050  17.585  15.005  0.0859  0.0938  0.1271
22497W        W40701   7.310  12.672   0.017 -0.0008 -0.1239  0.0890
22498W        W40702   3.198  15.493  15.378  0.2370 -0.0631  0.0606
22499W        W40703   8.220  16.535   1.523  0.0494 -0.1270 -0.0428
22500W        W40704  17.841   3.460  10.803 -0.0694  0.1768  0.0211
22501W        W40705  15.481  16.554   2.435  0.0529 -0.1500 -0.0411
22502W        W40706   6.833  16.035   4.074 -0.3847 -0.0953  0.1982
22503W        W40707  15.031  14.726   2.003 -0.3000  0.0289  0.0883
22504W        W40708  13.182  11.804  13.250  0.2264 -0.1576  0.3293
22505W        W40709  14.321   3.541   4.666 -0.2122 -0.1162  0.0230
22506W        W40710   3.453  10.889  11.971  0.1295 -0.0162 -0.0283
22507W        W40711  15.796   5.953   2.452 -0.0803 -0.0305  0.0215
22508W        W40712   5.072  13.190  12.824  0.2443 -0.1739 -0.3266
22509W        W40713   1.116   0.589  13.218 -0.1168 -0.3724  0.3292
22510W        W40714  18.415  10.699  14.009  0.0315 -0.0081  0.2636
22511W        W40715  14.167  15.763   4.685  0.0319  0.0691 -0.3168
22512W        W40716  16.941   4.655   1.695  0.1986 -0.0288 -0.0636
22513W        W40717   1.312  13.250  10.364 -0.1184 -0.0741 -0.4240
22514W        W40718   8.723   6.650   0.714 -0.0360 -0.0507  0.3281
22515W        W40719  15.856   5.972   3.031  0.2027 -0.0201 -0.1201
22516W        W40720  11.534  16.502   2.170 -0.1429 -0.0348 -0.1443
22517W        W40721   1.883  10.134  14.414  0.0815  0.3678  0.1942
22518W        W40722   7.081   6.348   2.850 -0.2198 -0.0612  0.0807
22519W        W40723  15.816  11.847  11.815  0.3559 -0.2464  0.0332
22520W        W40724  14.841  12.602   4.346  0.1003 -0.0640 -0.1357
22521W        W40725  17.926  16.764   2.814  0.0574 -0.0566  0.1465
22522W        W40726   8.952   1.395  10.547  0.1694 -0.0891 -0.0887
22523W        W40727  13.142   0.744  14.247 -0.1318 -0.1449 -0.3915
22524W        W40728   5.865   9.437   2.619 -0.0652 -0.3595  0.0639
22525W        W40729   8.958  16.920  11.729  0.3536  0.0349 -0.1674
22526W        W40730   4.629   1.096   0.665  0.1514  0.2471 -0.0597
22527W        W40731   3.312   5.322  13.221 -0.0143 -0.1524 -0.3314
22528W        W40732   0.406   5.240  13.016  0.1504 -0.0422 -0.0882
22529W        W40733  12.908   0.112  10.727 -0.2062 -0.0694 -0.0758
22530W        W40734   7.870   3.923   1.804 -0.0129  0.1825  0.2244
22531W        W40735   4.437  17.702  10.632 -0.0675  0.0509 -0.0615
22532W        W40736   4.838  16.113  15.411 -0.3091 -0.1052 -0.0999
22533W        W40737  12.218  17.187  10.071  0.1029 -0.1265  0.0092
22534W        W40738  15.151   6.789  14.828  0.2242  0.2582 -0.0815
22535W        W40739   7.356  11.085   4.645 -0.3913 -0.2318 -0.0346
22536W        W40740  11.787   5.039   4.343  0.2030  0.0265  0.2638
22537W        W40741  12.214  16.376   0.685 -0.2658 -0.0252  0.1500
22538W        W40742  16.325   6.143  10.385  0.0818 -0.0345  0.0873
22539W        W40743   2.716  10.913   1.327 -0.0505  0.0705  0.0463
22540W        W40744   4.040  14.597   3.577 -0.0197 -0.0667 -0.3689
22541W        W40745  15.920   2.834  12.455 -0.0698 -0.0733  0.0915
22542W        W40746  13.139  18.518  11.131 -0.0690 -0.0000 -0.1496
22543W        W40747   2.898  16.556   3.116 -0.1255 -0.1486 -0.0584
22544W        W40748  10.003   4.332  11.621  0.0656  0.0202  0.2609
22545W        W40749   9.495   3.110  11.613 -0.1042  0.0307 -0.1519
22546W        W40750   3.321  13.541  14.667  0.4246 -0.0972 -0.1505
22547W        W40751   1.064   9.836  13.691  0.1883 -0.0238  0.0889
22548W        W40752   0.355   0.113   2.293  0.2057  0.1037 -0.0106
22549W        W40753   1.606   6.376   3.656  0.0939  0.3824  0.0933
22550W        W40754   7.498   9.858  13.432 -0.2812 -0.0358 -0.0833
22551W        W40755  10.482   9.468   3.449  0.2602 -0.1453 -0.2015
22552W        W40756   9.228  18.589   1.177  0.1339  0.2403 -0.3204
22553W        W40757   8.857  12.186   3.815 -0.3036  0.1243 -0.0213
22554W        W40758   8.879   3.971   0.293 -0.0545  0.0086 -0.1537
22555W        W40759   4.147   1.230  14.781  0.1049 -0.1651 -0.1995
22556W        W40760   6.941  17.874  13.090  0.0112  0.0625 -0.0501
22557W        W40761   6.834   7.653  11.960 -0.0451 -0.1230  0.2620
22558W        W40762  11.834  13.404   4.148  0.2835  0.1018 -0.2181
22559W        W40763  17.179   6.117  13.361 -0.3726  0.2289 -0.0916
22560W        W40764   6.521   5.179  12.569 -0.1823  0.1284  0.0310
22561W        W40765  14.733  15.890  10.282 -0.1538 -0.2533 -0.1369
22562W        W40766  12.832   0.332   3.336  0.1535 -0.0804  0.1052
22563W        W40767   6.731   1.880   0.639 -0.0776  0.1014 -0.4432
22564W        W40768  14.919  15.203   0.781 -0.0912  0.2351 -0.3822
22565W        W40769   4.678  13.358  13.166  0.0762 -0.1125  0.2550
22566W        W40770   1.389   6.859   2.123  0.0286 -0.2656  0.2488
22567W        W40771   8.234  13.356   1.960  0.4064 -0.0764 -0.1107
22568W        W40772   5.168  12.793  11.080  0.1810 -0.0358  0.1471
22569W        W40773  15.565  12.183   0.340 -0.5096  0.1145 -0.1622
22570W        W40774   8.983   2.643   5.434  0.0393 -0.0015  0.0413
22571W        W40775  13.161  11.627  12.353 -0.1538  0.0512  0.0197
22572W        W40776  10.726   5.274  12.147 -0.0666  0.1339  0.0334
22573W        W40777   9.189  10.368   2.692 -0.0931 -0.1532  0.0335
22574W        W40778   2.690  12.196  14.339  0.2261  0.0427  0.3177
22575W        W40779   0.786   3.455   1.361  0.0314  0.2193  0.0133
22576W        W40780  18.359   6.704   1.415 -0.0938  0.3784 -0.1704
22577W        W40781  17.518  14.201   0.658 -0.3398  0.2563  0.0867
22578W        W40782  15.606   6.454   3.712  0.0879 -0.1161 -0.0156
22579W        W40783   2.893   6.087   1.721 -0.0537  0.0499  0.1789
22580W        W40784   9.962  14.557   2.302  0.0009  0.3448  0.1619
22581W        W40785   5.006   1.487  15.188  0.1371 -0.0826  0.0330
22582W        W40786   2.249   9.445  12.724  0.0638  0.1018 -0.2068
22583W        W40787   6.575   8.169   2.545  0.0300  0.1826 -0.0055
22584W        W40788   9.246   8.312   0.370 -0.2142 -0.1538 -0.0860
22585W        W40789   8.564   4.804  10.004  0.0781  0.0734  0.1150
22586W        W40790   1.430  12.118  12.472 -0.1756 -0.0601 -0.1917
22587W        W40791  14.478  14.669   4.339 -0.2687  0.3486 -0.2630
22588W        W40792  13.436   8.575  14.386 -0.0366 -0.1800  0.0071
22589W        W40793  16.798  14.336  12.761  0.1359  0.0526 -0.1485
22590W        W40794  11.770  14.872  12.633  0.0275 -0.1130  0.1596
22591W        W40795  14.168  16.191   1.598  0.2855 -0.0951  0.3839
22592W        W40796   7.161  11.697  13.311 -0.1069 -0.2503  0.1027
22593W        W40797  13.831  10.504   0.749 -0.2404  0.0717  0.0770
22594W        W40798  16.867  12.323   0.564 -0.1085 -0.1379  0.2205
22595W        W40799  15.364  14.938  11.054  0.1496 -0.4236 -0.0632
22596W        W40800  10.229  11.990  15.123  0.1809  0.1021 -0.1315
22597W        W40801  14.102   6.012   1.739  0.2383 -0.0346  0.2427
22598W        W40802  16.332   4.064  14.476  0.1719  0.2770 -0.0262
22599W        W40803   2.530  17.560   2.968 -0.1984 -0.3196  0.0337
22600W        W40804   2.798  16.709   2.583 -0.0059 -0.0984  0.1118
22601W        W40805  14.196   0.556   2.367 -0.0028 -0.1858 -0.0533
22602W        W40806  17.171  14.299  13.520 -0.0263  0.0017  0.0911
22603W        W40807   2.811  16.228   3.645  0.0567 -0.0452  0.2470
22604W        W40808   1.334  13.373   0.795 -0.0701 -0.2024 -0.0044
22605W        W40809   5.219   8.608   1.765  0.1907 -0.2616  0.0554
22606W        W40810   9.456  16.637  10.897  0.0009  0.1132 -0.1071
22607W        W40811   9.889  14.884   1.404  0.0997  0.4279  0.2212
22608W        W40812   8.262  14.846   2.245  0.0206  0.1602 -0.1449
22609W        W40813   2.076   2.196  15.293  0.0053  0.0657 -0.0568
22610W        W40814   8.456   9.809   0.877  0.1044 -0.1013 -0.0118
22611W        W40815  13.191   6.263   2.018 -0.2170 -0.1708  0.2346
22612W        W40816  17.002   4.702   3.434  0.0205 -0.2018  0.4009
22613W        W40817  13.113  14.604   3.840 -0.1201  0.2103  0.4681
22614W        W40818  17.866   5.669  12.856  0.2017  0.1673 -0.0269
22615W        W40819  16.573   7.894   0.689  0.0460  0.1024  0.2174
22616W        W40820   0.286  10.123   0.410 -0.0345 -0.2760 -0.0054
22617W        W40821  10.411  18.480   3.907 -0.0569  0.2329  0.2787
22618W        W40822   8.942   7.226  12.508  0.1634 -0.1636  0.0401
22619W        W40823   3.563  10.396  11.972  0.1108 -0.2577 -0.3980
22620W        W40824   7.065   9.423   4.120  0.0874  0.0526  0.2508
22621W        W40825   2.898  14.357  14.236  0.3874 -0.0325  0.4792
22622W        W40826   1.289  11.367   2.341 -0.1959  0.1799  0.4781
22623W        W40827   2.466  11.948   2.617  0.1663  0.2431 -0.1286
22624W        W40828   0.908   7.071  15.173 -0.2389 -0.0823  0.0539
22625W        W40829   5.710   4.055  12.058 -0.1776  0.1254 -0.0627
22626W        W40830  12.871   3.734  15.311  0.0134  0.4202 -0.0821
22627W        W40831   5.591   7.672   1.165  0.1226 -0.2364 -0.1148
22628W        W40832   3.196   2.954  12.636  0.0493 -0.0002 -0.0731
22629W        W40833   9.122  18.417  11.902 -0.1417 -0.5525  0.2810
22630W        W40834  14.324  17.916  14.420 -0.3789 -0.1335 -0.1340
22631W        W40835   7.981   7.003  11.633 -0.1636 -0.2509 -0.0485
22632W        W40836  12.013   0.423  13.920 -0.0141  0.1578 -0.0615
22633W        W40837   3.532   7.804  12.370 -0.1436  0.0137 -0.1336
22634W        W40838  11.688  17.352  12.969 -0.2623  0.0931 -0.4180
22635W        W40839  13.055   9.209  10.871 -0.1698  0.0983  0.1484
22636W        W40840   3.358  11.649   1.571  0.0289  0.0679 -0.0267
22637W        W40841  11.662  14.646   4.585 -0.1323  0.1350  0.0791
22638W        W40842   8.815   1.585   3.723 -0.6038  0.1636 -0.1975
22639W        W40843   2.831   1.934   0.051  0.0564  0.0927 -0.0038
22640W        W40844  12.299  18.218   9.852 -0.0304 -0.1072  0.2682
22641W        W40845  17.794  17.271   3.340  0.1963  0.1390  0.2529
22642W        W40846  16.602  16.757   2.783 -0.1078 -0.4481  0.3309
22643W        W40847   0.650   2.748  10.922 -0.0206  0.1578 -0.0968
22644W        W40848   9.178   6.888   0.033  0.0507  0.1774 -0.1992
22645W        W40849  11.149   7.954  11.878  0.0644  0.1205 -0.1053
22646W        W40850  16.208   9.899  15.284 -0.0791  0.3745 -0.1759
22647W        W40851   1.406  10.178   2.004 -0.0305 -0.2981 -0.0556
22648W        W40852   8.709  10.951   2.192  0.0847  0.1638 -0.0136
22649W        W40853  13.242   5.263  13.384  0.2564 -0.2900 -0.0807
22650W        W40854  15.616  12.234  14.406  0.0536 -0.0732  0.3740
22651W        W40855   5.941   3.898  13.624 -0.0998  0.0341 -0.1756
22652W        W40856  15.963  16.843  12.752 -0.5382 -0.1334 -0.1243
22653W        W40857   8.886   1.318  14.542  0.2999  0.3201 -0.0459
22654W        W40858   1.738  17.546  14.962  0.1748 -0.3034  0.0539
22655W        W40859   9.165   7.858  11.737  0.0117  0.1559 -0.2284
22656W        W40860  16.490  15.831  15.178  0.1067  0.0478 -0.0822
22657W        W40861   8.166  16.002   0.215 -0.3396  0.2896  0.1598
22658W        W40862  17.559   8.017   0.864 -0.5042 -0.0090  0.1943
22659W        W40863   7.055   2.438   2.287  0.1106  0.0588  0.1720
22660W        W40864   0.969  15.363  11.119 -0.1591 -0.0691 -0.2265
22661W        W40865   7.090   6.931   0.941 -0.0646 -0.1806 -0.1198
22662W        W40866   7.462   9.364   2.947 -0.0786  0.0114  0.0520
22663W        W40867  14.224  11.008   3.156 -0.1627  0.0662 -0.2309
22664W        W40868   6.319  16.407   0.424  0.0358  0.0623  0.0959
22665W        W40869   8.861  10.164   1.732 -0.2336  0.2911  0.1644
22666W        W40870   1.727  10.049  11.253 -0.2370 -0.0640  0.0327
22667W        W40871  16.528   7.961   5.039 -0.4322  0.1199 -0.1831
22668W        W40872  14.437   5.708  12.871 -0.2808 -0.2133 -0.0691
22669W        W40873  18.596   8.832   1.480  0.1949 -0.2789  0.1141
22670W        W40874   0.113   7.419  13.443 -0.1670 -0.0339 -0.1839
22671W        W40875  18.000  18.390   0.847  0.2137 -0.0744 -0.2363
22672W        W40876  14.099  13.431  13.402  0.3617  0.0212 -0.0426
22673W        W40877   4.332  15.953   2.964  0.1102  0.1941  0.2158
22674W        W40878   9.903   8.080   2.000 -0.3519  0.0600  0.0807
22675W        W40879  18.513   3.911  10.677  0.0310  0.1375 -0.0075
22676W        W40880   5.571   1.555   0.357  0.1521 -0.0534 -0.0260
22677W        W40881   5.289   5.120  12.707 -0.2295  0.0977 -0.0912
22678W        W40882  15.977  13.225   0.395 -0.1720  0.1010  0.2147
22679W        W40883   6.378  14.300  11.924 -0.0931  0.1790 -0.0407
22680W        W40884  15.720   6.829   5.255  0.1331  0.0583 -0.0527
22681W        W40885  10.957   3.835   3.271 -0.1092  0.0247  0.2257
22682W        W40886   9.444  10.948   4.147 -0.3041  0.1737  0.1549
22683W        W40887   6.630  15.836  15.330  0.2171 -0.3666  0.0856
22684W        W40888  10.929   3.658  14.363  0.0693 -0.1868 -0.1300
22685W        W40889   8.490  14.231   0.385 -0.0802  0.1380  0.0327
22686W        W40890  12.034   4.662   4.079  0.3191 -0.0192  0.0399
22687W        W40891   3.315  17.400   2.732  0.0866  0.1077  0.2202
22688W        W40892   9.378   4.220  14.165  0.0849  0.0631 -0.0750
22689W        W40893  13.490   0.871   1.663 -0.1024 -0.0086  0.4373
22690W        W40894   0.458   5.585  11.295  0.0279  0.1907  0.0452
22691W        W40895   0.298   5.628   1.868 -0.0360 -0.4007 -0.0077
22692W        W40896   3.718   9.867   1.285 -0.1724 -0.1236  0.3679
22693W        W40897  12.008  17.911   3.000 -0.1979  0.0203 -0.3061
22694W        W40898  11.648   4.172  15.034  0.0508  0.2669 -0.1699
22695W        W40899  15.138   4.023   4.497  0.0244 -0.1042 -0.0463
22696W        W40900   0.127   6.627  14.121  0.2705 -0.1337 -0.0051
22697W        W40901   1.470  17.735  11.612  0.0223 -0.3553 -0.3032
22698W        W40902   9.009  18.210   3.232 -0.0641 -0.0273  0.2564
22699W        W40903   9.690   0.070   0.629 -0.0306 -0.1084 -0.5386
22700W        W40904  13.120   3.993  11.043 -0.1345 -0.0595  0.0276
22701W        W40905  11.569  18.142   2.781 -0.1356 -0.2380  0.1238
22702W        W40906  17.674   4.150  11.517  0.0939  0.1695 -0.1818
22703W        W40907   1.212  14.481   1.540 -0.0159  0.0993  0.1819
22704W        W40908  10.413   8.668   1.588  0.3753 -0.3080 -0.1568
22705W        W40909   1.922   1.922  13.519  0.1156  0.0140  0.2283
22706W        W40910   5.001   7.701  11.209 -0.1918 -0.0775  0.2762
22707W        W40911   2.551  14.151   0.158  0.2749 -0.3392 -0.0338
22708W        W40912  15.701   4.732  10.592  0.2800 -0.1416 -0.2927
22709W        W40913  10.358   9.773   3.049  0.1273  0.0336 -0.0987
22710W        W40914  17.817   0.088  12.191 -0.2275 -0.3096 -0.1403
22711W        W40915  14.006   4.313   0.489  0.2373 -0.0082 -0.1121
22712W        W40916   8.325  16.488   4.002 -0.0670 -0.1638 -0.2422
22713W        W40917  12.340   7.487   3.164  0.1123 -0.1457  0.1009
22714W        W40918   5.430   0.419   3.076 -0.1163 -0.0758 -0.2241
22715W        W40919   2.312   4.066  14.941  0.0488  0.2057 -0.2784
22716W        W40920   1.873   9.603  14.246 -0.2017  0.0569  0.2969
22717W        W40921   7.105  12.725  11.189  0.1955  0.1293  0.0054
22718W        W40922  15.782   7.702   0.638 -0.0996 -0.1768 -0.1217
22719W        W40923   1.164   1.044   2.682 -0.1858  0.1244  0.1025
22720W        W40924   4.171   5.565  11.930 -0.1817 -0.0146  0.1708
22721W        W40925  17.809   5.478  15.178 -0.1957  0.1200 -0.0303
22722W        W40926   4.644  10.155   3.042 -0.1072 -0.1057  0.1779
22723W        W40927   5.550   9.517   1.428  0.0637  0.2918  0.0116
22724W        W40928  12.357  15.636   1.686 -0.5003 -0.0785  0.0091
22725W        W40929  12.563  18.589  13.182 -0.1818 -0.2598 -0.0957
22726W        W40930  14.343   1.858  11.260  0.2057  0.0123 -0.3323
22727W        W40931   5.722   8.123   0.297  0.3909  0.0198  0.2627
22728W        W40932  18.221   5.520   2.604 -0.0597 -0.1208  0.1607
22729W        W40933  13.957  10.873   3.743 -0.1712 -0.1879  0.0896
22730W        W40934  11.978  10.608  11.694  0.2456 -0.0207 -0.1026
22731W        W40935   6.858   8.436  15.044  0.0636  0.1484  0.1450
22732W        W40936   0.020   4.193  11.628  0.0438 -0.0018  0.2027
22733W        W40937  14.930  14.725  11.390 -0.0788 -0.0801 -0.2954
22734W        W40938   1.282   9.749   2.163  0.1939 -0.3288  0.1001
22735W        W40939  15.378  14.759   3.757  0.0961  0.2015 -0.1048
22736W        W40940   0.710  16.022   1.318 -0.1045  0.0210  0.0940
22737W        W40941   4.215   7.998  11.152  0.4955 -0.2757  0.0191
22738W        W40942   4.401   5.774  12.472  0.2630 -0.2112 -0.1573
22739W        W40943   7.736  13.519   1.237  0.0442  0.3392  0.0491
22740W        W40944  12.098  10.957  14.252 -0.1869  0.1748 -0.0639
22741W        W40945   4.849   6.561   1.369  0.1190 -0.0788 -0.0341
22742W        W40946  17.648  13.127   2.989  0.0173  0.0972  0.1465
22743W        W40947  13.002   7.537  14.434  0.1439  0.1403 -0.0785
22744W        W40948   9.054  15.831   5.178  0.1759  0.2750  0.3134
22745W        W40949   9.359  15.408  13.336  0.1821  0.3728 -0.0117
22746W        W40950  15.652  15.187  10.545 -0.2004 -0.0970 -0.2365
22747W        W40951   2.093  18.158  13.774 -0.3359 -0.0132 -0.0111
22748W        W40952   6.509   9.631  15.075 -0.0857 -0.0411 -0.0797
22749W        W40953  15.769  13.822  13.205  0.0654 -0.4003  0.1902
22750W        W40954   4.952   4.900   2.695 -0.0488 -0.0974 -0.0771
22751W        W40955   7.165  11.818  12.745 -0.1458 -0.1099 -0.0327
22752W        W40956   2.173   5.802  11.450  0.0939  0.4988  0.3488
22753W        W40957  15.686  17.775   5.180  0.0983  0.1957 -0.0761
22754W        W40958  12.356   8.291   2.264  0.0028  0.0695  0.1609
22755W        W40959   7.906  10.096  10.755  0.1962 -0.1906  0.2347
22756W        W40960  18.200   4.109  12.091 -0.2521 -0.1712 -0.0214
22757W        W40961  10.811  15.489   4.133  0.0563  0.0670  0.0975
22758W        W40962   8.568   4.873  12.892 -0.1615  0.3740 -0.2252
22759W        W40963  15.500  18.268   0.244 -0.1472 -0.2016 -0.0537
22760W        W40964  11.556   2.078  11.604 -0.1577  0.1996 -0.0405
22761W        W40965  14.548   2.745   4.168 -0.1126  0.2389  0.1964
22762W        W40966   7.535  12.229  12.570 -0.0427 -0.1736 -0.1509
22763W        W40967  10.784  18.236  11.819  0.1167  0.1139 -0.2684
22764W        W40968   4.497   5.668  13.952  0.1082  0.4071  0.1641
22765W        W40969   3.433   1.377  10.682  0.3187 -0.0171  0.1156
22766W        W40970   3.839   2.326  15.395  0.1129 -0.0109 -0.0715
22767W        W40971   1.281   9.553   4.959  0.0568 -0.0125  0.1905
22768W        W40972   1.923   4.911  14.278  0.0965  0.3088 -0.2726
22769W        W40973  14.524   4.033   3.585  0.0241 -0.0860  0.0640
22770W        W40974   9.974   7.126   4.061 -0.0178 -0.1413  0.0088
22771W        W40975  13.639  10.170   3.434 -0.1116  0.3485  0.0436
22772W        W40976  14.432  15.903  11.629 -0.0614  0.1339 -0.3505
22773W        W40977  17.492   6.320   5.574  0.0181 -0.0139  0.5123
22774W        W40978  10.832  13.381  15.206 -0.1015  0.1325  0.0773
22775W        W40979   0.605   6.977   0.635  0.0262 -0.0193 -0.2174
22776W        W40980  11.796   5.315   2.377 -0.2273  0.0201 -0.0250
22777W        W40981   6.025  10.202  11.408  0.0735 -0.2087 -0.1588
22778W        W40982  15.132  17.936   0.175 -0.0630  0.0220 -0.1333
22779W        W40983   4.620  12.878   0.689 -0.0447  0.1674  0.3198
22780W        W40984   1.614  12.057   2.580  0.0307  0.2324  0.0727
22781W        W40985   7.711   0.980  14.905 -0.2664  0.4489  0.3963
22782W        W40986   6.092   5.390  14.910  0.0131  0.0149 -0.3408
22783W        W40987   9.357   4.176   0.260 -0.3824 -0.1075  0.2333
22784W        W40988   1.687   7.101  13.347  0.3093  0.1327  0.2780
22785W        W40989  10.017  14.437   5.544  0.0033  0.0333 -0.3149
22786W        W40990   0.370   8.634   3.191  0.0321  0.1372  0.2551
22787W        W40991   7.400  16.174   1.588 -0.0952  0.0782  0.0977
22788W        W40992   3.283   3.247  12.248  0.2140  0.4525 -0.3246
22789W        W40993  15.486  14.924   4.243 -0.0167 -0.0357 -0.0585
22790W        W40994  10.399  17.241  15.149  0.2422  0.0926  0.1769
22791W        W40995  10.690   4.279   3.595 -0.1663  0.2410 -0.0358
22792W        W40996  13.296  16.782   0.040 -0.1143 -0.1060  0.1156
22793W        W40997   6.906   6.177  13.389  0.3552 -0.1814  0.1349
22794W        W40998  17.682  12.872   0.145 -0.1317 -0.1852  0.0125
22795W        W40999  17.840  17.673  12.212 -0.2657  0.2208 -0.0211
22796W        W41000   5.550  10.931  11.941 -0.0887  0.0364 -0.2201
22797W        W41001   5.652   3.474   2.139 -0.0251  0.0653  0.1040
22798W        W41002  12.240   1.080   3.901 -0.1305 -0.0632 -0.1063
22799W        W41003   9.664   7.998   0.551 -0.0874 -0.3547 -0.2189
22800W        W41004  16.960   4.432   1.054  0.1595  0.0825  0.2127
22801W        W41005  10.475   4.773  11.284  0.0853 -0.1142  0.2094
22802W        W41006  11.263   1.699   2.885 -0.0456 -0.0294 -0.1486
22803W        W41007   2.470   4.549   0.619  0.1103  0.0849  0.0246
22804W        W41008  11.658   5.639  12.350  0.0246  0.0580  0.1617
22805W        W41009  18.561   9.499  14.844 -0.2005 -0.0566  0.2695
22806W        W41010  12.304   8.290   4.215  0.0519  0.0432  0.0251
22807W        W41011  14.299   7.069  12.259 -0.1220  0.1439  0.0339
22808W        W41012  18.096  14.410   2.230  0.1032  0.2187 -0.1767
22809W        W41013   5.133   3.882   0.656 -0.0546  0.1946 -0.0036
22810W        W41014  17.214   2.892  14.041  0.0543  0.1314 -0.0013
22811W        W41015   7.628   8.274  12.022  0.1607  0.2358 -0.1464
22812W        W41016   0.227  12.363  13.358  0.0105 -0.3034  0.1959
22813W        W41017   1.195  10.012  11.339  0.0186  0.0231  0.0039
22814W        W41018   7.861   6.497  14.968  0.1523 -0.0987  0.1667
22815W        W41019  17.536  16.524   3.680  0.0763 -0.2020  0.2300
22816W        W41020   4.358   9.914  14.947  0.0474  0.1944  0.4545
22817W        W41021  12.087  13.567   0.703  0.0309 -0.0109 -0.1536
22818W        W41022   2.432   0.685   4.651  0.0772 -0.1496  0.0570
22819W        W41023   3.104   1.240   2.542  0.3521  0.3101 -0.0400
22820W        W41024  15.356   1.709   4.733  0.1035 -0.0606 -0.3261
22821W        W41025   2.768   0.530  14.895 -0.1490  0.0682 -0.0545
22822W        W41026  10.795   9.489   4.271  0.0226 -0.2705  0.4299
22823W        W41027   5.322  10.561   1.152 -0.3788  0.1886  0.0348
22824W        W41028   2.381  18.037  14.677 -0.1544  0.0769  0.1975
22825W        W41029   2.067   9.351  12.140 -0.2401  0.2210 -0.0318
22826W        W41030   4.041   0.526   4.202  0.0646  0.0789 -0.0013
22827W        W41031   9.045  17.986  10.824  0.2456 -0.0409 -0.0868
22828W        W41032   3.044  16.520   0.523 -0.3295 -0.1769 -0.3755
22829W        W41033   1.799   6.897  11.624 -0.3281  0.2160  0.2076
22830W        W41034  14.510  17.549  11.081 -0.1398  0.3449  0.3357
22831W        W41035   6.284  14.955   2.357 -0.1060 -0.5567 -0.1386
22832W        W41036   9.135   8.743   0.641  0.0859 -0.1377  0.3408
22833W        W41037   4.111  15.156   1.955  0.1810  0.0278 -0.0372
22834W        W41038  12.670   5.791   2.399 -0.2010 -0.0283  0.2067
22835W        W41039  11.170  13.820  11.831 -0.0870  0.1088  0.0221
22836W        W41040  15.963   7.718  10.991  0.0776  0.1476  0.2709
22837W        W41041  10.996   2.011  15.323 -0.1471 -0.4240 -0.0106
22838W        W41042   3.055  13.638  13.577  0.1370  0.1462 -0.0029
22839W        W41043   3.860   5.981   2.253  0.1492 -0.1572  0.0162
22840W        W41044   7.273  12.297  11.338 -0.3046  0.0096 -0.0473
22841W        W41045   1.250  17.500  13.916 -0.1842  0.0630 -0.0921
22842W        W41046  12.253   1.716  12.905  0.0365  0.0607 -0.1915
22843W        W41047   3.515  18.145   5.079  0.0624  0.3284 -0.0740
22844W        W41048   3.799   5.040  14.144 -0.2503  0.2153 -0.3759
22845W        W41049   4.963  13.251   1.371 -0.3443 -0.0090  0.0480
22846W        W41050  11.891   5.837   2.499  0.3582 -0.2856 -0.1097
22847W        W41051   9.383  14.402  11.086 -0.1741  0.1006  0.2041
22848W        W41052   4.272  17.249  13.997  0.1044  0.2229  0.0488
22849W        W41053   1.656  16.025   2.682  0.0559 -0.3546  0.0263
22850W        W41054   9.453   0.985  12.160 -0.0697 -0.1263 -0.3025
22851W        W41055  10.728  16.062   4.752  0.1248  0.0189 -0.2141
22852W        W41056   5.682  12.600   3.002  0.3852 -0.2303  0.0945
22853W        W41057   5.154  11.822   0.999 -0.3452 -0.0609  0.4140
22854W        W41058  16.032  12.976  13.523  0.2388  0.2491 -0.3191
22855W        W41059   5.919  11.729   1.519 -0.0399 -0.0961 -0.1445
22856W        W41060  12.399   8.570   3.041  0.0630  0.1130  0.1272
22857W        W41061  16.244   5.851  15.395 -0.0150 -0.1300 -0.2814
22858W        W41062  17.759  10.010   3.389  0.1819 -0.0002  0.1417
22859W        W41063   3.054   7.702   1.019  0.2318  0.3038 -0.3089
22860W        W41064  13.128   2.296   2.565  0.2284 -0.0956  0.0149
22861W        W41065   1.612  14.217  15.329 -0.1451 -0.0980  0.2299
22862W        W41066   2.192   0.143   3.372 -0.0226  0.0793 -0.2453
22863W        W41067  18.527   8.572   4.493 -0.0755 -0.0740  0.0181
22864W        W41068   6.525   2.451  15.369  0.0917  0.2641  0.2418
22865W        W41069  13.548   4.155   3.921  0.0142  0.0572 -0.4082
22866W        W41070   2.320  11.704   1.494  0.1131 -0.2440 -0.2646
22867W        W41071   7.449   9.894  12.686  0.0628  0.0057  0.2227
22868W        W41072  11.658  13.095  14.980 -0.2440  0.0043  0.0062
22869W        W41073   2.668   4.476   2.156  0.4184  0.1318 -0.0635
22870W        W41074   0.561   7.469  13.208  0.0283 -0.2005  0.0579
22871W        W41075   8.384   2.953  13.928  0.3193 -0.2574 -0.0823
22872W        W41076  18.218   8.599  12.929 -0.0852  0.0968  0.1346
22873W        W41077   1.645   0.686  10.808  0.2999  0.2455  0.1537
22874W        W41078  16.733  16.887   0.370 -0.1688 -0.1170 -0.1481
22875W        W41079  14.395  14.400   2.913  0.1588 -0.1379  0.1575
22876W        W41080  16.868   7.015   3.444  0.2568  0.1534  0.3423
22877W        W41081  13.820  13.058  14.469  0.1383  0.2178 -0.1520
22878W        W41082   4.913  14.814   1.564  0.0627 -0.2175  0.0006
22879W        W41083   2.645   7.942  13.816  0.3668  0.3852  0.1471
22880W        W41084   7.536  14.000  13.235 -0.2439 -0.0456  0.1294
22881W        W41085  17.871   6.999  13.009  0.0106 -0.1783 -0.0459
22882W        W41086   8.988  18.534  15.238  0.0857  0.1615  0.3200
22883W        W41087  12.336   5.090  11.920 -0.0763 -0.0274  0.2279
22884W        W41088   6.834  14.641   0.896  0.0760 -0.2749  0.1998
22885W        W41089  14.338  12.719  12.047 -0.1360  0.1543  0.0562
22886W        W41090  14.518  12.412   0.499 -0.2200  0.0657  0.2306
22887W        W41091   8.297   0.820  13.828 -0.0942 -0.3815  0.0104
22888W        W41092   1.141  14.948  14.132 -0.2503  0.0758 -0.2339
22889W        W41093  14.215   0.704   2.839  0.0930  0.1553 -0.2765
22890W        W41094  11.217  17.502   2.894  0.1702  0.0288 -0.2881
22891W        W41095  10.630   1.819   1.309 -0.1663  0.0116  0.1866
22892W        W41096  16.674  11.819  11.991  0.0024  0.2316  0.2662
22893W        W41097  13.129   8.232  12.740 -0.0520  0.2261 -0.0114
22894W        W41098  13.533  16.268  11.345 -0.1301  0.1352 -0.0638
22895W        W41099   1.325   4.896   4.112  0.1820  0.1036  0.1583
22896W        W41100   1.267   1.061  12.015 -0.1389 -0.1108 -0.1749
22897W        W41101  16.910  10.480  12.205  0.0197  0.1537  0.0811
22898W        W41102   0.858  12.789   1.385 -0.0387  0.1739 -0.2473
22899W        W41103  12.192  16.354  11.478  0.2365 -0.1127  0.0006
22900W        W41104  17.098   0.231  14.164 -0.0733  0.0027  0.0732
22901W        W41105   2.461  17.623   1.583 -0.1571  0.3029 -0.1891
22902W        W41106   1.896   9.480   3.201 -0.0683 -0.1137 -0.2055
22903W        W41107   5.339  11.498   0.673 -0.1074 -0.2142  0.1057
22904W        W41108   4.287   1.468   0.712 -0.0089  0.2389  0.0799
22905W        W41109  12.129  17.379  10.799  0.3050  0.0200 -0.1007
22906W        W41110  17.145  12.512   2.140 -0.2649 -0.1281  0.0917
22907W        W41111  11.184  17.575   4.029  0.0195  0.0624  0.3456
22908W        W41112  10.303  17.165   2.502 -0.2047  0.0267  0.1050
22909W        W41113  18.341   6.004  13.496  0.0612 -0.2589  0.2187
22910W        W41114  12.195  12.876   3.355  0.2394 -0.1959 -0.0680
22911W        W41115  16.801  16.858   2.319 -0.0289  0.0718  0.1214
22912W        W41116  16.207  16.150  13.103 -0.0919 -0.2882  0.0750
22913W        W41117  17.396   4.752   0.323  0.1378  0.3163 -0.0531
22914W        W41118   9.434   9.366   5.539 -0.2491 -0.1015  0.0009
22915W        W41119  16.540   4.097  14.018  0.2114  0.1825  0.1374
22916W        W41120   9.678  16.206   1.366 -0.0224 -0.0545  0.1384
22917W        W41121   1.676   7.095   1.040  0.0797 -0.2885 -0.2757
22918W        W41122  18.164  16.908  11.486  0.0911  0.0025 -0.0124
22919W        W41123  15.828  13.449  12.182  0.1086 -0.0855 -0.2455
22920W        W41124  12.201   4.938  13.845  0.0859  0.0269 -0.1469
22921W        W41125  12.217  18.594  14.093  0.1038 -0.3327  0.0847
22922W        W41126   0.714   4.089  12.177  0.1667 -0.1699 -0.1713
22923W        W41127   3.727   3.654  14.283 -0.1408 -0.0022 -0.0090
22924W        W41128  14.022  10.697   2.806 -0.1758  0.3360 -0.3796
22925W        W41129   7.891   9.047   3.939  0.2992  0.1107  0.3294
22926W        W41130  13.785  12.630  13.556 -0.0601 -0.0552 -0.3209
22927W        W41131  15.083   4.134  14.994  0.0039 -0.1074 -0.1646
22928W        W41132   9.964   9.272  11.838  0.0832 -0.1755  0.0809
22929W        W41133  14.213   4.508   1.014 -0.0283 -0.1444 -0.1919
22930W        W41134  14.646   4.969   1.492  0.1215 -0.3204 -0.1201
22931W        W41135   3.012  11.372   3.546  0.0285 -0.0669 -0.0837
22932W        W41136  12.041  14.553   0.619 -0.1702 -0.3214 -0.1886
22933W        W41137   4.584  11.391  14.016  0.0435 -0.1801 -0.0861
22934W        W41138   2.916   9.381  11.002 -0.2987  0.1376 -0.0600
22935W        W41139   2.011  16.026  11.547  0.0031  0.1093 -0.0778
22936W        W41140  14.332   7.597  14.220 -0.1101  0.0969  0.0143
22937W        W41141  13.100   4.734   2.185  0.2447 -0.0770 -0.0544
22938W        W41142   2.895   7.829   4.237  0.2068  0.1676 -0.1485
22939W        W41143  13.961   8.468   0.370 -0.0628  0.2298  0.0975
22940W        W41144   9.200   9.479   1.277 -0.1352  0.0121 -0.0274
22941W        W41145   9.898   5.189   0.344  0.0959  0.1732  0.1977
22942W        W41146  14.410  16.967   3.419 -0.0017 -0.1997 -0.1022
22943W        W41147   8.106   6.068  10.869 -0.1915  0.2166 -0.0017
22944W        W41148  17.421   2.258   1.390 -0.0306  0.1707  0.1202
22945W        W41149   9.454  18.287  14.889  0.0762  0.2384  0.3733
22946W        W41150   6.075   6.810   3.264 -0.1667 -0.1670  0.3581
22947W        W41151  11.092   0.023  11.540  0.0407 -0.3521  0.1261
22948W        W41152   7.347   7.917  11.664 -0.1327 -0.2048  0.4109
22949W        W41153  10.272   0.607   1.863 -0.1995  0.5582 -0.2286
22950W        W41154   7.804   5.796  13.865  0.1770  0.0115  0.0778
22951W        W41155   7.252   2.209  12.384 -0.0548 -0.0968 -0.1782
22952W        W41156   1.622   8.055  11.775  0.1174  0.0608  0.1332
22953W        W41157   3.096   4.761   2.038 -0.1607 -0.0416 -0.3749
22954W        W41158  13.494   5.805   2.107  0.4335 -0.0624 -0.0205
22955W        W41159  17.678  14.893   9.604  0.0487 -0.0454  0.0065
22956W        W41160   5.715  11.153   0.821 -0.0686 -0.2145  0.0070
22957W        W41161   2.194  13.352   2.549 -0.1400 -0.0510 -0.0301
22958W        W41162  18.150   0.740   3.833 -0.1573 -0.2087 -0.1183
22959W        W41163   0.429   9.802   2.642 -0.4123  0.0968 -0.0686
22960W        W41164  16.794  14.966  13.896 -0.1129 -0.0894  0.0760
22961W        W41165   7.595   2.560   4.845 -0.0863 -0.0966  0.1065
22962W        W41166  16.683   3.322   3.158 -0.0817 -0.0579 -0.0601
22963W        W41167  12.831  17.325   1.060 -0.1027  0.1439 -0.2739
22964W        W41168  16.628  14.379  13.309 -0.0031  0.0443 -0.0562
22965W        W41169  13.715  13.289  10.925  0.3353  0.1108  0.3591
22966W        W41170   5.907   6.288   2.253  0.0092 -0.1924 -0.2916
22967W        W41171   9.783   9.954   4.490  0.1430  0.0141  0.1091
22968W        W41172   7.884  13.238   4.914  0.4221 -0.3110 -0.1716
22969W        W41173   6.730   4.118  13.739  0.0957  0.2976 -0.1114
22970W        W41174  14.813   4.478   3.241 -0.1073 -0.2734 -0.0409
22971W        W41175   0.767   6.914  11.478  0.3699 -0.1032  0.1009
22972W        W41176   3.061  17.356  15.362  0.0450  0.2180 -0.0959
22973W        W41177  10.054   2.220  12.759 -0.1026  0.0764 -0.3022
22974W        W41178  12.257  18.378   3.837  0.2301 -0.1890 -0.0017
22975W        W41179   4.052   4.601   0.873 -0.0779  0.1762  0.0892
22976W        W41180  13.278  15.914   0.077 -0.0161 -0.1878 -0.2373
22977W        W41181   2.140  11.043   3.441 -0.2111 -0.1448 -0.0767
22978W        W41182   7.459  12.455   3.359  0.0144  0.0166  0.3544
22979W        W41183   3.210   0.873  14.093  0.1741 -0.2638  0.2149
22980W        W41184  12.474  18.189   1.629 -0.1597 -0.1497  0.1536
22981W        W41185   5.116   6.438   4.448 -0.1527  0.0027 -0.1667
22982W        W41186  13.152   6.465  10.846 -0.2894 -0.2969  0.1472
22983W        W41187   9.830   1.408   2.462  0.0573 -0.1691  0.0078
22984W        W41188   3.900   9.822  14.309 -0.3209 -0.0918  0.2012
22985W        W41189   0.953  11.271  11.406  0.0312 -0.3753  0.2323
22986W        W41190   2.997   2.854   2.434  0.1810 -0.1586  0.4306
22987W        W41191   1.409   8.584  10.863  0.2530 -0.0844 -0.1710
22988W        W41192   3.341   0.566  12.804 -0.5068 -0.2568  0.0214
22989W        W41193   1.956  11.295   3.035  0.0360  0.0120  0.1027
22990W        W41194  11.608   4.019  14.065 -0.0089  0.2507  0.0425
22991W        W41195   8.640  16.637   4.818  0.1077  0.0152  0.2876
22992W        W41196   8.425   0.403   1.182 -0.1333  0.0573  0.0454
22993W        W41197   3.320  13.638  14.153  0.1551  0.0090  0.0011
22994W        W41198  15.584   9.472  12.564  0.1272  0.2909  0.1454
22995W        W41199  10.405  13.846   4.317  0.2670 -0.1459 -0.1147
22996W        W41200   5.602  10.521  13.819 -0.1314  0.1068  0.2564
22997W        W41201  15.613   7.257  12.312 -0.3470 -0.1093 -0.1043
22998W        W41202   7.333   2.504   4.371  0.0496 -0.0639  0.3105
22999W        W41203   6.808  14.929   4.141 -0.2441 -0.0680 -0.0478
23000W        W41204   1.566   8.543   3.632  0.4218  0.0511  0.1934
23001W        W41205  16.876  14.115  14.495 -0.2089  0.0709 -0.0498
23002W        W41206  15.736   8.576   4.340  0.1984 -0.2776  0.0745
23003W        W41207  14.093  10.858  11.965  0.2951  0.1874  0.1331
23004W        W41208  14.370   0.826  14.903 -0.0423 -0.1525  0.0294
23005W        W41209  10.831   8.821   2.187  0.2408 -0.1644  0.0224
23006W        W41210   9.420  13.977   2.922 -0.0958 -0.0335 -0.1267
23007W        W41211  10.957  17.069  12.131 -0.1908  0.5003  0.0677
23008W        W41212  10.633   5.636  15.170 -0.1872 -0.1259  0.1098
23009W        W41213  13.155   9.821  13.511  0.1533 -0.2711 -0.1245
23010W        W41214   8.439   2.599  12.270  0.3203 -0.0745 -0.1778
23011W        W41215  14.971  16.067  12.261  0.0978 -0.0372  0.0032
23012W        W41216   7.211  16.949  13.860  0.1049  0.2009 -0.0799
23013W        W41217   9.733   6.583   4.806 -0.0078  0.2247 -0.0957
23014W        W41218   5.822  14.983  13.915 -0.0669 -0.1261 -0.0266
23015W        W41219  12.496   2.660   4.893  0.2023  0.1531 -0.1170
23016W        W41220  17.998   5.192  12.781  0.0072  0.0758  0.3195
23017W        W41221   8.948   5.868   0.279  0.1999  0.0938 -0.3019
23018W        W41222   7.301   9.826   1.144 -0.4109  0.0025 -0.0352
23019W        W41223   0.440  11.381   2.249  0.2127  0.0766  0.0082
23020W        W41224   5.006   0.213   3.011  0.2111 -0.1546 -0.2617
23021W        W41225  17.445   3.333   4.094  0.0043  0.3184 -0.0447
23022W        W41226   9.550   5.899  11.805  0.1220  0.1242 -0.0224
23023W        W41227   3.175   2.563   3.603  0.2364  0.1776 -0.0968
23024W        W41228   6.823  13.115   1.938  0.1489  0.2015 -0.2165
23025W        W41229  14.317   2.821   2.528  0.1716  0.0245  0.1816
23026W        W41230   4.327   7.553  13.948 -0.0851 -0.2663 -0.0309
23027W        W41231   0.201   5.244   3.125  0.3219 -0.2736  0.2103
23028W        W41232  17.515   1.767   4.520  0.0936 -0.2014 -0.5060
23029W        W41233  17.956  12.544   2.213 -0.0882  0.0309 -0.0922
23030W        W41234  13.484  15.064  12.075 -0.1784 -0.1489  0.0433
23031W        W41235   5.935   6.074   1.765 -0.0899  0.0109  0.1376
23032W        W41236  10.877   3.401  14.839 -0.0228 -0.1333  0.0660
23033W        W41237   3.486  12.860  13.429 -0.0984 -0.2261 -0.0946
23034W        W41238   3.605  15.554   0.497 -0.2949  0.0682 -0.1235
23035W        W41239   5.713  16.861   1.682  0.0138  0.0796  0.1985
23036W        W41240   6.644  11.704  12.793  0.0250  0.0509 -0.1729
23037W        W41241  10.990  16.562   0.478 -0.1978 -0.2292 -0.1625
23038W        W41242  13.185   8.354   4.227 -0.1781 -0.1303 -0.1527
23039W        W41243   5.895   3.328  14.402 -0.2499  0.2108  0.2015
23040W        W41244   8.266  14.302   2.200  0.0562 -0.4141 -0.0027
23041W        W41245   8.866   9.288  11.936  0.1226 -0.0339  0.2149
23042W        W41246   4.340   5.414   4.330 -0.0595  0.2764 -0.0285
23043W        W41247   5.744   3.369  11.134  0.1621  0.0693 -0.3018
23044W        W41248   3.308  14.004  10.567 -0.0597  0.0711  0.1074
23045W        W41249   4.002   2.773  15.209 -0.0392  0.4443  0.0001
23046W        W41250  13.576   7.611   0.539 -0.2422  0.0033  0.1763
23047W        W41251  17.417  17.038   1.507 -0.0574 -0.0465  0.0421
23048W        W41252  13.230  18.011  14.351  0.0964  0.2689  0.1720
23049W        W41253   3.730  18.227   4.620 -0.0343  0.0343  0.0072
23050W        W41254   8.895  16.122   4.746  0.0337  0.1236 -0.2008
23051W        W41255  17.248  16.900   2.095  0.2042 -0.2050 -0.1755
23052W        W41256   0.043   0.310  11.748  0.1019  0.1988 -0.1750
23053W        W41257   9.933   8.288  13.809 -0.1635  0.3292 -0.1700
23054W        W41258  11.320   5.718   1.065  0.1743  0.0539  0.0631
23055W        W41259  17.301   5.078   3.765  0.2275 -0.0002  0.1551
23056W        W41260  15.968   6.189  11.824  0.0425  0.3133 -0.1530
23057W        W41261   7.127   7.878  15.237 -0.0078 -0.0130  0.2072
23058W        W41262  16.329   8.267  12.682  0.0111 -0.0272 -0.0871
23059W        W41263   9.459  15.403   2.500  0.2381  0.0651  0.1581
23060W        W41264  13.853  12.601   1.007 -0.0480  0.0824 -0.1064
23061W        W41265   1.963  15.719   2.445  0.1916  0.0886 -0.4342
23062W        W41266  13.696   4.440  11.815 -0.0331  0.3093 -0.0388
23063W        W41267  16.257   9.114   0.431  0.2099  0.0448  0.1136
23064W        W41268   3.869   0.365  11.218 -0.0944 -0.0135 -0.1875
23065W        W41269   0.546   6.018   4.434 -0.1381 -0.0330  0.0926
23066W        W41270   8.039   1.606   2.883  0.1330 -0.0939 -0.2913
23067W        W41271  11.000  15.053  12.436  0.1561  0.0257 -0.1562
23068W        W41272   6.146   4.253  15.316 -0.2876  0.0046 -0.0662
23069W        W41273  10.192  10.113  14.847 -0.3854  0.3899  0.0588
23070W        W41274  12.597  15.665  12.749 -0.3782 -0.0270 -0.0864
23071W        W41275  10.778   7.717  12.108  0.2522 -0.1956 -0.1343
23072W        W41276   1.786   8.186  13.114 -0.2055  0.1575  0.0309
23073W        W41277  11.337  13.366  15.426  0.1219  0.1996  0.0756
23074W        W41278   5.033  11.556  14.105 -0.3302  0.2107  0.2115
23075W        W41279  12.244  10.868  14.809 -0.0815  0.0953  0.0217
23076W        W41280  10.152   9.364   2.675 -0.0731 -0.0100  0.0008
23077W        W41281   0.611  13.794   3.447  0.1207  0.1008  0.0709
23078W        W41282  13.808  16.319   0.702 -0.3524  0.4115 -0.2416
23079W        W41283   6.879  17.508  15.188  0.1551 -0.0785  0.1927
23080W        W41284   6.941  11.355   2.823 -0.0229 -0.0860 -0.1925
23081W        W41285  11.530   2.763  13.486 -0.0685  0.0143  0.1829
23082W        W41286  12.280   0.633   2.400  0.0558  0.0780 -0.1470
23083W        W41287  12.041   6.108   4.667  0.2591 -0.1414 -0.1295
23084W        W41288  12.693   7.499  11.772 -0.1261 -0.3915  0.1365
23085W        W41289   0.744   4.669  10.173  0.0848 -0.1876 -0.2301
23086W        W41290  13.601  16.106  10.011  0.0700  0.0045 -0.0220
23087W        W41291  12.916   3.318  13.963  0.0546 -0.1676  0.1921
23088W        W41292   0.860   2.345   0.966 -0.0234 -0.1710 -0.0919
23089W        W41293   1.078   2.819  13.017  0.1170 -0.0488  0.0068
23090W        W41294  11.257   1.005   0.147 -0.3734  0.1101 -0.0585
23091W        W41295   1.592   6.846  10.942  0.0798 -0.1801 -0.1235
23092W        W41296   3.603   4.608   2.093 -0.1337  0.1406  0.2137
23093W        W41297   9.699  18.517  13.800  0.0307  0.3614 -0.0566
23094W        W41298  10.560   4.317   0.528  0.1034 -0.0737 -0.2275
23095W        W41299   6.471  14.125   0.547  0.1358 -0.1096  0.1095
23096W        W41300  17.138  17.053  14.744  0.2439 -0.0915 -0.2274
23097W        W41301  18.123  18.070   4.687 -0.1182 -0.2530 -0.2653
23098W        W41302  14.183   5.407  13.816 -0.1376  0.3840 -0.2882
23099W        W41303  15.007   9.653   1.256 -0.2011 -0.0887  0.0981
23100W        W41304  12.853   9.345  12.379  0.0176 -0.0425  0.1780
23101W        W41305   6.130   9.797  12.205  0.2457 -0.1737  0.2765
23102W        W41306  13.490  14.210  15.370 -0.0276 -0.2325  0.3003
23103W        W41307   8.539  12.538  11.700  0.0644 -0.1285 -0.0779
23104W        W41308  13.368  14.126   5.547  0.1592  0.0244  0.2094
23105W        W41309   4.125   9.262  11.191  0.2733  0.0062  0.2157
23106W        W41310  16.018   7.868  14.233  0.5056 -0.0114  0.5226
23107W        W41311   8.436  16.340  13.726 -0.0110  0.0522  0.0778
23108W        W41312   7.174  14.322   1.452  0.1484 -0.2220 -0.0178
23109W        W41313  11.753   0.291  12.468 -0.0360  0.3275  0.0111
23110W        W41314   4.890  18.355  11.848  0.1792 -0.0139 -0.2765
23111W        W41315  12.890   1.979   3.620  0.1112 -0.0174 -0.1499
23112W        W41316   8.894   1.256   3.256 -0.1610  0.2835  0.4748
23113W        W41317  18.103  16.913  15.050  0.0359 -0.0328  0.3321
23114W        W41318  15.027   6.543   9.931  0.1866  0.3224  0.2085
23115W        W41319  12.013   5.186   3.258  0.0991  0.1385 -0.1533
23116W        W41320   9.800   2.833  12.494  0.2712 -0.0997 -0.3217
23117W        W41321  13.389  10.355  13.116 -0.0456 -0.0838 -0.0513
23118W        W41322   9.205  18.423   4.443 -0.0366  0.1301  0.0907
23119W        W41323  18.227   9.171  15.190  0.1176 -0.1773 -0.0718
23120W        W41324  16.716  16.070   4.881  0.1999 -0.3001 -0.1701
23121W        W41325  13.217   4.001  13.209  0.0245 -0.0045  0.0837
23122W        W41326   9.328  14.808   4.383 -0.2080  0.0774  0.1849
23123W        W41327  15.276  11.875   2.047 -0.2056  0.2009  0.1800
23124W        W41328  12.926  10.213   4.164  0.1314  0.1757  0.1383
23125W        W41329  13.317   3.379  15.416  0.2229  0.0123 -0.0431
23126W        W41330  16.073   5.913  10.892 -0.0642 -0.2302 -0.3274
23127W        W41331   8.588   1.250   4.105 -0.0158 -0.3353  0.1445
23128W        W41332  11.466   5.081  15.120  0.2927 -0.1722  0.1374
23129W        W41333   4.434   6.206   0.556 -0.1598  0.0155 -0.0905
23130W        W41334  17.180   2.434   0.496  0.0803 -0.0478 -0.0264
23131W        W41335   4.027  14.344  10.053  0.0638  0.4848  0.0628
23132W        W41336  13.281   6.913   4.697  0.1235 -0.1092 -0.0676
23133W        W41337   5.491  16.613  12.406 -0.1274  0.2481  0.0129
23134W        W41338   5.171  17.044  13.897  0.1205  0.4260 -0.2009
23135W        W41339   4.428   6.760  10.880  0.2149  0.3423 -0.0947
23136W        W41340  17.617  16.349  12.788 -0.1370  0.1563  0.2019
23137W        W41341  16.648   8.589  11.898  0.0038  0.2006  0.2837
23138W        W41342   8.285   2.379   2.659 -0.0787  0.1264 -0.0136
23139W        W41343   4.018  10.344  14.289 -0.1364  0.2917 -0.1093
23140W        W41344  17.859   5.509   2.963 -0.0153 -0.1022 -0.0802
23141W        W41345  15.498  14.683  10.625 -0.0875  0.0859  0.2184
23142W        W41346  17.100   0.007  12.783  0.1634  0.2084  0.2336
23143W        W41347   5.630   4.764   3.826  0.1900  0.0083  0.4628
23144W        W41348  13.283  14.579  13.312  0.0646  0.0267  0.2739
23145W        W41349  15.001  17.682   0.669  0.0567 -0.0963 -0.2990
23146W        W41350   0.632   3.643   1.836 -0.0412 -0.2360 -0.1090
23147W        W41351  10.053  13.927   0.143  0.1050 -0.0880  0.0239
23148W        W41352   8.939   9.227  13.706 -0.1908  0.0700 -0.0682
23149W        W41353   7.961   6.728  12.684 -0.0855 -0.1885  0.1953
23150W        W41354  14.139   9.535   4.223  0.0272 -0.4561 -0.1143
23151W        W41355   1.452  14.787   3.007 -0.0113  0.0469  0.2441
23152W        W41356   4.815  12.374   4.342  0.1777 -0.0245 -0.0227
23153W        W41357   4.261  18.561  14.403 -0.4797 -0.0076  0.2320
23154W        W41358   3.877  11.964  14.783 -0.2651 -0.0541 -0.2423
23155W        W41359   4.472   6.348   3.373 -0.2790  0.0407  0.0966
23156W        W41360   4.798  10.144  14.236  0.1266 -0.3356  0.0697
23157W        W41361  16.366   5.152  14.819 -0.3827  0.1222  0.2795
23158W        W41362  10.118   7.156   2.360  0.0388 -0.1190 -0.1477
23159W        W41363   8.424   6.662   1.272  0.0116  0.1155  0.0782
23160W        W41364  18.181   0.038   0.502 -0.0773 -0.1498  0.0084
23161W        W41365  17.682  14.130  13.424  0.2700  0.3231  0.3190
23162W        W41366   5.249   0.682  12.402  0.2782  0.0559 -0.2310
23163W        W41367  17.885  11.540   1.945  0.0052  0.2431 -0.0008
23164W        W41368  11.349   8.379  14.790 -0.1514 -0.0844  0.2577
23165W        W41369  15.218   5.901  11.795  0.2945  0.0892 -0.0946
23166W        W41370   1.664   5.054   3.759 -0.0027 -0.1175 -0.4797
23167W        W41371  16.810   2.200  12.480  0.3769 -0.0570  0.2342
23168W        W41372   5.058  18.545   0.284 -0.0515  0.0757  0.4694
23169W        W41373  11.953   2.768  10.665 -0.4080  0.1750 -0.2908
23170W        W41374   0.180   7.137  14.686  0.3952  0.1393  0.0098
23171W        W41375   0.680   9.728   2.149  0.0036 -0.0029  0.0881
23172W        W41376  13.246  11.587  10.813 -0.5232 -0.0119 -0.2748
23173W        W41377   6.993   4.079  11.790  0.0851 -0.0551  0.2678
23174W        W41378   1.559  17.346   4.448 -0.0544  0.0560 -0.0944
23175W        W41379   4.109   1.273  14.246 -0.2412 -0.2896 -0.2471
23176W        W41380  15.862  12.602   4.627 -0.3923  0.0908 -0.0498
23177W        W41381  10.788  17.263  12.672 -0.1821  0.3188  0.4250
23178W        W41382   4.086   0.753   2.412  0.0886  0.2044  0.0035
23179W        W41383  15.792   3.858  11.665  0.0998 -0.0205  0.2165
23180W        W41384  17.088  16.822  14.144 -0.0936  0.1742 -0.1848
23181W        W41385   7.948  15.408   4.036 -0.0355 -0.0779  0.1600
23182W        W41386   1.595  12.469  14.406  0.0351  0.0256  0.1925
23183W        W41387   2.419  15.153  14.256  0.3038 -0.1637 -0.0867
23184W        W41388  16.483  14.087  14.019 -0.3134 -0.1287  0.0340
23185W        W41389   8.104  15.845   4.834 -0.0351  0.0651  0.0406
23186W        W41390  10.356   0.662  12.928  0.0420 -0.0732 -0.3524
23187W        W41391   7.594   0.882   2.725  0.1539 -0.0271 -0.0948
23188W        W41392  12.362  10.468   3.683  0.2190  0.0208 -0.1080
23189W        W41393   7.472  16.872  13.345  0.1474 -0.1632 -0.1404
23190W        W41394  15.303   9.953  11.037  0.1749 -0.1573 -0.2535
23191W        W41395  14.085   6.732  13.635  0.0002 -0.1846  0.0500
23192W        W41396  15.059   7.066   1.561  0.2188 -0.0283  0.2120
23193W        W41397  17.843  11.055   0.779  0.0610  0.2945 -0.1337
23194W        W41398   5.134   0.164  14.071  0.1267 -0.1816  0.4179
23195W        W41399  11.591   3.395  11.443 -0.1926 -0.1079 -0.0496
23196W        W41400  11.210   8.301   1.451 -0.4204  0.0572 -0.1066
23197W        W41401   3.534  11.867  11.549  0.1036 -0.1798 -0.0668
23198W        W41402   3.464   6.012  10.775  0.0902  0.1124  0.0691
23199W        W41403   3.123   5.890  12.477  0.1411  0.2613 -0.0367
23200W        W41404   1.092   5.251   4.431  0.2815 -0.1052 -0.1876
23201W        W41405  15.190  17.317  11.075 -0.1461 -0.1678  0.2455
23202W        W41406  14.269  17.489   1.677  0.0928  0.1505 -0.0171
23203W        W41407  15.255  12.873  12.804  0.1850  0.0169  0.2074
23204W        W41408   1.600   2.190   4.892  0.0379 -0.1017  0.0004
23205W        W41409  17.612   8.906  14.654  0.0881  0.0832  0.1086
23206W        W41410   7.295   8.562  14.691 -0.1164  0.0698  0.0361
23207W        W41411  16.499   6.201  11.654 -0.0177  0.2321  0.0120
23208W        W41412   0.004  18.604  12.830  0.0130 -0.0851  0.0394
23209W        W41413   5.041   3.111   4.258 -0.3192  0.0005 -0.2770
23210W        W41414   3.274   5.496   1.812  0.2339 -0.1715  0.0608
23211W        W41415   4.818   1.934  12.327 -0.0138 -0.1288  0.1041
23212W        W41416  10.152   4.631   2.097 -0.1454  0.1054 -0.0037
23213W        W41417  15.903  10.150  13.832 -0.0929 -0.0913  0.4631
23214W        W41418  16.149   1.422  13.857  0.0099  0.0998 -0.0197
23215W        W41419   1.071  16.404  12.310  0.0370 -0.2870 -0.0591
23216W        W41420   4.909  15.060  12.936 -0.1339 -0.0241 -0.3760
23217W        W41421   5.618   7.703  13.343 -0.3934 -0.0613  0.0706
23218W        W41422   9.363   2.100   1.256 -0.3574 -0.1164 -0.0448
23219W        W41423  16.100  13.913   2.984  0.1352 -0.1124 -0.2751
23220W        W41424  13.340  12.922  12.305 -0.2891 -0.1188  0.3743
23221W        W41425   2.403   2.107   0.213 -0.1125  0.3496  0.2303
23222W        W41426   9.216  15.433  11.265 -0.1918  0.0534 -0.3233
23223W        W41427   9.665   6.794   9.797 -0.0872 -0.0946  0.0346
23224W        W41428   2.104   1.716  12.638  0.3069 -0.3406  0.1027
23225W        W41429  13.758   0.891  15.414 -0.0388  0.0731  0.1625
23226W        W41430  15.066   1.762  14.703  0.1429 -0.1313 -0.1293
23227W        W41431  14.244  17.605  13.806 -0.0009 -0.0954  0.1060
23228W        W41432   6.539  14.623  10.138  0.2217 -0.1839  0.2381
23229W        W41433  16.317   5.485  11.050 -0.1338  0.4998 -0.2794
23230W        W41434  14.819   4.466  11.680 -0.2627 -0.0823 -0.0159
23231W        W41435  12.278   6.986   1.981  0.2360 -0.2407  0.4149
23232W        W41436   2.739   5.317  10.977 -0.5385  0.1894  0.0009
23233W        W41437   8.568   7.870   2.082 -0.1376 -0.1369  0.0972
23234W        W41438   5.845  10.595  10.569 -0.4663 -0.0204  0.0873
23235W        W41439   4.519  11.581   2.531  0.0576  0.4106 -0.0338
23236W        W41440   9.319   9.355  15.172  0.0795 -0.2409  0.0493
23237W        W41441   0.166  14.599   4.352 -0.0233 -0.1333 -0.0002
23238W        W41442   8.943   1.380  15.188  0.2200 -0.0705 -0.1313
23239W        W41443  16.966  16.924   1.613  0.1260  0.1381  0.0818
23240W        W41444   4.819  12.385  13.777  0.2734 -0.1026  0.1821
23241W        W41445  10.727   5.622  13.254  0.2233  0.0331  0.1409
23242W        W41446   5.861   2.444   2.528 -0.0514  0.1591  0.1524
23243W        W41447   6.668  18.333   2.031  0.1723  0.2773 -0.1824
23244W        W41448   6.486   3.969   1.102  0.1907 -0.1443  0.1768
23245W        W41449   1.535   8.865   1.339 -0.0224 -0.2691  0.0709
23246W        W41450   3.684  15.749   2.342 -0.0141 -0.0315  0.2440
23247W        W41451  16.844   9.255   4.211 -0.0956 -0.0996  0.1948
23248W        W41452   3.634  16.724   1.603 -0.0951 -0.0331 -0.2117
23249W        W41453  15.389   3.393  14.825 -0.0748 -0.2524  0.3237
23250W        W41454   3.687  11.464   5.574  0.1044 -0.0942  0.2138
23251W        W41455  15.713  15.198   1.629 -0.0316  0.1829  0.2032
23252W        W41456  17.574   6.537  11.197  0.1574  0.1238 -0.0244
23253W        W41457  11.390   2.573   3.235 -0.0690 -0.0483 -0.1944
23254W        W41458  12.188   4.174   3.997  0.3606 -0.0061  0.2948
23255W        W41459   8.558   9.751  11.859 -0.1530 -0.1446 -0.0328
23256W        W41460   1.062  11.124  10.241 -0.0175 -0.2909 -0.0506
23257W        W41461  14.898   7.192   4.331  0.0957  0.0900 -0.0123
23258W        W41462  16.223   8.704  14.949 -0.2998 -0.0962  0.0141
23259W        W41463   9.212  10.363   0.054 -0.0616 -0.2559  0.1059
23260W        W41464   8.176  17.625   1.946  0.1929  0.1056 -0.1160
23261W        W41465  15.752   3.338   9.643  0.1536  0.2270 -0.1255
23262W        W41466  10.637  13.766  11.833 -0.2363 -0.4690  0.1237
23263W        W41467  11.573   4.994  11.215  0.0913 -0.2082 -0.1711
23264W        W41468   3.731   8.803  10.503  0.2140  0.1745 -0.2689
23265W        W41469   4.129   7.265   3.823 -0.0906 -0.2050 -0.1301
23266W        W41470   5.623  10.172  14.818 -0.1122  0.0068  0.2533
23267W        W41471   3.176   1.929  11.327 -0.0584  0.1809 -0.0054
23268W        W41472   5.474  11.366   2.925  0.2132  0.2392  0.2739
23269W        W41473   3.994  11.627   5.243  0.0353 -0.1541 -0.1255
23270W        W41474  10.000  14.899  11.711 -0.0190 -0.0737 -0.2095
23271W        W41475  11.091   2.035   0.405 -0.0546 -0.1218 -0.1613
23272W        W41476  16.339   0.269  13.109  0.2869 -0.0407 -0.1053
23273W        W41477   6.476   2.811  15.063  0.1330 -0.1057  0.0025
23274W        W41478   5.250  13.827  13.490  0.0714  0.0442 -0.0712
23275W        W41479   4.506  11.438  10.399 -0.1866 -0.0807 -0.0056
23276W        W41480  17.567   4.972  13.865 -0.0004  0.1364  0.0309
23277W        W41481   4.356  12.264  13.835  0.1720 -0.0843  0.1529
23278W        W41482  18.495  14.657   3.517 -0.1674 -0.0020  0.0365
23279W        W41483  15.951   3.063   3.605  0.0945 -0.0775  0.2578
23280W        W41484   0.183   3.330   0.166 -0.1016  0.0114  0.2269
23281W        W41485  10.080   8.863  11.483  0.0721 -0.1679  0.0534
23282W        W41486   3.060   8.978   2.844  0.3523 -0.1990 -0.2572
23283W        W41487   3.868  15.123   5.331 -0.0136  0.5111 -0.0064
23284W        W41488   7.972   2.466  14.439  0.2036  0.1547  0.0765
23285W        W41489   4.219   9.887   3.092 -0.1770 -0.1664  0.1558
23286W        W41490   0.315  15.194  13.076  0.0574  0.1765 -0.2134
23287W        W41491  16.155  18.491   3.499 -0.1970  0.2482 -0.0890
23288W        W41492  11.423   9.027  12.876  0.3325 -0.1524  0.0284
23289W        W41493  16.511   3.565   0.301 -0.0260  0.0099 -0.0813
23290W        W41494   8.166  18.495  13.285  0.0974  0.2372 -0.0214
23291W        W41495   4.008   5.596  12.928 -0.3967 -0.0472 -0.4067
23292W        W41496   5.608   6.260   1.466  0.0882  0.1625  0.0717
23293W        W41497  13.389   7.710   1.024  0.1719 -0.2491 -0.0837
23294W        W41498   0.076  15.421   4.638 -0.0297  0.2247 -0.3101
23295W        W41499  11.860  14.902  14.257 -0.1707  0.0281  0.2267
23296W        W41500  17.059   6.623   1.954 -0.1352  0.1938 -0.2093
23297W        W41501  17.480   9.328   0.588 -0.2002 -0.0231  0.0172
23298W        W41502   3.019  10.281  11.285 -0.0914 -0.3607 -0.5065
23299W        W41503  17.146   7.024  11.027 -0.0273  0.1077 -0.0134
23300W        W41504   2.273   5.389   4.061 -0.0704 -0.0104  0.2525
23301W        W41505   6.104  16.306   1.816 -0.2822  0.0260 -0.3967
23302W        W41506  18.408  16.007   2.778  0.2317 -0.3553 -0.1993
23303W        W41507  15.391  11.496  11.755 -0.0030  0.1697  0.1751
23304W        W41508  11.779   9.496   0.922 -0.2548  0.0793 -0.0325
23305W        W41509  11.106   0.480   0.762  0.0191  0.1730 -0.0586
23306W        W41510  17.187  14.555  13.027 -0.1692  0.1391 -0.1874
23307W        W41511   0.787   7.148   3.908 -0.0113  0.0848  0.2079
23308W        W41512   9.214   1.482   0.153 -0.1678  0.0409 -0.0455
23309W        W41513   6.107   7.533   3.911 -0.2506 -0.1240  0.0807
23310W        W41514   1.948   9.482  11.243 -0.0671 -0.4071 -0.0814
23311W        W41515  10.957   8.726  14.797  0.0321  0.0421  0.0176
23312W        W41516  12.548   5.507   1.896  0.0307  0.0765 -0.2036
23313W        W41517   3.018  18.571  11.301  0.0513  0.1404 -0.1815
23314W        W41518   3.868  11.433   1.644 -0.0746  0.4390  0.0052
23315W        W41519   8.101  16.468  11.675  0.0405 -0.4105 -0.4202
23316W        W41520   6.140  10.342   1.011 -0.0746  0.0451 -0.0023
23317W        W41521   7.801  14.229   0.857 -0.2466 -0.1271  0.3058
23318W        W41522   0.278  12.105  11.647  0.1863  0.0266  0.1682
23319W        W41523  12.887  10.319  14.377 -0.1717  0.2680 -0.0954
23320W        W41524  13.864  10.358   3.973 -0.0600  0.0673 -0.0821
23321W        W41525  14.539  16.548   2.916 -0.1700  0.0782  0.0533
23322W        W41526   3.169  10.736   9.988 -0.0253  0.1265  0.1820
23323W        W41527   8.734  18.085  14.687 -0.1436  0.0987  0.0427
23324W        W41528  13.408   3.098  10.816  0.0614 -0.1950  0.1865
23325W        W41529   2.223   9.041   0.267 -0.0506  0.0725  0.1059
23326W        W41530   9.516   9.205  14.263  0.0961  0.1930 -0.0976
23327W        W41531   0.909  11.211   2.558  0.1871 -0.2350  0.0494
23328W        W41532   1.087   9.167   1.246  0.0103 -0.2193  0.0494
23329W        W41533   5.444  11.283  12.857  0.2563  0.1138  0.0103
23330W        W41534  11.400   3.373  12.945 -0.1775  0.0450 -0.0414
23331W        W41535  18.507  14.769   3.997  0.1995  0.1442 -0.0785
23332W        W41536  16.642   3.111  12.406 -0.0134 -0.3516 -0.4704
23333W        W41537   5.488   3.221  14.091  0.2360 -0.1664 -0.0133
23334W        W41538  15.845  11.330  12.330 -0.1057  0.3381 -0.0933
23335W        W41539  16.039   2.042  12.932  0.1002  0.2109 -0.2088
23336W        W41540  11.331   1.469  11.228  0.3229 -0.0982 -0.1833
23337W        W41541   5.961  17.494   2.291  0.0160  0.3000  0.1253
23338W        W41542   2.283  10.729   3.794  0.1270  0.1569 -0.0509
23339W        W41543   4.760  17.214  13.607 -0.0660  0.0002  0.0476
23340W        W41544  16.340   6.415  15.354  0.2227  0.0468 -0.0128
23341W        W41545   6.750   4.927   2.836  0.2745 -0.1124 -0.1607
23342W        W41546   4.943   0.006   2.522  0.0492 -0.1819  0.0140
23343W        W41547   1.272   8.434  12.008 -0.2006  0.0575  0.1646
23344W        W41548  10.717   2.002   4.647  0.2170 -0.2193  0.0592
23345W        W41549  15.782  10.833   0.062 -0.1215 -0.0777  0.2350
23346W        W41550  10.258   4.134   1.657  0.0707 -0.0032 -0.1318
23347W        W41551   5.892  13.065   1.429  0.2214 -0.1413 -0.0291
23348W        W41552   5.215  15.676  14.598 -0.0050 -0.1424  0.1205
23349W        W41553   8.119   9.861  11.553  0.0554 -0.0831 -0.3381
23350W        W41554   8.175  10.337   3.779  0.1317 -0.0014 -0.1452
23351W        W41555  15.086   4.208  13.929 -0.3078 -0.0119 -0.0985
23352W        W41556   6.674  18.444  11.801  0.0546 -0.0164 -0.4176
23353W        W41557   2.210  14.624   1.722 -0.0547  0.0821  0.0231
23354W        W41558  15.273  12.069   3.863 -0.1035 -0.0183 -0.3138
23355W        W41559   3.337  10.428  10.555 -0.1022 -0.1027  0.1107
23356W        W41560   5.102   2.051  13.909 -0.0513  0.1359  0.1759
23357W        W41561   4.942   6.054  11.967  0.4008 -0.1405 -0.0483
23358W        W41562   0.374   7.906   4.434 -0.0667 -0.0038  0.1114
23359W        W41563   2.365  13.173   3.972  0.1919 -0.0067 -0.1824
23360W        W41564  13.884  10.754  11.493 -0.0173 -0.3043 -0.1422
23361W        W41565  10.747   3.009   2.657 -0.1333  0.3093 -0.0029
23362W        W41566   1.048  13.402   3.989  0.0569 -0.0008 -0.3493
23363W        W41567   5.397  16.466   0.202  0.0356 -0.0859  0.1625
23364W        W41568  14.040  16.616  11.391  0.2689  0.3470  0.2642
23365W        W41569   4.644  10.790   4.940 -0.0306 -0.1439  0.2698
23366W        W41570  18.271  18.049  11.349  0.3471  0.0180 -0.3610
23367W        W41571  12.720   6.157  11.933  0.1565  0.1758 -0.1911
23368W        W41572   5.587  17.351   1.379  0.1864  0.1157 -0.2100
23369W        W41573  10.340  16.351   2.797 -0.2198 -0.2057  0.0685
23370W        W41574  13.182   1.830  13.170  0.2386 -0.2227 -0.0709
23371W        W41575   9.980  12.137   2.141 -0.0428  0.1387  0.0116
23372W        W41576  10.778   3.396   2.331 -0.1636 -0.2436 -0.2150
23373W        W41577   2.409  17.583  14.678  0.3406  0.0616  0.1478
23374W        W41578   8.908   6.630   4.294  0.2005  0.0097 -0.0069
23375W        W41579  14.505  17.639   0.637 -0.0839 -0.0836 -0.0708
23376W        W41580   6.232   1.450   3.441  0.2210  0.1532  0.0992
23377W        W41581   3.766   4.129   0.883 -0.0900 -0.1619 -0.0190
23378W        W41582  16.935   6.505   3.514 -0.1144 -0.1904  0.1177
23379W        W41583  11.281   5.233   5.539  0.0130  0.1338  0.0511
23380W        W41584  16.750  17.230   3.415 -0.1007 -0.0962 -0.1535
23381W        W41585   7.402   9.124  12.347  0.1355  0.0002  0.0674
23382W        W41586  12.301  13.395  11.121  0.0226 -0.2880  0.2024
23383W        W41587  11.175   6.234   2.019  0.1525  0.1400  0.0092
23384W        W41588   4.190   2.147   4.554 -0.2527 -0.0079 -0.0987
23385W        W41589  12.487   4.517  12.150  0.2227  0.0679 -0.0939
23386W        W41590  13.512   9.852   2.678  0.0708  0.0807  0.0787
23387W        W41591  18.250  14.671  12.332  0.2274 -0.1435 -0.0816
23388W        W41592   8.188   3.100  14.811 -0.0098 -0.2376 -0.1200
23389W        W41593   2.056   4.445  12.606  0.3187  0.0012  0.0688
23390W        W41594   4.317  14.930  12.335 -0.0557 -0.1102 -0.1267
23391W        W41595  12.831   9.393  11.508  0.0678 -0.2722  0.4302
23392W        W41596  10.695   5.119   1.504  0.1527 -0.0077  0.4045
23393W        W41597   6.372  13.180   2.700  0.0974  0.1011  0.1827
23394W        W41598   6.093   8.304   0.899 -0.0764 -0.0839  0.1769
23395W        W41599   4.662  16.965   3.019  0.2474 -0.0112 -0.1472
23396W        W41600  10.858  18.150   1.234 -0.0012  0.1862 -0.1679
23397W        W41601  13.229  15.262  11.662 -0.1352  0.3096  0.1637
23398W        W41602  11.056   0.935   4.279  0.5785 -0.0669  0.0321
23399W        W41603   1.216   2.388  11.758 -0.0840  0.0261 -0.1869
23400W        W41604  10.222  16.375  14.496 -0.3267 -0.2553 -0.0579
23401W        W41605   3.432  10.892   4.787  0.0858 -0.0467  0.1508
23402W        W41606  17.177   0.890   4.183 -0.2471  0.0674  0.0190
23403W        W41607   1.007  16.359   3.287 -0.1209  0.1479  0.0572
23404W        W41608  18.288   0.178  10.669 -0.2752  0.0024 -0.0666
23405W        W41609   5.343  15.382  12.706 -0.1456 -0.0381 -0.1059
23406W        W41610  16.660   0.020  13.666  0.1427 -0.0478 -0.1371
23407W        W41611   8.368  17.581  15.357 -0.2076  0.0167 -0.1058
23408W        W41612  14.989   0.835   0.560 -0.2498  0.1543 -0.0582
23409W        W41613  11.866  18.073  12.353  0.2487 -0.2230  0.2053
23410W        W41614   3.080  10.912   4.136  0.3021 -0.3339  0.3245
23411W        W41615   1.616   9.335  15.016  0.3627 -0.1162 -0.1489
23412W        W41616  14.240   3.267   0.666 -0.0049 -0.0118  0.0241
23413W        W41617   3.858   6.605  11.948 -0.0504 -0.3928  0.1953
23414W        W41618  12.484   0.149  14.888 -0.2395  0.1116  0.1914
23415W        W41619  18.372  11.231  13.807 -0.0168  0.0148  0.0302
23416W        W41620  12.181   2.662   1.412 -0.0818  0.0105 -0.2776
23417W        W41621  11.640  18.584   2.441  0.1182  0.1987  0.0134
23418W        W41622   4.490  16.441   2.839  0.0374 -0.0310  0.1684
23419W        W41623  15.847   9.790  12.249  0.3357  0.0985  0.0832
23420W        W41624  14.827   1.183   0.274 -0.1966 -0.3125 -0.0190
23421W        W41625  16.025  16.868   3.660 -0.0313 -0.1373 -0.1066
23422W        W41626   9.002   1.543   0.614 -0.1462  0.1624 -0.1462
23423W        W41627  11.715   7.560   2.570 -0.0729 -0.1300  0.1687
23424W        W41628   8.721  16.656   1.110  0.2471 -0.1010  0.1367
23425W        W41629   6.222  14.469   3.446 -0.4821  0.0931 -0.1307
23426W        W41630  10.025  17.563   0.945  0.0840 -0.2595  0.0266
23427W        W41631   7.835  11.118  15.376 -0.1588  0.0530  0.0213
23428W        W41632   2.210   3.260   1.758  0.2921  0.1831 -0.2762
23429W        W41633  15.789   7.285   3.476  0.1098  0.0168  0.0981
23430W        W41634   9.851   1.064   3.212  0.0777 -0.0184  0.0861
23431W        W41635  18.192   8.318  12.521  0.1635  0.2141  0.0605
23432W        W41636  10.684   7.091   4.876 -0.2748 -0.0165  0.1571
23433W        W41637   1.809   4.228   3.303 -0.1024 -0.2369  0.2664
23434W        W41638   6.508   6.027  11.352 -0.1575 -0.0256 -0.5218
23435W        W41639   1.674   8.462  14.509 -0.1704  0.1042  0.1207
23436W        W41640   8.736   1.749  14.929 -0.0397 -0.0100  0.2161
23437W        W41641  13.977   8.721  12.671 -0.0465  0.1624  0.0546
23438W        W41642   9.531   2.938  14.607 -0.2761  0.3564 -0.2893
23439W        W41643  12.796   3.668   0.459  0.1375 -0.1902  0.1919
23440W        W41644   2.293  13.263  12.303 -0.0124 -0.3250 -0.3034
23441W        W41645  10.557  11.094  11.318 -0.0780  0.1011 -0.3118
23442W        W41646  17.518   1.078  11.097  0.0341 -0.0336 -0.4051
23443W        W41647  15.730  18.369   4.320 -0.0651  0.1976  0.1612
23444W        W41648  11.573   6.772  15.385  0.1498  0.2420 -0.1615
23445W        W41649   3.370  14.651  11.403 -0.2711 -0.2123  0.1658
23446W        W41650   3.034   7.992  13.411 -0.1557 -0.2000  0.1562
23447W        W41651   3.523   8.660   4.727 -0.3810  0.1530 -0.4783
23448W        W41652   1.701   3.410   0.097  0.4067 -0.0074 -0.1366
23449W        W41653   8.625   6.680   1.860  0.1627  0.2777 -0.0511
23450W        W41654  15.500  17.631   3.249 -0.2082 -0.0759  0.1165
23451W        W41655   0.496  16.915  15.080 -0.1894  0.0669  0.0087
23452W        W41656   8.311  12.267   4.487 -0.1028  0.0186  0.1996
23453W        W41657  12.446   1.646   3.807  0.2935 -0.0674  0.0072
23454W        W41658   2.138  14.816  15.330 -0.1053 -0.0622  0.0730
23455W        W41659  11.500   9.622  11.683 -0.0005  0.2571 -0.0826
23456W        W41660   1.868  12.256  10.837  0.2211  0.2953 -0.0107
23457W        W41661   9.471  12.128   2.152 -0.2797 -0.0634 -0.0979
23458W        W41662  15.084  13.291   3.863  0.0418 -0.2603  0.0865
23459W        W41663  18.550   2.546   1.953 -0.1740 -0.3058  0.0411
23460W        W41664   9.514   8.811  11.353  0.1619  0.1387  0.0030
23461W        W41665   3.077   4.451  12.615 -0.2550 -0.1570 -0.0112
23462W        W41666   7.143  18.041   2.645 -0.0542 -0.2665 -0.3594
23463W        W41667   7.505   1.816  13.356  0.0933 -0.1154 -0.0101
23464W        W41668   6.567  11.119   3.848 -0.1796 -0.2335  0.1473
23465W        W41669   1.082   6.179   3.614  0.0664  0.0528 -0.4141
23466W        W41670  13.901  17.229  13.601  0.0608  0.0234 -0.2196
23467W        W41671  17.834  16.210   2.945  0.0043  0.0218 -0.0996
23468W        W41672  16.394  17.268   3.791 -0.0436 -0.1034  0.2486
23469W        W41673   6.183   6.461  12.663 -0.1035 -0.0596 -0.3284
23470W        W41674   3.467  13.268  13.823 -0.0125 -0.1218 -0.1374
23471W        W41675   1.671   2.677  14.411 -0.1387 -0.2539  0.1721
23472W        W41676   5.460   3.510  10.283  0.0004 -0.1867 -0.0613
23473W        W41677   0.391   8.818   1.821  0.1454  0.1457  0.2698
23474W        W41678   1.725   4.178   1.737 -0.1252 -0.0669  0.3655
23475W        W41679   3.678   5.964   4.085 -0.1321  0.0979 -0.0432
23476W        W41680   6.643  14.842   2.851  0.3375 -0.1522  0.2288
23477W        W41681  13.061   3.980   2.850 -0.2285  0.1886 -0.1674
23478W        W41682  18.358   8.390  13.378 -0.2491 -0.1834  0.1809
23479W        W41683   6.104  13.899   4.134  0.0382 -0.1435 -0.2769
23480W        W41684   6.093   9.991   4.233 -0.0081  0.0981  0.2102
23481W        W41685  17.137  15.352  15.210 -0.2283  0.0703 -0.0948
23482W        W41686   3.606   4.493   3.854 -0.1015 -0.1135  0.2461
23483W        W41687   0.667   0.510   2.208  0.1077 -0.1858  0.0441
23484W        W41688   8.857   3.217  11.947  0.1542  0.0206  0.0672
23485W        W41689   6.727   4.256  11.295 -0.2085 -0.2995  0.1701
23486W        W41690   8.624   7.734   1.549  0.1207 -0.1514 -0.0680
23487W        W41691  11.404   2.820  15.322  0.0341  0.0552  0.0377
23488W        W41692  11.915  17.644  14.026  0.0331 -0.2559 -0.0901
23489W        W41693  18.491   7.769   2.970  0.0407 -0.3987  0.1610
23490W        W41694   3.310   7.750   3.872 -0.0419  0.4597  0.1656
23491W        W41695  13.286   6.032  13.881 -0.0348 -0.2656 -0.0062
23492W        W41696   9.934   5.848   2.801  0.2621  0.1679  0.0489
23493W        W41697   7.472  16.552   0.605  0.0614  0.1094  0.2588
23494W        W41698  12.500  13.544  12.957 -0.1119  0.0625  0.2254
23495W        W41699   0.409  17.049   2.685  0.1475  0.2293  0.1539
23496W        W41700   5.602   8.980   3.260 -0.2169 -0.0205 -0.1045
23497W        W41701  11.389  12.592  13.501  0.0057 -0.0454  0.1457
23498W        W41702   4.435   7.959   0.637  0.3743 -0.2209  0.1179
23499W        W41703  10.358   1.353  13.994  0.0310 -0.0569  0.1081
23500W        W41704  17.601  16.119  11.416 -0.2154 -0.2147 -0.1694
23501W        W41705   7.047  18.299   5.097 -0.0643  0.0686  0.1257
23502W        W41706  14.700   0.604  14.546  0.2757  0.0082 -0.2661
23503W        W41707   5.403  18.129  12.538  0.1274  0.0493  0.0393
23504W        W41708   2.607   1.322   0.056 -0.3308  0.1440  0.0089
23505W        W41709  11.252   4.389  14.004  0.4018 -0.1700  0.0875
23506W        W41710   8.212  11.744   1.867  0.5550 -0.0518 -0.0894
23507W        W41711   9.947   8.029  14.292 -0.2389 -0.0322  0.0452
23508W        W41712  16.033   2.569  12.896 -0.5313  0.0662 -0.0193
23509W        W41713  12.309   7.536   3.668 -0.1758 -0.0640  0.0513
23510W        W41714  14.774   3.428  12.933 -0.2660  0.2838 -0.0847
23511W        W41715   7.179   4.840   2.565 -0.2742  0.1922  0.1122
23512W        W41716   2.657   9.918   0.277 -0.0303 -0.1310  0.0047
23513W        W41717   2.557   3.898  11.977  0.1783  0.0690 -0.1164
23514W        W41718   1.895   3.779  14.231  0.1745  0.1370  0.3017
23515W        W41719   8.295   0.570  14.357  0.2559 -0.0153 -0.3494
23516W        W41720  12.119   4.695   3.114 -0.1792 -0.0202  0.1303
23517W        W41721   2.402  14.402   3.181 -0.0465 -0.2080 -0.0467
23518W        W41722   7.196  15.337  12.201 -0.0405  0.1741 -0.0053
23519W        W41723   8.267  12.529  13.120 -0.5239 -0.0255 -0.1870
23520W        W41724   2.478  14.469  12.830  0.1150  0.1206  0.1644
23521W        W41725   2.170   7.207  11.439 -0.0221  0.2295  0.0165
23522W        W41726  12.520  11.263   1.778 -0.0311  0.2416 -0.2899
23523W        W41727  10.287  14.132  11.895  0.0305 -0.2160 -0.0548
23524W        W41728  18.454   4.142   1.602  0.1610 -0.0473 -0.2495
23525W        W41729  15.481  10.392   0.002  0.1007  0.3380 -0.2071
23526W        W41730   3.572   3.039   1.084  0.1185 -0.4010 -0.2232
23527W        W41731   7.260   8.072  11.194  0.0634 -0.2169  0.0406
23528W        W41732   8.424   1.449   2.559  0.2457 -0.0908 -0.1590
23529W        W41733  11.852   7.089  13.739 -0.0051 -0.0958 -0.2217
23530W        W41734   8.748   4.912   2.086  0.0548 -0.1216  0.2158
23531W        W41735   4.755  11.729  14.966  0.1358  0.2226 -0.3253
23532W        W41736  16.040  11.103  14.334 -0.4768  0.2343 -0.0467
23533W        W41737  11.286   4.258   3.117 -0.0478  0.1175 -0.2308
23534W        W41738  14.996  11.184   4.176 -0.1091 -0.0023 -0.1628
23535W        W41739  14.630   6.857   1.132 -0.0333 -0.4247  0.0748
23536W        W41740   1.474   7.922   0.435  0.0437  0.4778  0.3067
23537W        W41741   6.790  11.685   4.578 -0.2413 -0.1048  0.0343
23538W        W41742   5.238   0.699  14.986  0.2617 -0.0298 -0.1173
23539W        W41743  13.682  14.462  14.564  0.0178 -0.1278 -0.1708
23540W        W41744  15.714  13.866  11.571  0.2899 -0.3894  0.0894
23541W        W41745   2.604  10.123  13.131 -0.0127 -0.2383  0.0890
23542W        W41746  12.818   4.289   2.262  0.2999 -0.2860  0.2267
23543W        W41747  15.608  10.153   5.311  0.0179  0.1275  0.0254
23544W        W41748   4.652  10.291  12.192  0.1853 -0.3385  0.1560
23545W        W41749   0.464  16.516   2.780  0.0937  0.2499  0.4174
23546W        W41750  14.180  13.348  14.595  0.2243  0.0509 -0.0063
23547W        W41751   5.560  16.121   1.445  0.1035 -0.1438 -0.0834
23548W        W41752   3.183   8.773  12.192 -0.0831 -0.2685 -0.1943
23549W        W41753  17.445  14.688  15.046 -0.0251 -0.1012 -0.0067
23550W        W41754  14.319   7.919  13.303  0.3747  0.3981 -0.5015
23551W        W41755  11.871   3.913  11.541  0.2108  0.3120 -0.1354
23552W        W41756  15.677  13.273   2.560 -0.0864 -0.2097  0.0414
23553W        W41757   1.805   5.090  13.777 -0.2022 -0.0766 -0.2334
23554W        W41758  16.879  11.390  13.432  0.1864  0.0353 -0.3032
23555W        W41759   7.958   0.011   4.559  0.2059 -0.1353 -0.0795
23556W        W41760   4.445  11.466  12.606 -0.3003 -0.1464  0.2140
23557W        W41761   2.571  10.065   4.528  0.1301 -0.0935  0.1029
23558W        W41762  13.833  10.303   2.563 -0.0192  0.2866 -0.1033
23559W        W41763   0.549  18.039   3.123 -0.3359 -0.1111 -0.0242
23560W        W41764   3.605   2.644   3.230  0.0823  0.2898 -0.1323
23561W        W41765  11.874   0.456   4.519  0.1493  0.3405 -0.5013
23562W        W41766   3.925   0.877   4.597  0.1874  0.0641  0.2282
23563W        W41767  10.503  12.839   1.589  0.1617 -0.0641 -0.2785
23564W        W41768   7.027  12.325   3.658  0.1832  0.1065  0.2038
23565W        W41769   5.305   2.264  12.609  0.0800  0.3226  0.0242
23566W        W41770   5.752  16.116   4.573 -0.1681  0.0395 -0.2967
23567W        W41771   2.325   9.447   3.053 -0.2315 -0.0911 -0.0327
23568W        W41772   5.239  10.783  14.539  0.1056 -0.0018 -0.0823
23569W        W41773  18.448  14.930   4.658  0.1000 -0.1157  0.2124
23570W        W41774  11.191   8.030   0.191 -0.1091  0.3993 -0.0672
23571W        W41775  10.680  16.258  12.019  0.0135 -0.1309  0.1361
23572W        W41776  13.528   9.446   3.053 -0.2301  0.0277  0.1391
23573W        W41777   7.410  13.595  10.923  0.1275 -0.0775  0.1314
23574W        W41778   1.142   3.619   1.750  0.0921  0.1486 -0.2430
23575W        W41779  11.601  14.655  13.185  0.0785 -0.2066 -0.1674
23576W        W41780  15.792   3.112  14.662 -0.1189  0.1293  0.1673
23577W        W41781   6.022  11.798  15.449  0.0467 -0.0957  0.0770
23578W        W41782  10.120  13.605  14.383 -0.0685  0.1910 -0.0185
23579W        W41783   2.797  17.942  13.887  0.0951  0.3852  0.1764
23580W        W41784   6.633   7.985  14.962 -0.0220  0.2710 -0.2468
23581W        W41785   0.712   0.688   2.948  0.0609  0.3887 -0.0657
23582W        W41786  17.726   3.333  11.418 -0.1651 -0.4147  0.1498
23583W        W41787  13.538  15.219  14.965  0.1637 -0.4501 -0.0410
23584W        W41788  13.468  11.031   1.336 -0.0068 -0.2734  0.2166
23585W        W41789   5.296  17.960  14.961 -0.1542 -0.4217 -0.1079
23586W        W41790   8.943  10.521   0.427  0.3589 -0.0606  0.1989
23587W        W41791   6.843   3.258  13.425 -0.0637  0.0692 -0.2716
23588W        W41792   1.796  16.757  12.764  0.2956 -0.2486  0.2712
23589W        W41793   1.700   9.182  13.617  0.0727  0.1470 -0.0721
23590W        W41794   1.103   3.536  10.445  0.1252 -0.2563 -0.1086
23591W        W41795   6.378   5.140  14.315  0.2595 -0.1558 -0.1714
23592W        W41796  10.831  15.016   2.407 -0.0030  0.3132 -0.0704
23593W        W41797   2.341   5.668   3.599 -0.0670 -0.1070 -0.1966
23594W        W41798   4.762   2.411  11.640 -0.1268 -0.3472  0.1955
23595W        W41799   5.731   0.778   0.830 -0.0708 -0.0371 -0.2011
23596W        W41800   8.499   9.289  13.933 -0.2547  0.1037 -0.2824
23597W        W41801   6.357  14.177  11.063  0.0799  0.0701  0.0913
23598W        W41802  14.911   7.794   3.571 -0.0740  0.0391 -0.0585
23599W        W41803   9.537   6.339  13.766  0.2781  0.0829 -0.0356
23600W        W41804  10.548  16.744   2.529 -0.0641 -0.1085 -0.0554
23601W        W41805  13.438  16.661   1.580 -0.1390  0.1055 -0.1230
23602W        W41806   9.139   1.215  13.567  0.0296 -0.0942 -0.3877
23603W        W41807  12.350  14.961  13.992  0.0578 -0.1669  0.0612
23604W        W41808  13.177  18.536   3.433  0.2581  0.2969 -0.0431
23605W        W41809   3.732  13.562  13.538 -0.0811  0.0909  0.1101
23606W        W41810  11.919   2.224  10.752  0.0392  0.0638  0.0613
23607W        W41811   9.175  18.014   4.204  0.1791  0.2010  0.0552
23608W        W41812   1.549   4.317  11.912 -0.0077 -0.1092 -0.0086
23609W        W41813   3.974   7.470  10.383  0.0189 -0.0307 -0.0576
23610W        W41814   4.935   5.958  15.306  0.1472  0.2407 -0.1212
23611W        W41815  16.043  11.012   2.981 -0.3581 -0.1110 -0.1994
23612W        W41816  14.959   9.208   3.164  0.0819  0.0575  0.2214
23613W        W41817   6.417   9.371  14.166 -0.2041  0.0749  0.0383
23614W        W41818  13.476  16.697  14.996 -0.0248  0.2193 -0.1312
23615W        W41819   0.169  16.677   4.585 -0.3707  0.1318 -0.3629
23616W        W41820   8.113  12.773  13.801 -0.0522 -0.0988  0.1116
23617W        W41821   7.114  12.416  12.862  0.1922  0.0428  0.1484
23618W        W41822   4.564   4.417  12.840  0.1484 -0.1784  0.2802
23619W        W41823   5.030   9.088  14.524 -0.1773  0.0152  0.2233
23620W        W41824  16.717   5.666   4.319  0.2171  0.1984  0.1653
23621W        W41825   0.861   0.227   1.116 -0.3364 -0.0989  0.2496
23622W        W41826   6.025  14.464  13.342 -0.1660  0.2155  0.1045
23623W        W41827  16.755   7.481  13.967  0.1843 -0.3102  0.2077
23624W        W41828  14.372   8.775  12.412  0.0121 -0.1547 -0.2048
23625W        W41829   7.619   8.525   3.188 -0.0604  0.0209  0.0134
23626W        W41830  16.274  17.043  14.605 -0.4075 -0.2502  0.2050
23627W        W41831   2.960   9.156   4.170 -0.0659 -0.1894  0.1115
23628W        W41832  17.422   6.211   1.893 -0.0886 -0.2314 -0.1661
23629W        W41833  11.197  15.746   1.280 -0.0921  0.1069 -0.0496
23630W        W41834   1.857   5.588  11.818  0.1095 -0.1263  0.0065
23631W        W41835   2.574   4.146  15.341 -0.1085  0.1329 -0.0842
23632W        W41836   6.523   2.945  12.102  0.1916  0.0101 -0.0262
23633W        W41837  13.329   3.827  15.026  0.1547 -0.1609 -0.1660
23634W        W41838   1.280   3.238   1.412  0.0660 -0.0751 -0.2583
23635W        W41839  14.114   1.253   4.411 -0.0631  0.1081 -0.2210
23636W        W41840   9.368  17.869   3.394  0.0048 -0.3270 -0.0474
23637W        W41841  12.271  16.395  14.951 -0.0978 -0.1987 -0.0049
23638W        W41842   6.823  10.022   3.383 -0.0834 -0.0781 -0.1540
23639W        W41843   9.949   4.209  14.862 -0.2704  0.0055  0.0655
23640W        W41844   0.895   2.907   3.460 -0.0635 -0.1818 -0.0962
23641W        W41845  15.000  13.507  14.033  0.2366 -0.1707 -0.0184
23642W        W41846  11.490   4.030   2.299 -0.1042 -0.3000  0.1442
23643W        W41847   1.132   7.518   3.871  0.3495 -0.4266  0.4904
23644W        W41848  15.822  14.373  11.585  0.0679  0.2597 -0.1309
23645W        W41849  17.517  11.118   5.691 -0.0820 -0.0546  0.0866
23646W        W41850   4.597   7.659   2.111 -0.1556  0.0027 -0.0240
23647W        W41851   4.494  13.919   3.388 -0.0164 -0.2265 -0.0430
23648W        W41852  12.743   5.711  10.800 -0.0398 -0.0176 -0.0636
23649W        W41853   3.550   3.925   3.741  0.1029  0.2298  0.0427
23650W        W41854   0.606  15.706   0.506 -0.1097 -0.0387 -0.0636
23651W        W41855  10.525   0.920  13.868 -0.0709 -0.0721 -0.3455
23652W        W41856   5.157  17.547  13.818 -0.1553 -0.0069  0.1589
23653W        W41857   5.639   6.319  14.706 -0.0343  0.1171  0.1708
23654W        W41858   6.881   1.611   1.062 -0.1034  0.1221 -0.1810
23655W        W41859  17.164  17.003   0.213  0.0162  0.1810  0.3443
23656W        W41860  10.437  12.868  14.818 -0.3327 -0.0648  0.0578
23657W        W41861   6.177   3.199  11.097  0.0481  0.0566 -0.1966
23658W        W41862   2.327   8.544  15.152  0.0466 -0.2749 -0.0780
23659W        W41863   1.937  11.854   1.833 -0.3889  0.0864  0.0052
23660W        W41864  15.328  16.244  12.877 -0.2942  0.1350 -0.2896
23661W        W41865   3.214  10.943   3.599 -0.1408 -0.0518 -0.0238
23662W        W41866   0.389  11.374  10.569 -0.0878  0.3244  0.0238
23663W        W41867   7.830  11.647  11.755  0.2732  0.1556 -0.4150
23664W        W41868   2.631   6.395  14.404 -0.1637 -0.4756 -0.0313
23665W        W41869   9.362  16.977   3.402  0.0461 -0.0355 -0.1317
23666W        W41870   3.896   2.265   3.590  0.2009 -0.2001  0.1698
23667W        W41871  17.706  10.656  12.114 -0.0926 -0.1818  0.1933
23668W        W41872  11.563  14.776   3.184 -0.1183 -0.0893  0.2103
23669W        W41873  13.836   8.114  15.377  0.3235  0.1568 -0.0745
23670W        W41874  15.814   0.363  12.092  0.4481  0.1534  0.0414
23671W        W41875   1.473  13.256  13.781 -0.0867  0.2705 -0.0578
23672W        W41876  13.906  13.042   0.749  0.1029 -0.2698  0.1460
23673W        W41877   3.404   3.173  10.871 -0.2620 -0.0373 -0.1521
23674W        W41878   9.420   2.833  12.861  0.0851  0.0484 -0.0714
23675W        W41879  17.031   4.026  15.160 -0.2561  0.1773 -0.3728
23676W        W41880  10.818   5.193   3.099  0.0388 -0.0143  0.1487
23677W        W41881   0.691   7.948  14.515  0.0105 -0.1502  0.1118
23678W        W41882  14.196  17.071   1.398 -0.1510  0.2102  0.0777
23679W        W41883   5.549   2.994  10.339 -0.2598  0.0922  0.0841
23680W        W41884  10.797  16.393  12.658 -0.0192  0.2605 -0.1989
23681W        W41885  17.417  15.665  14.237  0.0164  0.0600 -0.0552
23682W        W41886  10.059   1.963  12.073  0.1099  0.1177 -0.0483
23683W        W41887   2.432   3.356  12.001  0.2465 -0.0660 -0.0254
23684W        W41888   8.176  11.608   3.991  0.3061 -0.0387  0.0029
23685W        W41889  15.897   4.952  14.810 -0.1206  0.2899 -0.1559
23686W        W41890   0.285   9.705  13.061 -0.2067 -0.0345  0.4080
23687W        W41891   7.427  10.302  14.020 -0.3299  0.1078 -0.0909
23688W        W41892   6.706   3.527   4.723  0.0212  0.1135 -0.1929
23689W        W41893  16.148   3.378   1.530 -0.0794 -0.1758  0.1411
23690W        W41894  12.912   7.796  10.040  0.0702 -0.3625 -0.1493
23691W        W41895  16.664  11.525   0.983  0.1619 -0.0302 -0.1368
23692W        W41896  18.440  10.512  14.553  0.2799  0.1100  0.0844
23693W        W41897   7.146   9.848  12.233 -0.5472  0.1062 -0.0553
23694W        W41898   8.292  17.668   4.647  0.3277  0.1195  0.5894
23695W        W41899   8.047  11.854   4.426  0.0935  0.1103 -0.0255
23696W        W41900  17.255  18.399   1.477 -0.1278  0.3116 -0.2313
23697W        W41901   0.258   9.163  13.942  0.1558  0.0796 -0.0801
23698W        W41902  13.019  16.153   2.183 -0.0910  0.2001  0.4483
23699W        W41903   3.410  15.820   4.117  0.3446  0.3205 -0.3520
23700W        W41904   8.171  14.511   4.254  0.4178 -0.3049 -0.3005
23701W        W41905   7.670   1.129   5.384 -0.1824 -0.2299 -0.0531
23702W        W41906   9.519   1.517   5.725  0.3404 -0.3294  0.1068
23703W        W41907   0.113   6.120   4.162 -0.2841 -0.1200  0.1901
23704W        W41908  10.761   1.587   0.537  0.1225 -0.1602 -0.2428
23705W        W41909   5.407   4.663   0.566 -0.1110 -0.0867  0.2046
23706W        W41910   2.386  13.813   3.329  0.1118  0.6056  0.1535
23707W        W41911   9.928  17.511   9.878 -0.3371 -0.0097 -0.2129
23708W        W41912  11.684  11.603   2.404  0.3088 -0.0354 -0.2533
23709W        W41913   7.543  16.632  15.259  0.0773 -0.0836 -0.2662
23710W        W41914  13.103  17.026  13.838  0.5134 -0.2083  0.1130
23711W        W41915  15.963   7.079  12.015  0.0468  0.1985  0.2373
23712W        W41916   4.414  11.330   3.507  0.0703  0.2674  0.1445
23713W        W41917   6.987  11.853  14.164  0.0196 -0.1012 -0.3261
23714W        W41918   2.689   0.302   4.404 -0.0085  0.2854  0.4266
23715W        W41919   2.871   7.568   1.665  0.2237  0.2635  0.1131
23716W        W41920   9.707  17.447  10.892 -0.1010  0.0754  0.0178
23717W        W41921   9.826   8.116   1.055 -0.1295 -0.1762  0.0979
23718W        W41922   8.205  16.065  11.339  0.1195  0.1060  0.0584
23719W        W41923   4.240   9.100  13.148 -0.1020 -0.0494  0.2428
23720W        W41924  10.023   8.528  13.377 -0.0178  0.0637  0.0316
23721W        W41925  14.907  13.647   1.003 -0.3140 -0.1940  0.0727
23722W        W41926  15.808   3.479   2.222  0.0740  0.2871 -0.0423
23723W        W41927  18.600   1.585   3.891 -0.2782  0.1048  0.0575
23724W        W41928   4.712   5.806  13.493  0.2797  0.2211  0.0817
23725W        W41929  16.353  14.314   3.062 -0.1719 -0.4267  0.3035
23726W        W41930  17.200   3.239  13.740  0.2778  0.0875  0.0717
23727W        W41931  13.007   7.970  14.005  0.0807  0.1798  0.0278
23728W        W41932   6.922   7.728   4.222 -0.0878 -0.0820  0.1684
23729W        W41933   8.628  18.228  12.695 -0.0912  0.2756 -0.2124
23730W        W41934  12.587   9.855  11.506 -0.0684 -0.0443  0.2766
23731W        W41935  13.803  18.221   0.832  0.0194 -0.0678  0.0488
23732W        W41936   5.655   4.708  12.738  0.0758 -0.0344 -0.1088
23733W        W41937  17.503  15.847   2.919 -0.0989  0.2517  0.0251
23734W        W41938  17.216   8.425  12.810 -0.1871 -0.0512 -0.1010
23735W        W41939   4.336   1.680  10.757  0.0068 -0.0098 -0.1217
23736W        W41940  12.330  10.359   4.222  0.0843  0.1401  0.0654
23737W        W41941   4.806   8.157  12.320  0.0307  0.3467  0.1298
23738W        W41942  10.881  10.477   5.167 -0.0218  0.0303  0.4762
23739W        W41943  15.314   6.233  14.018  0.1539  0.1823  0.0896
23740W        W41944   8.721  17.199  15.319 -0.1272  0.0141  0.2655
23741W        W41945  15.875   8.345  13.420 -0.2069 -0.1949  0.2017
23742W        W41946  16.354   7.566   2.771 -0.0091  0.2277  0.1606
23743W        W41947  18.265  17.078   2.052 -0.1317 -0.0681  0.1048
23744W        W41948  10.545  12.159   2.326  0.0660 -0.0094 -0.1293
23745W        W41949   2.588   2.077   1.907  0.1774  0.0410  0.0531
23746W        W41950   7.375   9.515   3.737  0.2800 -0.1715 -0.0053
23747W        W41951   4.073   7.124   0.781  0.2122  0.0781 -0.2046
23748W        W41952  14.103   4.980  13.331 -0.1290 -0.2648  0.0976
23749W        W41953  18.183   5.206  14.784 -0.2172  0.0296  0.1753
23750W        W41954  13.862  10.808  12.405  0.0700  0.2632 -0.0568
23751W        W41955   0.170  13.550   3.522 -0.0742  0.0771 -0.0355
23752W        W41956   6.880  14.005   4.424 -0.2066  0.0960 -0.2979
23753W        W41957  18.566  10.529  12.525  0.1469 -0.0048  0.0003
23754W        W41958  17.109  13.880   1.237  0.1314 -0.1564  0.0679
23755W        W41959   7.356   7.165   0.570  0.1204 -0.5478 -0.2550
23756W        W41960  10.284   9.835  10.896  0.1661  0.0925 -0.0058
23757W        W41961   4.413   7.128   0.345  0.3938  0.2379  0.0756
23758W        W41962  17.182  12.198  13.459 -0.0570 -0.0413 -0.1765
23759W        W41963   7.400   5.523  12.793  0.1757  0.2728 -0.1362
23760W        W41964   5.497   0.257   2.259 -0.0479 -0.2351 -0.2315
23761W        W41965   5.355   3.412   3.788 -0.0447  0.1054  0.2939
23762W        W41966  17.675  13.981  11.718  0.0398 -0.1156  0.0863
23763W        W41967   8.710  13.719  13.059  0.0660  0.1790  0.0734
23764W        W41968   6.673  18.067  13.450  0.0756 -0.0060 -0.0832
23765W        W41969  11.231   9.699   2.728  0.2325 -0.2936  0.0740
23766W        W41970  13.990   6.460   3.603  0.0081  0.0023  0.0400
23767W        W41971   3.164   3.590   2.075  0.4673  0.1407 -0.2383
23768W        W41972   1.800  10.457  13.656 -0.0437 -0.0109  0.1024
23769W        W41973   3.578  12.448  11.350 -0.2863 -0.2940  0.0730
23770W        W41974   7.121  11.359  12.231 -0.1766  0.2036  0.1216
23771W        W41975   2.324   7.871   4.681  0.3084 -0.1660 -0.0406
23772W        W41976   9.032   4.257  12.114  0.2106 -0.0533  0.0059
23773W        W41977   4.025  14.722   0.476 -0.2548 -0.2547  0.0056
23774W        W41978   9.434   3.788  12.952 -0.0542  0.3304  0.2688
23775W        W41979   2.163   7.342  13.455  0.0445 -0.0730  0.0403
23776W        W41980   5.525   3.837   2.454  0.2022 -0.0008  0.0328
23777W        W41981  15.100   0.774  12.797 -0.1752  0.1187  0.0241
23778W        W41982  10.390   4.050  12.811  0.0464  0.0268  0.1433
23779W        W41983   1.925  15.283   4.590 -0.0730 -0.0810 -0.0361
23780W        W41984   5.258  12.282   1.599 -0.3030  0.0178 -0.2617
23781W        W41985   2.649   8.205   3.325 -0.1005 -0.1045  0.1050
23782W        W41986   1.277  12.658   3.270 -0.3675  0.1912  0.2152
23783W        W41987   3.096  11.170  12.311  0.0083  0.1939  0.0162
23784W        W41988  11.629  18.385   3.204 -0.1271 -0.0060  0.0134
23785W        W41989  16.866  13.856   1.699  0.2313 -0.0253  0.1591
23786W        W41990  14.142   7.986  12.221 -0.1681  0.1390 -0.2040
23787W        W41991  16.645  13.940  13.550  0.3557 -0.1653  0.0799
23788W        W41992  18.392   3.549   3.936  0.1074 -0.0352  0.1007
23789W        W41993   9.680  10.537   2.763  0.0843 -0.2781  0.0437
23790W        W41994  13.709   3.023  11.664  0.0450 -0.1633 -0.3895
23791W        W41995   1.700  10.400  13.129 -0.1407 -0.1654 -0.0026
23792W        W41996   1.461   0.129   1.718 -0.1310  0.1315 -0.1503
23793W        W41997   5.597   2.938   0.676 -0.1954 -0.1496  0.2088
23794W        W41998   6.778  11.023   0.997  0.1859 -0.0081  0.1644
23795W        W41999  10.464   2.101  14.595 -0.1213 -0.1372  0.0531
23796W        W42000   6.869  14.789   3.309  0.0069 -0.2698  0.2364
23797W        W42001   1.306   6.966  14.874  0.1388  0.0581  0.0719
23798W        W42002   9.147   4.238   4.492 -0.2131 -0.0923  0.0598
23799W        W42003  13.767  14.511  13.232  0.1407 -0.0505 -0.1367
23800W        W42004   5.133  18.156   1.315  0.1601 -0.1090  0.2099
23801W        W42005   2.724   2.892  14.617  0.0775 -0.1901 -0.3428
23802W        W42006  12.075   1.100   0.254 -0.0893  0.2046 -0.0502
23803W        W42007   3.867   6.142  13.347  0.1510  0.2728  0.0432
23804W        W42008  10.767  13.650   2.039  0.0816  0.2398 -0.0609
23805W        W42009  14.380  18.311   3.776 -0.0287 -0.0572 -0.1788
23806W        W42010   2.198   5.857   2.387  0.0248  0.1420 -0.1738
23807W        W42011   6.799   0.232   3.839 -0.0745 -0.0461 -0.0811
23808W        W42012   3.724   6.869  11.558 -0.2292 -0.0726  0.1916
23809W        W42013   7.031   8.523   5.338 -0.0921 -0.3657 -0.1203
23810W        W42014   2.961   7.247   0.538  0.3646 -0.1507  0.1484
23811W        W42015  16.339  11.590  14.195 -0.2278  0.0922 -0.2239
23812W        W42016  17.370   5.770   2.309 -0.4091 -0.0506  0.3982
23813W        W42017   4.033   6.594  13.960 -0.2721  0.1034 -0.1430
23814W        W42018  11.875   0.019   1.893  0.2128 -0.0603  0.0452
23815W        W42019   6.734  13.243   3.507 -0.0020  0.1670  0.2337
23816W        W42020  15.023   1.413  10.944 -0.1219 -0.1243 -0.0215
23817W        W42021  12.119  12.021  14.765 -0.0712 -0.2253  0.1189
23818W        W42022   1.533  14.204   1.854  0.0758  0.0555  0.4340
23819W        W42023   7.446   3.505  12.096 -0.2827  0.1450  0.1611
23820W        W42024  15.034   2.461   0.827  0.2607  0.0048 -0.0093
23821W        W42025   9.539   0.252   2.514 -0.3623  0.2533 -0.0777
23822W        W42026  15.137   6.784  10.340 -0.0607  0.3502  0.0815
23823W        W42027   0.745  12.801  11.232 -0.2138  0.2262  0.1184
23824W        W42028  10.777   0.875  14.888  0.0296  0.1002  0.0649
23825W        W42029  10.791   1.391   4.378  0.5146  0.1308  0.1413
23826W        W42030  15.064   3.610   1.802  0.2589  0.4109 -0.2577
23827W        W42031  16.592   5.119   2.733  0.2807  0.1660  0.1991
23828W        W42032   6.586   5.544  14.671  0.0736  0.0138 -0.1820
23829W        W42033   0.158   0.966   2.571  0.4098 -0.3837  0.4050
23830W        W42034  16.630  10.366  14.728  0.1172 -0.3421  0.0829
23831W        W42035  17.444   3.294  15.151  0.0876  0.1292  0.1294
23832W        W42036   4.703   2.871   1.392  0.0244  0.1629  0.4014
23833W        W42037  13.070  18.202  11.999 -0.3386  0.0687 -0.0666
23834W        W42038  18.295   2.892  15.197  0.3001 -0.4335 -0.0150
23835W        W42039  11.138   7.706   3.167  0.1886  0.3586 -0.0806
23836W        W42040  12.504  14.108  15.438 -0.4669 -0.0756 -0.1240
23837W        W42041   0.176  16.770   4.103 -0.0033 -0.0804  0.1910
23838W        W42042   4.382  10.090  10.915  0.2083 -0.1784 -0.3659
23839W        W42043  17.172   4.067  11.240  0.1544  0.0401 -0.0622
23840W        W42044  13.841  13.344  12.979  0.1076 -0.0992  0.1395
23841W        W42045   4.319  10.868   3.579  0.1167 -0.0093  0.3405
23842W        W42046   5.059  16.094  13.532  0.3866  0.0825  0.2226
23843W        W42047   1.687  11.450  10.738  0.1666 -0.1858 -0.3049
23844W        W42048  14.188   9.460   2.330  0.0019 -0.0156  0.0597
23845W        W42049   9.636   9.309  12.854 -0.2445  0.3314 -0.0173
23846W        W42050   8.590  16.038  11.030  0.1602  0.2845  0.0930
23847W        W42051  13.329   3.567   2.750  0.0934  0.1206 -0.0672
23848W        W42052  18.171   2.129  12.646  0.0007  0.1866 -0.1360
23849W        W42053   8.447   7.846   4.423 -0.0937  0.5509 -0.3095
23850W        W42054   6.955   1.155   2.095 -0.1117  0.2160  0.2402
23851W        W42055   1.495  15.749   0.357 -0.0248 -0.0413 -0.2150
23852W        W42056  14.616   5.956  15.009  0.1678  0.0179  0.0813
23853W        W42057   2.914   5.131  11.781 -0.1004 -0.3365 -0.2069
23854W        W42058  12.792   8.791   1.897  0.0940  0.0882 -0.1090
23855W        W42059   4.210  14.394  13.995  0.2117 -0.1074  0.1332
23856W        W42060  12.094   0.420  10.494  0.2673 -0.0490  0.0434
23857W        W42061   5.513  11.583  10.474 -0.1349 -0.0127 -0.3406
23858W        W42062   2.973   8.405   0.376  0.1179  0.4001  0.0568
23859W        W42063  10.155  11.957  13.490  0.0169 -0.0986 -0.1998
23860W        W42064   8.694  12.945   0.155  0.0025 -0.0687  0.4765
23861W        W42065   1.698   7.291  10.760  0.3543 -0.0087  0.0198
23862W        W42066  14.808   1.290  14.629 -0.0183 -0.0715  0.2087
23863W        W42067  18.569  14.418   0.337 -0.1320 -0.0714 -0.0667
23864W        W42068  10.440   0.454  10.825  0.0548  0.0326  0.0060
23865W        W42069   6.740   9.888  14.758  0.0260  0.1707 -0.1366
23866W        W42070  10.124   1.411  12.541 -0.1681 -0.4101 -0.0102
23867W        W42071  12.566  16.586  11.222  0.0609  0.0385 -0.1694
23868W        W42072   5.093   2.742  11.440  0.2869  0.1095  0.0392
23869W        W42073  15.323  12.725   4.661 -0.2714 -0.1352  0.1991
23870W        W42074   0.347   2.412   1.329 -0.0063  0.4030 -0.0465
23871W        W42075   4.181  12.804   2.768 -0.0386  0.0098  0.1929
23872W        W42076   8.285   6.774   0.305 -0.0011 -0.1110 -0.1426
23873W        W42077  11.034   8.453  10.841 -0.0011 -0.0629 -0.0171
23874W        W42078   7.459   7.520  13.947  0.2606  0.1605  0.1686
23875W        W42079   2.345  15.945   3.652  0.2393  0.0245  0.1022
23876W        W42080  14.987   9.405  11.850 -0.0710  0.1344 -0.0098
23877W        W42081   6.033  16.210  13.537 -0.1563  0.0716 -0.3063
23878W        W42082   0.084  17.148   2.289 -0.1379  0.1851 -0.1455
23879W        W42083  13.538  10.883  14.517 -0.2136 -0.0647 -0.0676
23880W        W42084   9.126   4.054   1.397 -0.2734  0.0793  0.0820
23881W        W42085   0.891  17.208  15.182  0.1584  0.0722 -0.0879
23882W        W42086  10.546   8.157  10.337  0.0417  0.3651  0.4528
23883W        W42087  17.870   9.285   1.681  0.0984 -0.1502 -0.2045
23884W        W42088   6.082   5.442   4.168 -0.0529 -0.0769 -0.1208
23885W        W42089  18.020  18.226  10.967  0.1825 -0.1242  0.2378
23886W        W42090   6.393   7.735  11.743  0.2227  0.3143  0.4390
23887W        W42091  11.015   2.489  12.891  0.2797  0.1061  0.2147
23888W        W42092  11.338   9.188   0.946 -0.0483 -0.0769 -0.0743
23889W        W42093  13.985  11.735  14.514 -0.0176 -0.0074 -0.0019
23890W        W42094  10.778  17.702   4.308 -0.0166  0.2501 -0.3116
23891W        W42095   7.714   8.619   4.187 -0.2158 -0.0152  0.0622
23892W        W42096  18.535   5.249   4.585  0.0623 -0.0368  0.0279
23893W        W42097   6.406  14.077   3.746  0.1018  0.0186  0.1034
23894W        W42098  18.179   0.225   2.439 -0.5127 -0.0716  0.0160
23895W        W42099   1.025  16.111  12.678 -0.4518 -0.2954 -0.1263
23896W        W42100  10.706   2.969  13.904 -0.1549 -0.0141  0.0523
23897W        W42101   2.293   5.639   2.833  0.0595  0.0683  0.4247
23898W        W42102  17.069  17.262  13.847  0.1281  0.1250  0.2128
23899W        W42103   4.648  17.632   0.826 -0.3538  0.1278  0.2046
23900W        W42104   8.427  17.025   3.265 -0.1057  0.2410  0.1168
23901W        W42105  11.174   9.039   4.321  0.2664 -0.1169  0.0148
23902W        W42106  14.688  16.437   2.426 -0.0835  0.2008 -0.1781
23903W        W42107  15.314  17.036  13.306 -0.2188  0.2300 -0.0160
23904W        W42108   8.201  18.365  11.472  0.2535 -0.0258 -0.0558
23905W        W42109   6.496   6.935  12.492 -0.0659 -0.1468 -0.1374
23906W        W42110  16.001  10.970  13.856  0.0201  0.0419 -0.3226
23907W        W42111  15.799  18.511  13.806 -0.1919 -0.2727  0.0485
23908W        W42112   6.726   6.502  11.689  0.2583  0.0697  0.1570
23909W        W42113   5.352   7.850   2.389 -0.2842  0.0846 -0.0353
23910W        W42114   6.242   8.951   1.465  0.1510 -0.0622 -0.5036
23911W        W42115  11.623  14.383   0.946  0.2032  0.0253 -0.0915
23912W        W42116   9.640   4.502   1.158 -0.3406 -0.2129  0.1686
23913W        W42117   5.213  17.162  11.362  0.0239  0.4534  0.1646
23914W        W42118  17.277  14.494   2.987  0.2620 -0.4410  0.1303
23915W        W42119   4.489   9.840  13.603  0.1491 -0.0004 -0.1243
23916W        W42120   3.995  15.803   4.765  0.0632 -0.1314 -0.1229
23917W        W42121  10.400   9.592  12.240  0.0575 -0.1427  0.3200
23918W        W42122  13.571   8.566  15.031 -0.4779  0.0709  0.1321
23919W        W42123   0.740  17.757   0.501 -0.0508 -0.1297  0.1345
23920W        W42124  18.344   9.665  13.023  0.1770 -0.1101 -0.2376
23921W        W42125  10.254   1.637   3.284  0.3000 -0.1499 -0.0019
23922W        W42126   1.910   7.125   0.425 -0.1353 -0.2036 -0.0042
23923W        W42127  12.746  18.374  12.415  0.2795 -0.1559 -0.1710
23924W        W42128  16.928  12.019   4.688 -0.2314  0.3104 -0.0565
23925W        W42129   3.338   9.147  14.141  0.3379  0.1104  0.0848
23926W        W42130   7.036   6.144   1.430  0.2232 -0.2117 -0.1218
23927W        W42131   4.162   2.189  15.054 -0.0024 -0.2797 -0.0353
23928W        W42132  15.810  10.554  11.588 -0.1708  0.0938  0.1580
23929W        W42133  13.595   5.937  14.835  0.1455 -0.0277  0.1374
23930W        W42134   9.309   1.970   3.210 -0.1402 -0.1021  0.1155
23931W        W42135  14.464   6.995   5.197  0.3523 -0.1822 -0.0242
23932W        W42136  15.327  14.769  13.165  0.0011  0.2361  0.0510
23933W        W42137  12.737   7.194   3.889 -0.2918  0.0567 -0.3093
23934W        W42138   1.609   1.985   2.178  0.0742 -0.3673 -0.1468
23935W        W42139  18.038  10.924   2.816  0.0769 -0.1778  0.0968
23936W        W42140   4.979  15.144   1.068  0.1474 -0.2560  0.3212
23937W        W42141   8.107  12.027   2.784  0.1183 -0.0862  0.0295
23938W        W42142   2.548  15.970  11.670  0.3663  0.4672 -0.0420
23939W        W42143   7.014   9.291  11.390 -0.1032  0.2735  0.2403
23940W        W42144  16.398   1.935   4.022 -0.2279  0.2582  0.0524
23941W        W42145  11.352   0.878   3.917 -0.1202  0.1211  0.0355
23942W        W42146   1.091   6.649  12.185 -0.2051  0.0262 -0.0819
23943W        W42147  14.839   0.557  13.240 -0.1316 -0.0669  0.2201
23944W        W42148  12.232   8.560   0.375  0.1378  0.0248 -0.1167
23945W        W42149   9.276  10.474   1.647 -0.0263 -0.0604  0.0313
23946W        W42150   7.318  14.865   4.795 -0.0395  0.0226  0.1517
23947W        W42151  18.470   1.204  15.009  0.0309 -0.0826 -0.1676
23948W        W42152   1.712  11.581   4.575  0.1270  0.3041 -0.1635
23949W        W42153   3.917   0.400  12.690  0.0238  0.1604 -0.1448
23950W        W42154   3.756  14.139   3.779 -0.1423  0.1155 -0.0330
23951W        W42155   7.601  16.062   3.378  0.2691  0.1114  0.0352
23952W        W42156   5.256  13.572  15.264  0.0086  0.1990 -0.1574
23953W        W42157  10.269   6.324   1.151  0.1961 -0.0859  0.0371
23954W        W42158   1.398   9.922   2.765  0.0152  0.0283  0.0604
23955W        W42159  17.145  11.873  14.107 -0.1062  0.2206  0.1455
23956W        W42160  15.864  11.352  11.847  0.1274  0.0058 -0.0358
23957W        W42161  11.945  11.778   3.297  0.1896 -0.2635  0.0759
23958W        W42162   6.240  18.087   3.478 -0.0333  0.1507  0.1943
23959W        W42163  14.384   9.601   0.982 -0.2974 -0.0729  0.0988
23960W        W42164  14.150  17.706   2.491  0.2146  0.0743 -0.1899
23961W        W42165   4.453  15.283   0.270  0.4346  0.1999  0.1614
23962W        W42166   6.211   4.131  11.208 -0.1714  0.1153 -0.1448
23963W        W42167  16.656  15.860  14.704  0.1566 -0.0838 -0.2445
23964W        W42168  17.276  12.329   0.907  0.1924 -0.3259 -0.1981
23965W        W42169  16.707  18.202  13.523  0.1786 -0.1668 -0.1519
23966W        W42170   3.429   7.101   4.510 -0.4464  0.0007 -0.1888
23967W        W42171  12.704   5.084  15.090 -0.1331  0.0155 -0.0364
23968W        W42172  16.887  16.885  11.728 -0.3421 -0.0555 -0.0645
23969W        W42173  10.913   2.419   3.657 -0.0422  0.1420 -0.2058
23970W        W42174   1.506   7.372   2.209  0.0643  0.2578  0.0935
23971W        W42175  14.540  14.458  14.102  0.0341  0.3826  0.3072
23972W        W42176  17.447  17.589  13.795  0.2471  0.0293  0.0869
23973W        W42177  17.164  15.512   3.168  0.4250 -0.2666 -0.1215
23974W        W42178   2.444   6.240   3.563  0.0872  0.1257 -0.0772
23975W        W42179   1.329   5.414   3.907 -0.3584 -0.2156  0.3534
23976W        W42180  12.498   6.656  12.784  0.4900 -0.0434  0.0182
23977W        W42181  15.945  13.446  12.751  0.2158 -0.1579  0.0552
23978W        W42182  16.498  10.679  11.280  0.0089  0.1195  0.3086
23979W        W42183   7.464  14.020  14.204 -0.0588 -0.0881  0.0458
23980W        W42184  16.915   8.711   3.312 -0.2478 -0.2863 -0.0630
23981W        W42185   2.201  18.222  12.214 -0.1030 -0.1343  0.0379
23982W        W42186   9.499  10.478   1.177  0.1830 -0.0782  0.0325
23983W        W42187   8.318  11.216   2.669 -0.1739  0.1352 -0.2781
23984W        W42188  12.498   5.101  10.950  0.1625 -0.0171  0.2137
23985W        W42189  16.257  18.449  13.334  0.1766 -0.0738  0.0643
23986W        W42190   3.185  13.521  11.392 -0.2298  0.2356  0.0195
23987W        W42191   2.967  11.500   1.299  0.3047 -0.2329  0.0449
23988W        W42192  14.297  16.330  14.517 -0.4300 -0.0611  0.3123
23989W        W42193   1.774  15.658   3.012 -0.2785  0.2439 -0.1648
23990W        W42194   4.923  11.753   9.994  0.1222  0.3778  0.0315
23991W        W42195  10.554  14.827  12.655  0.1527 -0.1300  0.1819
23992W        W42196  11.554   3.833  12.554 -0.2848  0.2736  0.0766
23993W        W42197   1.945   8.099  15.399  0.0965 -0.1899  0.0127
23994W        W42198  10.755  14.959   0.153 -0.0719  0.0610 -0.0332
23995W        W42199   3.964   2.250   0.917  0.0420  0.1024  0.2038
23996W        W42200  15.964   6.631   2.458 -0.0474  0.2338 -0.1457
23997W        W42201  10.683   7.828  15.006 -0.2738  0.1196 -0.0277
23998W        W42202  15.759   2.538  13.320  0.1439  0.1245 -0.1901
23999W        W42203   5.167   4.876   3.566 -0.0192 -0.1084 -0.0225
24000W        W42204  16.749   5.410  13.214  0.0648 -0.2183  0.2623
24001W        W42205  12.334  18.313   4.480 -0.1281  0.1625 -0.2206
24002W        W42206   5.647   5.969  13.103  0.1077  0.0107 -0.0223
24003W        W42207  18.119   2.435  15.183  0.2932  0.1320  0.1968
24004W        W42208   1.505   6.137  14.850 -0.1942 -0.3703 -0.0379
24005W        W42209  13.377  17.396  10.899 -0.2439 -0.2412  0.1671
24006W        W42210  13.920   9.943  13.456 -0.0747 -0.1822  0.0988
24007W        W42211  17.961  10.101   1.191  0.3250  0.3324 -0.1918
24008W        W42212  10.803  16.275   2.250 -0.2329 -0.1871 -0.3669
24009W        W42213   1.812  10.823  15.014  0.0019  0.0680  0.0470
24010W        W42214   1.079   5.520  11.215  0.1051 -0.1199 -0.2879
24011W        W42215  15.580   5.216   5.568  0.1601 -0.2153  0.0176
24012W        W42216  15.831   1.530   4.495 -0.1418 -0.0602  0.0289
24013W        W42217   3.671  17.970  14.770  0.1793  0.2154 -0.1150
24014W        W42218  18.558   2.400  12.337  0.1354  0.0827  0.0889
24015W        W42219   2.007   4.621  13.626  0.0996 -0.0207  0.0146
24016W        W42220   5.947   5.568  13.150 -0.2542 -0.0587 -0.2637
24017W        W42221   4.529   1.465  11.995 -0.1140 -0.0723 -0.2505
24018W        W42222   8.673   6.145  15.364  0.1044 -0.2283  0.1259
24019W        W42223   5.923  11.250  10.455 -0.1758 -0.2068  0.3469
24020W        W42224   6.519   7.969  12.392 -0.1194  0.0503 -0.4396
24021W        W42225   6.490  15.877  13.611 -0.3331  0.2414  0.0172
24022W        W42226  10.991  14.799  13.893  0.1012  0.0929  0.3214
24023W        W42227   5.706  12.898  13.905  0.0162  0.0131 -0.1100
24024W        W42228   9.491  14.753  11.808  0.1092  0.0002 -0.1677
24025W        W42229  10.135  13.479  12.895  0.2957  0.2981  0.0155
24026W        W42230   2.526  18.058   0.324 -0.2121  0.0275  0.0281
24027W        W42231  17.962   1.610   3.277  0.2864 -0.0041  0.0532
24028W        W42232   0.399  16.677  14.609  0.1255  0.1307  0.1508
24029W        W42233   1.347   8.783   4.449 -0.0661 -0.3162  0.2279
24030W        W42234  15.939  17.439   0.033  0.1586 -0.1233 -0.1122
24031W        W42235  10.605  11.491  14.368 -0.1909  0.0584 -0.0615
24032W        W42236  12.107   9.818   1.638 -0.1819  0.1963  0.0306
24033W        W42237   6.857  15.691   3.325  0.1252  0.1793  0.4736
24034W        W42238  10.565  15.262  11.705  0.2599 -0.0684  0.1306
24035W        W42239  12.143   3.671  11.943 -0.1619  0.0435 -0.0545
24036W        W42240   9.391   4.562  10.710 -0.0562 -0.2482  0.1756
24037W        W42241   0.190   2.604   4.904 -0.2072  0.0414  0.0506
24038W        W42242   6.497  12.548   3.599 -0.1006 -0.0025  0.0144
24039W        W42243   9.167   9.779  13.724 -0.0340 -0.1835  0.2691
24040W        W42244   3.923   9.665  10.932  0.1097 -0.1898 -0.0185
24041W        W42245   4.284  13.617  13.394  0.4492 -0.1085  0.0790
24042W        W42246  18.321   4.958   2.486 -0.2688 -0.2203 -0.0516
24043W        W42247   5.072   0.998   4.346 -0.1255 -0.0217  0.0170
24044W        W42248   7.635  10.025  14.412  0.1270 -0.5075 -0.1193
24045W        W42249   2.868   2.408  14.776  0.1407 -0.4208  0.1825
24046W        W42250  16.943  13.941  12.424  0.2754 -0.4240 -0.3597
24047W        W42251   3.959  14.185   5.026 -0.0750  0.1976 -0.1566
24048W        W42252   5.608  10.181   0.887  0.0741  0.0124  0.0513
24049W        W42253   5.595  17.739   4.392  0.1011 -0.1162  0.0945
24050W        W42254   9.818  17.020  11.953  0.0515  0.0310  0.0751
24051W        W42255  16.875   3.884   1.296  0.1299  0.1272  0.0502
24052W        W42256   2.932  15.232  14.088 -0.3000  0.1303 -0.0486
24053W        W42257   9.285   8.501   5.435 -0.0423  0.0901 -0.0178
24054W        W42258   1.975   6.053   3.675  0.0557 -0.2072  0.0685
24055W        W42259  12.829  15.606  13.255 -0.1767  0.2616 -0.2183
24056W        W42260   9.932  14.616  14.145 -0.2284 -0.1637 -0.0169
24057W        W42261  16.195   4.034   1.751  0.1194 -0.0188  0.0964
24058W        W42262   8.461  10.192  11.540 -0.1999  0.2219 -0.0305
24059W        W42263  11.770  17.143   1.667 -0.2929  0.2922  0.1996
24060W        W42264   1.140   0.348  13.701  0.0474  0.2501  0.1627
24061W        W42265   2.911  16.961   0.723  0.3102  0.2815 -0.1143
24062W        W42266   7.671   8.870  10.942 -0.1619  0.0366 -0.1212
24063W        W42267   8.602   5.835   3.261 -0.0155  0.0518  0.0892
24064W        W42268   5.908  13.858  11.788  0.1619  0.0891  0.0844
24065W        W42269   4.406  17.291  12.324 -0.4235 -0.2362  0.1544
24066W        W42270   2.520  14.436   3.735 -0.0293 -0.0313  0.1147
24067W        W42271  10.192  13.534  10.901  0.0189  0.2942 -0.3770
24068W        W42272  12.377   8.069   3.202  0.0768  0.2294 -0.0376
24069W        W42273  16.279   1.715   1.382  0.0504  0.2264 -0.2839
24070W        W42274   4.310   1.638   1.999 -0.3873  0.0269 -0.1408
24071W        W42275  10.709  11.828   1.535  0.2717  0.1225  0.2729
24072W        W42276  18.249  12.737   4.919 -0.0442  0.0049  0.1200
24073W        W42277   1.315   1.112  11.484  0.1284  0.1355  0.1291
24074W        W42278  17.883  16.211  14.865  0.0998 -0.2298  0.0091
24075W        W42279   2.833   1.555  14.500 -0.0984  0.1025  0.2276
24076W        W42280  11.669   8.840  13.350 -0.2915 -0.0029  0.1790
24077W        W42281  10.061   3.756   4.238  0.0735 -0.2014 -0.0177
24078W        W42282  10.852  11.935  11.207 -0.0017 -0.0044  0.0449
24079W        W42283  15.532  13.672  10.656  0.1910 -0.0629 -0.0067
24080W        W42284   7.860   3.540  15.078 -0.0573 -0.2404 -0.1866
24081W        W42285   7.482   3.777   2.548  0.0830 -0.0635 -0.1488
24082W        W42286  18.538  10.464   3.758  0.2708  0.0196  0.0215
24083W        W42287  18.161   1.036   2.451 -0.1150  0.3511  0.0307
24084W        W42288  15.066   7.224  11.941 -0.3044 -0.1100 -0.0867
24085W        W42289  13.891  18.498  12.081 -0.2162 -0.0835  0.1051
24086W        W42290  11.465   0.367  14.792 -0.0034  0.2034 -0.0180
24087W        W42291  13.836  18.510   3.129  0.0924 -0.0888  0.0331
24088W        W42292  13.354   3.045   0.768  0.0338 -0.0575  0.1531
24089W        W42293   2.453  13.724  12.458  0.1253 -0.3634  0.2803
24090W        W42294   4.552   1.990   2.383 -0.0777 -0.0408  0.2345
24091W        W42295   3.461  14.525  14.205 -0.0318 -0.0796  0.1828
24092W        W42296   9.548  16.396   3.497  0.0445  0.2725  0.0407
24093W        W42297   3.698   5.586  14.976  0.1996  0.2528 -0.1309
24094W        W42298   3.969  12.456  11.073  0.0723  0.1296 -0.0574
24095W        W42299  10.513  10.132  12.310  0.2050 -0.0749  0.2491
24096W        W42300   8.344   8.527   0.881  0.2479  0.0973 -0.0746
24097W        W42301   3.122   7.958  12.621  0.0340 -0.0768  0.1849
24098W        W42302  10.728   2.346   0.301  0.1110 -0.0372  0.0294
24099W        W42303  18.225   9.063   3.099 -0.0758 -0.2786  0.0304
24100W        W42304  11.455   5.902  11.077  0.1005  0.3303 -0.0864
24101W        W42305   5.126   9.839   3.415 -0.0901 -0.0674  0.3016
24102W        W42306   3.431  18.597   3.231 -0.0085  0.2688 -0.0564
24103W        W42307  17.132  18.124   2.347  0.0640 -0.0773 -0.0397
24104W        W42308  12.886   7.136  12.108  0.2912 -0.0550  0.0201
24105W        W42309  11.683   1.390   1.092  0.0734 -0.0820 -0.2742
24106W        W42310   2.246  13.834   0.036  0.1148  0.2211 -0.2015
24107W        W42311   7.622  11.034  13.553  0.1050  0.0932  0.2338
24108W        W42312   4.092   8.230  15.164 -0.0913 -0.2903 -0.2708
24109W        W42313   2.861   4.451   3.339 -0.1292  0.2162 -0.0926
24110W        W42314   3.713  14.803  11.047  0.1800  0.0633 -0.0036
24111W        W42315   3.529   3.560   2.819 -0.2353  0.1435  0.0738
24112W        W42316   2.100   9.063   2.327  0.0122  0.0163 -0.1527
24113W        W42317   5.833  11.826  11.680 -0.2810  0.1366  0.2895
24114W        W42318   2.488   0.245  13.208 -0.1063  0.2219 -0.3029
24115W        W42319   9.219   0.884   2.601  0.0531 -0.1259 -0.1347
24116W        W42320  12.176   4.616  10.275 -0.1247 -0.2669  0.1566
24117W        W42321  14.180  11.897   2.023 -0.2705 -0.0063 -0.0632
24118W        W42322  15.385  16.100   3.362 -0.1505 -0.0073 -0.0097
24119W        W42323   2.830  10.974   4.605  0.2784 -0.1480  0.3640
24120W        W42324   6.099  13.871   3.335 -0.3932  0.1091 -0.1505
24121W        W42325  15.687   0.813   3.112  0.1887  0.1256  0.2844
24122W        W42326  15.262  16.579   3.217 -0.2928  0.1050 -0.2176
24123W        W42327  12.435  16.029  14.123 -0.0376  0.1941  0.0938
24124W        W42328   6.914   4.888   4.300  0.2725 -0.6076  0.1045
24125W        W42329   9.796   4.743   0.698  0.0616  0.1803 -0.1620
24126W        W42330   6.079  14.571  11.238 -0.0884  0.1426 -0.1273
24127W        W42331   8.679   7.019   2.442  0.1812 -0.2875 -0.1065
24128W        W42332  10.245   2.432  10.522 -0.2749  0.2191  0.3602
24129W        W42333   8.632  17.177  14.448  0.0955  0.1238 -0.0959
24130W        W42334   6.324  13.833  10.670 -0.0068 -0.0666  0.1685
24131W        W42335   7.387  15.693  10.972 -0.0167  0.2741  0.1215
24132W        W42336   7.937   9.093  14.712  0.2830 -0.0912  0.1422
24133W        W42337  10.770  13.297   1.641 -0.0409  0.2286 -0.0076
24134W        W42338  17.711   2.349  12.734  0.0250  0.1152  0.0707
24135W        W42339  10.817   4.225  13.602  0.0847 -0.0997  0.0554
24136W        W42340  13.025  17.044   3.466  0.0095  0.1872 -0.0771
24137W        W42341   5.643   8.928  14.593  0.0750  0.0961  0.1134
24138W        W42342  15.304  17.773  12.029 -0.1643  0.4463 -0.1905
24139W        W42343  10.244  14.253  15.238 -0.0828 -0.3091  0.1346
24140W        W42344  10.104   8.194   4.670 -0.0187  0.0047 -0.2379
24141W        W42345   7.175   3.732   2.068  0.0163 -0.2452  0.4431
24142W        W42346   1.279  12.967   1.548  0.3030  0.0235 -0.1554
24143W        W42347   1.688  16.046   1.258  0.0155  0.1501  0.1361
24144W        W42348  13.590   3.310  10.090 -0.1391 -0.1409 -0.0723
24145W        W42349   8.781   7.087   1.570 -0.0057  0.1545  0.0598
24146W        W42350   2.368   2.196   3.297 -0.2859 -0.2268 -0.0412
24147W        W42351   6.497  15.465   3.054  0.1263 -0.0987  0.0665
24148W        W42352   7.021  18.211   5.729  0.0991  0.0971 -0.0415
24149W        W42353  14.235  16.145  14.050 -0.0392  0.0660 -0.1301
24150W        W42354   3.027  11.429  14.101 -0.1441 -0.1317  0.1284
24151W        W42355  13.595   0.107  11.244 -0.1443 -0.0154  0.0368
24152W        W42356  17.093   7.796  15.439 -0.1779 -0.2819 -0.0937
24153W        W42357  10.034  13.610   2.495  0.1722 -0.0959  0.3936
24154W        W42358  12.848  10.044   2.912  0.1733  0.1579 -0.5628
24155W        W42359   3.635  13.433  11.113  0.1071 -0.0067 -0.2079
24156W        W42360   8.023   1.811  13.273  0.1253 -0.1280  0.0122
24157W        W42361  10.858   1.834  13.454  0.3675 -0.1616 -0.2681
24158W        W42362   4.277  12.904  11.037 -0.2360  0.0762  0.1437
24159W        W42363  11.279   5.416   0.615  0.2824  0.0082  0.0942
24160W        W42364   4.885   5.077   2.177  0.0850  0.0402  0.0937
24161W        W42365   7.947  14.623  15.192 -0.3217  0.2837  0.0025
24162W        W42366  11.227   5.424  12.170 -0.1966  0.0365  0.0291
24163W        W42367   7.593   0.278  13.801 -0.0540 -0.2250  0.2904
24164W        W42368   0.038  11.766   4.949  0.1545 -0.1381 -0.3214
24165W        W42369  14.350  11.896  13.176 -0.1312  0.0215 -0.0850
24166W        W42370  11.302  11.929  12.114 -0.0601  0.2444 -0.2583
24167W        W42371   2.061   6.462   1.594 -0.0028  0.2757 -0.2427
24168W        W42372   6.296   3.263   4.789  0.0180 -0.0407 -0.0863
24169W        W42373  12.288   7.776  11.511 -0.1181  0.0918  0.1177
24170W        W42374  14.785   7.842   0.104  0.2194 -0.0221  0.1598
24171W        W42375  11.160  13.600   1.760 -0.1803 -0.1304 -0.2457
24172W        W42376  11.285  12.107  12.764 -0.0510  0.3945  0.1444
24173W        W42377   1.904   9.724   3.642  0.4481 -0.1455 -0.0560
24174W        W42378   5.206  10.643   2.664  0.0421 -0.1133  0.1320
24175W        W42379  15.003   3.856   3.980  0.1875 -0.0030  0.0054
24176W        W42380  10.769   9.121   3.870 -0.3775 -0.0564  0.0157
24177W        W42381  12.020  16.567  11.882 -0.1002 -0.0861 -0.3642
24178W        W42382  17.180  11.999   2.457  0.0345  0.3321 -0.0112
24179W        W42383  15.336   0.514   1.684 -0.0674 -0.2489  0.3121
24180W        W42384  17.665   2.913  10.680  0.0050  0.1819  0.0028
24181W        W42385  18.298   2.579  12.855 -0.3785  0.2962  0.0771
24182W        W42386   9.604   8.182   3.022  0.1086 -0.0627 -0.0346
24183W        W42387  15.632   3.177   0.148 -0.2365 -0.2737  0.0300
24184W        W42388  15.249   1.838  11.178 -0.1497 -0.1243  0.1557
24185W        W42389  17.131  13.012   2.159  0.1807 -0.3536 -0.4578
24186W        W42390   9.047  16.806   1.460 -0.0438 -0.2308  0.0625
24187W        W42391   4.656   2.799  13.580  0.1814 -0.3227 -0.1625
24188W        W42392   6.018  18.268   3.928 -0.3455  0.1624 -0.0391
24189W        W42393   0.091  12.425  14.802  0.2006  0.0895  0.0033
24190W        W42394  13.659   4.603   4.669 -0.0942 -0.1560  0.0103
24191W        W42395  17.522  14.578  12.281 -0.0749  0.1469 -0.0585
24192W        W42396   5.717   4.959  15.056 -0.1002 -0.2011  0.1785
24193W        W42397  17.570   2.814  11.502 -0.0342  0.0386  0.0391
24194W        W42398  16.306  16.711  13.714  0.4498 -0.0069 -0.3144
24195W        W42399  14.149   9.487  13.587 -0.0805  0.0641 -0.2295
24196W        W42400  15.943  16.125   2.542 -0.1169  0.0560 -0.0387
24197W        W42401   2.961  11.561  13.414  0.1557  0.0831  0.2715
24198W        W42402  18.257   7.702  11.501  0.1269  0.0490 -0.2359
24199W        W42403   0.390  15.938   4.003  0.0850  0.0937  0.0884
24200W        W42404  14.003  17.224  12.096 -0.1087  0.1189  0.2587
24201W        W42405  11.116   1.785   4.332 -0.4055 -0.1290  0.1583
24202W        W42406  16.346   3.266   2.382 -0.1217 -0.1039 -0.0170
24203W        W42407   1.185  15.839  13.638 -0.1002  0.3159 -0.1044
24204W        W42408  18.243   0.825  11.379  0.0240  0.3511 -0.1052
24205W        W42409  15.851   6.965  12.580  0.0971  0.0026 -0.0002
24206W        W42410   5.193  12.289   3.924  0.1002 -0.0872 -0.1842
24207W        W42411   3.388   8.411  12.742 -0.1516 -0.2433  0.0421
24208W        W42412   9.853  16.743  12.710  0.0631 -0.2902 -0.4062
24209W        W42413  12.257   0.493  10.040 -0.0298 -0.0519  0.0778
24210W        W42414   5.648  10.173   1.947 -0.1727  0.0509  0.2738
24211W        W42415   8.849  13.993  14.607 -0.0940 -0.0462 -0.1184
24212W        W42416  17.476  10.581  14.665 -0.1086  0.1061  0.3362
24213W        W42417   2.392  15.044   2.003  0.2368  0.2186 -0.3047
24214W        W42418   2.331  18.222  11.179  0.2269  0.0753  0.1939
24215W        W42419   2.916  16.348   4.937  0.0599  0.0555  0.1065
24216W        W42420   0.709  12.981   4.087  0.1202 -0.0687  0.1078
24217W        W42421  16.351  10.065   2.865  0.1583  0.1139  0.3372
24218W        W42422   1.512  10.749   0.646 -0.2638 -0.0834 -0.1280
24219W        W42423   0.095  14.069   1.748  0.0076  0.0748  0.1309
24220W        W42424  13.821  12.117  14.289 -0.1601  0.0178  0.1100
24221W        W42425  10.833   2.631   2.925 -0.0234 -0.1489 -0.0942
24222W        W42426   3.298   2.076   1.423  0.1081 -0.0153 -0.0857
24223W        W42427  14.354   4.063   0.700 -0.3564 -0.2442 -0.0588
24224W        W42428   7.661   2.779  11.800 -0.1260  0.0461 -0.1041
24225W        W42429  10.121  17.362   1.878  0.0987  0.0611  0.0649
24226W        W42430   9.238   2.579   1.457 -0.4039 -0.2444 -0.1056
24227W        W42431  16.594  15.323  15.122  0.1321  0.0221 -0.1387
24228W        W42432   2.637   5.236  12.658 -0.1523  0.0465  0.1160
24229W        W42433   8.470   7.971  13.428 -0.1349 -0.1729 -0.2057
24230W        W42434  15.289   0.318  13.397  0.1231 -0.0507  0.5211
24231W        W42435  16.803  18.127  11.341  0.4769  0.1769  0.0287
24232W        W42436  15.935  17.511  14.540 -0.1223 -0.0882  0.2226
24233W        W42437  10.104   2.853   0.469  0.0813 -0.3680 -0.0290
24234W        W42438  15.826   4.196  15.215 -0.0094 -0.0332 -0.2213
24235W        W42439  18.590   0.876  14.155 -0.0581  0.2744 -0.0641
24236W        W42440   5.339  16.100   3.130  0.2082 -0.2461  0.0374
24237W        W42441   9.461  16.275  11.947  0.1548  0.0486 -0.0261
24238W        W42442   8.504   3.304  14.462 -0.0383 -0.4507 -0.1233
24239W        W42443  15.436  13.895   1.873 -0.1295  0.1250 -0.0582
24240W        W42444   2.171   3.930  12.723  0.0212 -0.2130  0.0738
24241W        W42445   6.813   6.099   0.020  0.3538 -0.2034  0.0406
24242W        W42446   9.946   0.361  13.797  0.2597  0.0163  0.0410
24243W        W42447  11.628   2.205   2.126 -0.0425  0.1615  0.1928
24244W        W42448  18.134   3.347  13.936  0.1367  0.2453  0.0524
24245W        W42449   8.547   4.709   0.479  0.0893  0.1763  0.0582
24246W        W42450   4.552  13.168  12.660  0.3812 -0.1787 -0.0202
24247W        W42451   3.376   0.272  11.482 -0.1588  0.2434  0.0095
24248W        W42452  10.288  14.951   1.045 -0.0793 -0.0904  0.3911
24249W        W42453  14.792   7.840   1.456  0.1529 -0.3808 -0.0120
24250W        W42454   9.721   6.451  11.823  0.3057  0.1613 -0.1144
24251W        W42455   8.009   6.965   1.317 -0.3873 -0.0557 -0.0756
24252W        W42456   7.403   6.121   0.821 -0.2628 -0.0243  0.0256
24253W        W42457   2.084   8.183  14.655  0.1694  0.1983 -0.2469
24254W        W42458   3.170   5.977   4.282 -0.1667  0.1362  0.0442
24255W        W42459   9.031   7.887   1.184 -0.1144 -0.1178  0.1142
24256W        W42460   3.846  17.158   1.916  0.1438  0.1084 -0.0038
24257W        W42461  17.307   5.967   1.475  0.2680  0.1232  0.3387
24258W        W42462   8.082   2.232  12.387  0.0227  0.4467  0.0024
24259W        W42463  16.167  16.363  11.595  0.2351 -0.0170 -0.1011
24260W        W42464   7.242   1.086  11.134 -0.1433 -0.2280  0.1383
24261W        W42465   6.894  16.802  12.908  0.3290  0.0769  0.3022
24262W        W42466  14.276   3.336   0.193  0.2703 -0.2186  0.2365
24263W        W42467   4.813   6.844  12.334  0.2496  0.0493 -0.3619
24264W        W42468   7.570  11.276   2.177 -0.0865  0.3289  0.0376
24265W        W42469  12.710   2.099   0.752  0.1033 -0.1533 -0.0255
24266W        W42470  13.797   2.008  10.684 -0.0914 -0.1945 -0.0499
24267W        W42471  12.016  11.174  13.761  0.2030 -0.0814 -0.1101
24268W        W42472  15.873  14.639   2.270 -0.0589 -0.2397  0.1659
24269W        W42473  17.754  10.724  15.139  0.3309 -0.4198 -0.1801
24270W        W42474   8.532   0.787  15.164  0.1969  0.2762 -0.0628
24271W        W42475   7.398   6.815  12.241  0.6570  0.0365 -0.1964
24272W        W42476   3.059   6.609  14.395  0.0521  0.0646  0.0702
24273W        W42477   1.390  12.909   1.081  0.0433  0.1806 -0.0365
24274W        W42478   6.041  17.492   3.560  0.1654 -0.0125 -0.0476
24275W        W42479   6.432  12.616   4.130 -0.0638  0.1839 -0.0643
24276W        W42480  10.720   8.471  12.618  0.1358 -0.1536  0.0953
24277W        W42481  15.421   2.314   1.915  0.1931  0.2948 -0.1585
24278W        W42482  10.899   8.011  14.030  0.0544 -0.1394 -0.4251
24279W        W42483   5.095  10.159  12.031 -0.2540  0.0264  0.1245
24280W        W42484  16.265  17.700  10.789 -0.2920 -0.0831  0.1227
24281W        W42485  13.668  11.596   1.183 -0.3971 -0.0761  0.0095
24282W        W42486  11.981  12.123   4.651  0.1294  0.2239  0.0162
24283W        W42487   7.674   6.344  14.028  0.2591  0.0985  0.0268
24284W        W42488   0.842   4.725  13.663 -0.0122  0.0809 -0.0038
24285W        W42489  11.967  17.315  13.436  0.1172  0.1149 -0.0782
24286W        W42490  11.843   0.011   1.130 -0.1068 -0.0563 -0.0185
24287W        W42491   8.462  15.008   1.631 -0.0832 -0.0640  0.0072
24288W        W42492  17.449  14.288  14.763 -0.2096 -0.1893  0.2618
24289W        W42493  12.524  17.741  12.938  0.3303 -0.3380 -0.2173
24290W        W42494  17.570   5.029  11.591  0.0901  0.1594 -0.1905
24291W        W42495   9.737   3.307  13.705  0.0659 -0.0296 -0.0284
24292W        W42496  16.302   2.956   1.329  0.0172 -0.0282 -0.4010
24293W        W42497   8.858   5.090   3.419  0.2261 -0.0202  0.0214
24294W        W42498  15.370  13.564   4.252  0.1055 -0.1256 -0.1908
24295W        W42499  18.110   0.035  14.198  0.0008  0.1555 -0.0776
24296W        W42500   7.142   8.617   0.554  0.1347  0.1812 -0.3197
24297W        W42501  13.557  16.111   1.122 -0.0448  0.2765  0.1087
24298W        W42502   4.520   8.341  11.367 -0.3209  0.1083 -0.0304
24299W        W42503   7.598   2.290  14.750 -0.1183 -0.0873  0.4601
24300W        W42504   6.020   5.719   1.382 -0.1691 -0.2100 -0.4525
24301W        W42505  13.964   2.545   2.803  0.1020  0.3411 -0.1396
24302W        W42506   3.448   7.557   1.886 -0.3126  0.1139  0.2948
24303W        W42507  16.758  16.740  12.419  0.5694 -0.0887 -0.0785
24304W        W42508   8.120   4.342  11.733 -0.0560  0.1118  0.0182
24305W        W42509   6.074  10.200  14.340 -0.1302 -0.1593  0.3401
24306W        W42510  18.129   0.191   5.462 -0.0618 -0.0718  0.0693
24307W        W42511  14.873   9.544   1.856  0.1515 -0.0515 -0.1734
24308W        W42512  12.658   3.821  11.158  0.0499 -0.3939  0.1199
24309W        W42513   7.325   9.667   4.518 -0.0570 -0.0089 -0.0316
24310W        W42514   6.555  10.183  15.288  0.0740  0.2090  0.1460
24311W        W42515  15.924  11.858   2.118 -0.4874  0.2395  0.2118
24312W        W42516   8.124   1.468  10.902  0.1390 -0.1907  0.1635
24313W        W42517   0.549  12.956   2.107 -0.0945  0.1518 -0.2419
24314W        W42518   8.618   3.155  13.472  0.3862 -0.0040  0.1282
24315W        W42519   1.833  11.486  10.238  0.1162  0.0720  0.1143
24316W        W42520  17.833   8.808   3.418  0.0898 -0.1786  0.0796
24317W        W42521  16.216   3.570  14.122 -0.2021 -0.2174  0.1444
24318W        W42522   8.167  16.737   4.952 -0.1753  0.0490 -0.2746
24319W        W42523  11.610   3.873   1.443 -0.3123 -0.0557  0.5784
24320W        W42524  17.573   1.719   1.280 -0.3412 -0.2229  0.1126
24321W        W42525  14.190  14.851   2.851 -0.3002  0.0872  0.2715
24322W        W42526   7.815   2.894   1.889  0.3050  0.1383 -0.5834
24323W        W42527   5.887   4.888   2.829  0.4123  0.0828  0.0548
24324W        W42528  11.631  18.303  14.562  0.1782  0.1179 -0.0900
24325W        W42529  12.345   6.544  11.780  0.2585  0.0875 -0.1045
24326W        W42530  14.203   8.189   0.727 -0.0759  0.0563 -0.2525
24327W        W42531   7.570  17.002   3.659 -0.1811 -0.1768 -0.2847
24328W        W42532   4.914   4.695  13.340 -0.2854 -0.2341  0.1235
24329W        W42533   0.293  10.287  14.614 -0.2207  0.0344  0.2738
24330W        W42534   3.930  15.223  12.459 -0.0678  0.2677  0.0499
24331W        W42535   3.521   7.904  10.558 -0.1355 -0.2667 -0.0511
24332W        W42536  13.725   0.737  14.929 -0.0644 -0.0358 -0.3130
24333W        W42537   2.879  11.620  12.449 -0.0793 -0.3072  0.1097
24334W        W42538  10.355  11.717  12.360  0.0068  0.4844  0.2338
24335W        W42539   4.102   0.751  13.027 -0.1781 -0.0358  0.0927
24336W        W42540   7.284   8.223   4.953 -0.1103  0.0969 -0.2596
24337W        W42541   3.214   4.312  14.822 -0.0201 -0.0216  0.0201
24338W        W42542   7.140  15.653  14.943  0.0937 -0.0228  0.2055
24339W        W42543   4.295  15.528  12.348  0.1596 -0.1379 -0.1701
24340W        W42544   7.105   6.633  13.496  0.0851  0.0381  0.0892
24341W        W42545  13.599  16.767   0.533 -0.3431  0.1653 -0.2825
24342W        W42546  11.376   4.077  14.514  0.0689 -0.0360 -0.0515
24343W        W42547  14.719   0.675   3.122  0.4662  0.0794 -0.0483
24344W        W42548  10.498   5.536   2.270 -0.3197  0.0335  0.0496
24345W        W42549  15.763  18.519  11.829  0.0171  0.1424 -0.0158
24346W        W42550  11.704   0.775   0.157 -0.0612  0.1500  0.2095
24347W        W42551   7.302  15.045  13.094 -0.1166 -0.2046 -0.3873
24348W        W42552  13.967   1.529   2.932 -0.1226  0.2255 -0.2083
24349W        W42553  12.204  11.953   2.907 -0.1053 -0.4103  0.1477
24350W        W42554   0.984  12.946   0.096 -0.1365  0.2241 -0.1017
24351W        W42555   4.046   2.259   1.422 -0.1696  0.4578  0.1734
24352W        W42556   3.837  17.114   0.129 -0.0021 -0.1272  0.0580
24353W        W42557  13.893   9.703  11.059 -0.2915 -0.0198 -0.0512
24354W        W42558   4.593   9.075   3.197  0.1142  0.3220  0.4469
24355W        W42559   4.552  12.964   3.575 -0.2154  0.0376 -0.1315
24356W        W42560  15.187   3.077  11.625 -0.0141  0.2173  0.0017
24357W        W42561  12.382  17.420   0.817 -0.0221 -0.0361 -0.0123
24358W        W42562  15.439   2.361   0.466 -0.0582 -0.1667 -0.3519
24359W        W42563   5.066   4.745  14.160  0.1959  0.1060 -0.0005
24360W        W42564  13.775  11.901   3.992 -0.0800 -0.1282 -0.1142
24361W        W42565   9.103  16.886  14.417  0.1141  0.2156 -0.1518
24362W        W42566   3.915  17.659  13.062 -0.0140 -0.0447  0.3345
24363W        W42567  17.829   9.344   0.047  0.1541  0.0164  0.0173
24364W        W42568  14.050   6.340   4.490 -0.0127  0.1290 -0.0838
24365W        W42569  17.119   9.623   5.636  0.0227 -0.1021  0.2711
24366W        W42570   2.284   9.660   4.823 -0.1912  0.0894  0.0374
24367W        W42571   2.148  11.393  13.996 -0.1693  0.1031 -0.2858
24368W        W42572   9.921   7.458   3.648 -0.2010 -0.0994  0.0093
24369W        W42573   4.836  10.356  10.717 -0.2859  0.0887  0.0460
24370W        W42574   5.977   1.305   0.679 -0.1581 -0.2273  0.2192
24371W        W42575  16.882   2.951   2.859  0.0654  0.0833  0.0121
24372W        W42576   7.487  14.833   0.068  0.2563 -0.3136 -0.1816
24373W        W42577  14.462   8.771  12.867  0.0795  0.1048 -0.0199
24374W        W42578  16.318  14.401  11.605 -0.1138 -0.0267 -0.3268
24375W        W42579  10.601  12.085   3.529 -0.0320 -0.3070 -0.0428
24376W        W42580  14.762  18.082   4.001  0.0282 -0.1586  0.2407
24377W        W42581  17.670  18.144  14.367  0.1280 -0.1159 -0.3074
24378W        W42582  15.151  11.696   0.923 -0.2007  0.1050 -0.0741
24379W        W42583  15.410   3.228   2.077  0.0784 -0.0281 -0.1814
24380W        W42584  16.279  15.102  11.177 -0.0734  0.0382 -0.3150
24381W        W42585  14.016   1.464   3.511 -0.1056 -0.0997  0.0616
24382W        W42586   6.207  14.574   2.935 -0.0456  0.1021 -0.1748
24383W        W42587  16.080   2.004   4.403  0.0515  0.0352  0.1431
24384W        W42588  15.402  16.794   4.873 -0.0524  0.3203 -0.1468
24385W        W42589  15.154  10.302  12.104  0.0280  0.0553  0.1114
24386W        W42590   0.907  15.565  14.255 -0.1573 -0.1753  0.0661
24387W        W42591   7.670  16.304   5.493 -0.3280 -0.2096 -0.3296
24388W        W42592  13.227   9.556  11.199 -0.4145  0.1140  0.0289
24389W        W42593   9.777  10.142  12.916  0.2124  0.1021 -0.3194
24390W        W42594  15.085  13.817   3.340  0.1664  0.0667 -0.0025
24391W        W42595   7.157   7.421   3.872 -0.0919  0.1567  0.0139
24392W        W42596   1.674   4.557   0.347 -0.2565  0.1423 -0.3261
24393W        W42597   0.749   6.567   2.917  0.0715  0.3619  0.2021
24394W        W42598   7.011   5.592   0.216  0.2512  0.1366  0.1233
24395W        W42599   0.921  13.735  12.105 -0.2700  0.2199  0.1345
24396W        W42600  13.473  17.965   3.622 -0.1438 -0.0547 -0.1640
24397W        W42601   3.868  10.175  10.826 -0.0450 -0.1847 -0.0418
24398W        W42602   0.081  12.477  11.900 -0.0507 -0.0034 -0.4422
24399W        W42603   4.979   9.203   2.689 -0.1912 -0.0893  0.3781
24400W        W42604   2.089   8.005  11.492 -0.3548  0.0668 -0.2150
24401W        W42605  15.317   4.473  11.481  0.1313 -0.1246 -0.3337
24402W        W42606   3.238  10.945   0.110  0.2297  0.0006  0.2523
24403W        W42607   8.161   0.970  12.288 -0.0981  0.0937 -0.1091
24404W        W42608   8.028   5.805  14.832 -0.2129  0.1966  0.1159
24405W        W42609  12.809  17.336   0.536  0.1706  0.2380  0.2763
24406W        W42610  17.023   4.788  11.600 -0.0302 -0.0805 -0.0303
24407W        W42611  11.508  14.852  14.982 -0.3935  0.2168 -0.1999
24408W        W42612  15.242  16.154  14.403 -0.0883 -0.1434  0.0512
24409W        W42613   5.882   2.143  10.881  0.0349 -0.1388 -0.1179
24410W        W42614   0.398  15.745  13.184  0.0770 -0.1583 -0.0340
24411W        W42615   1.333  10.707   4.051  0.0656 -0.1269 -0.0891
24412W        W42616   4.086  15.490   0.869  0.0260  0.1724 -0.1824
24413W        W42617   2.643   4.116  13.818 -0.0805  0.1769  0.0924
24414W        W42618   1.665   5.974   2.159 -0.1283 -0.3711 -0.0264
24415W        W42619  15.066  11.303  15.044 -0.0875  0.0791 -0.3041
24416W        W42620   6.979   0.392  13.122  0.2540  0.1656  0.0323
24417W        W42621  11.105   5.392  15.087  0.0590  0.1349  0.1366
24418W        W42622  16.965  14.854  11.741  0.3286  0.1754  0.1788
24419W        W42623  10.510   3.190  11.943 -0.0309 -0.0952 -0.0193
24420W        W42624  11.155   3.742  12.260 -0.0196 -0.2087  0.1489
24421W        W42625   5.081   2.478  14.733 -0.0534  0.2554 -0.0390
24422W        W42626  10.908   3.514   2.859 -0.0288  0.2600  0.0629
24423W        W42627   7.932  13.764  13.002  0.0074  0.0777  0.2221
24424W        W42628   3.113   0.974  11.306  0.1369 -0.3522 -0.1528
24425W        W42629  12.471  10.541  11.851 -0.2451 -0.0120  0.0133
24426W        W42630   6.421   0.913  10.219 -0.0282 -0.0295 -0.0352
24427W        W42631  18.317  10.934   3.950 -0.0406  0.1699  0.1134
24428W        W42632   8.839   4.086   1.888  0.0123  0.1523 -0.0796
24429W        W42633  18.562  16.537  11.534 -0.0948  0.0462 -0.2896
24430W        W42634   7.344   4.474  14.966 -0.0814 -0.1197 -0.3644
24431W        W42635  10.952   7.957   1.231  0.0953  0.0645 -0.5477
24432W        W42636  12.422   9.414   0.198  0.1349  0.0227 -0.2087
24433W        W42637   4.524  16.041  11.106  0.1112 -0.1519  0.0808
24434W        W42638  10.187  14.217   1.791  0.4167 -0.3573 -0.0004
24435W        W42639   1.446   3.103  13.149  0.1006 -0.0016  0.1193
24436W        W42640   8.818  12.147   4.733 -0.0750 -0.1364  0.1038
24437W        W42641  13.377  15.116   3.971 -0.4446  0.0219  0.3634
24438W        W42642  12.926   2.621  12.169 -0.2326  0.0426  0.0721
24439W        W42643  13.756   4.567  10.809  0.0652 -0.1711 -0.2539
24440W        W42644   8.547  12.965  11.499  0.3052  0.0459  0.0139
24441W        W42645  16.570  13.026  13.571  0.2241 -0.3986  0.4498
24442W        W42646  16.410   0.217   1.189  0.3332 -0.0850 -0.0288
24443W        W42647  16.542   3.336  13.249 -0.1331 -0.1065  0.1945
24444W        W42648  12.448  15.355   0.278  0.0054 -0.0210 -0.0875
24445W        W42649  11.337   4.517  11.317  0.2185 -0.0279 -0.3118
24446W        W42650   1.241  15.072   4.698  0.3073  0.0965  0.2966
24447W        W42651  18.105   8.722  14.853 -0.1658 -0.1370 -0.0806
24448W        W42652   9.914   1.178   0.188 -0.0260 -0.0754  0.0690
24449W        W42653   0.385  14.063   5.009 -0.1384  0.0069  0.1938
24450W        W42654   7.978  13.264  15.112 -0.2801  0.0761 -0.2818
24451W        W42655  12.019  14.217   0.142 -0.1753  0.5472  0.0472
24452W        W42656   9.728   1.939   3.942  0.0140 -0.5807  0.2458
24453W        W42657   9.250  16.356  10.569  0.1194  0.3340 -0.0082
24454W        W42658   8.257   1.874   1.200 -0.1729  0.1642  0.0224
24455W        W42659   0.434   9.290   2.473 -0.2093  0.1520 -0.0090
24456W        W42660  16.973  13.441   4.657 -0.2506  0.0672  0.0438
24457W        W42661   9.440   4.426   1.612 -0.2035 -0.1349  0.2166
24458W        W42662   8.621  12.876  13.018 -0.2668  0.0481 -0.2040
24459W        W42663   1.375  10.225  14.753  0.0195  0.0811  0.1053
24460W        W42664  16.311  12.170   1.984 -0.0873  0.0209  0.3575
24461W        W42665   4.568  15.323  14.098 -0.1426 -0.1668 -0.0720
24462W        W42666  10.928   5.282   2.266  0.1646  0.0334  0.1172
24463W        W42667   2.210  13.292   4.525  0.0482  0.1742 -0.0055
24464W        W42668   0.172  11.176   0.858  0.2859  0.0074  0.2559
24465W        W42669  15.616   4.207   4.460  0.0625  0.0690  0.0870
24466W        W42670   2.762  13.956   3.594 -0.1095 -0.1525  0.0745
24467W        W42671   5.352  15.642   1.477  0.1592 -0.0143 -0.1829
24468W        W42672  14.498   7.851  12.849 -0.1468  0.0072  0.1439
24469W        W42673  13.085  13.324  11.323 -0.1555 -0.4079 -0.5656
24470W        W42674  12.466  17.830   3.178 -0.1879 -0.4995 -0.1284
24471W        W42675  16.664  16.480   4.621 -0.3307  0.0713  0.2290
24472W        W42676  16.169  16.399  15.181 -0.1443 -0.0722 -0.0699
24473W        W42677  12.359   3.106   4.683 -0.1289 -0.0262  0.3798
24474W        W42678   6.946   1.501   4.873  0.0047 -0.2647  0.0293
24475W        W42679  15.473   4.833  13.625 -0.2278 -0.1704 -0.1829
24476W        W42680   2.328  18.402  13.032 -0.1029 -0.0548  0.1195
24477W        W42681  17.611  16.064   4.470 -0.2249 -0.0489 -0.0486
24478W        W42682  16.043   3.714   3.622 -0.0644 -0.2401  0.4747
24479W        W42683  13.118   3.429   2.298  0.0429  0.0826  0.1464
24480W        W42684  12.218   4.897  14.949 -0.0769 -0.1021  0.2929
24481W        W42685  16.202   4.343  13.758 -0.1926  0.3181  0.2335
24482W        W42686  17.478  14.763   3.697 -0.1955 -0.2596 -0.1878
24483W        W42687   3.875   3.330   2.499  0.1745 -0.0306  0.1461
24484W        W42688  11.892  17.552  11.250 -0.0744  0.1539 -0.1541
24485W        W42689  13.451  15.777  15.053 -0.0654  0.0973 -0.2152
24486W        W42690   1.184  16.717   2.242 -0.0552  0.4577  0.1341
24487W        W42691  13.626   5.755   3.894  0.0134  0.0289 -0.1225
24488W        W42692   4.228   9.200   3.573  0.0708 -0.0709 -0.0071
24489W        W42693   9.899   1.033  12.358  0.2473 -0.1545  0.0274
24490W        W42694  17.800   6.399   1.568  0.0571 -0.1442 -0.1258
24491W        W42695   9.141   0.718  13.453  0.1422 -0.1713  0.1607
24492W        W42696   2.224   2.524  13.962 -0.0215 -0.0847  0.0161
24493W        W42697  16.644  16.535  13.328  0.3137  0.2080  0.1004
24494W        W42698   0.922   3.242  10.087  0.0372  0.2553  0.1668
24495W        W42699   1.241  17.549   1.199  0.3495  0.2363  0.0109
24496W        W42700   4.857   2.321  14.305 -0.3383 -0.1296  0.0810
24497W        W42701   8.873   7.592  14.607  0.1905 -0.1510 -0.0171
24498W        W42702  16.737  12.960   3.054 -0.0149 -0.1645  0.2695
24499W        W42703   6.375  14.944   3.296 -0.0535  0.1239  0.2177
24500W        W42704   3.824   2.683  11.987  0.0711 -0.2833  0.0017
24501W        W42705   9.948  16.710  14.729 -0.0566  0.1791  0.0624
24502W        W42706   4.049  17.230   3.769  0.0929 -0.1925 -0.2058
24503W        W42707  12.848   5.252   4.295 -0.1267 -0.0746  0.1685
24504W        W42708   3.690   9.041  12.160  0.2932  0.0738  0.0445
24505W        W42709  17.397  16.372   4.154  0.2757 -0.0153  0.2892
24506W        W42710  11.685  17.659   4.199 -0.0004 -0.0237  0.1807
24507W        W42711  14.813  13.123   0.911 -0.0224  0.3335  0.3351
24508W        W42712  11.516  17.083  12.130 -0.0372  0.1561 -0.1082
24509W        W42713   1.932  12.027  12.327  0.3638 -0.1234 -0.1219
24510W        W42714   2.753   9.727   1.847 -0.1368 -0.1932  0.0362
24511W        W42715   4.883  14.778   5.599 -0.0949 -0.5145 -0.0740
24512W        W42716   7.138   1.315   2.580 -0.1035  0.0821 -0.0664
24513W        W42717  12.819  18.428  15.122  0.0481 -0.1062  0.0969
24514W        W42718  12.969   3.379  11.657 -0.1993  0.1379  0.1332
24515W        W42719   2.331   9.524   2.076 -0.0086  0.1528 -0.0238
24516W        W42720   0.822   5.144  13.397  0.1817 -0.1488  0.0416
24517W        W42721   7.074  16.106   3.262 -0.1245  0.0165  0.2457
24518W        W42722   9.412  15.497   3.237 -0.2236  0.3007 -0.2617
24519W        W42723   3.785   4.031  13.388 -0.0777 -0.2311  0.3155
24520W        W42724  11.239  10.244   0.926  0.1394 -0.2478 -0.0491
24521W        W42725   6.081  12.898   2.112  0.1872  0.0603  0.2122
24522W        W42726   4.997  14.919  11.031  0.0055 -0.0875 -0.1857
24523W        W42727  13.294   7.674   3.426 -0.0429  0.0961  0.1336
24524W        W42728   4.978   1.802  10.746  0.1149 -0.0515  0.1021
24525W        W42729  10.694  10.179   0.532 -0.0075 -0.0937  0.0849
24526W        W42730  10.637   5.251  13.692 -0.2199 -0.1965  0.0130
24527W        W42731   5.492  16.131   4.177  0.1631 -0.0681  0.0148
24528W        W42732  16.470   0.434  11.434 -0.0821 -0.0158  0.3418
24529W        W42733  16.101   3.872   2.423  0.2245 -0.2408 -0.2451
24530W        W42734  11.772   3.469   2.823 -0.0368 -0.2328  0.2666
24531W        W42735   5.966  14.792   0.897 -0.0526  0.2261  0.2251
24532W        W42736   6.419   1.279   1.392 -0.1307  0.0597 -0.1354
24533W        W42737   3.347   7.001   0.335 -0.0242 -0.2186  0.0756
24534W        W42738   1.743  18.560  12.833  0.2429  0.2877 -0.0680
24535W        W42739   2.472   9.543  14.122  0.0528  0.0496  0.0351
24536W        W42740   3.747   7.302  11.209  0.4239  0.1114 -0.1346
24537W        W42741   7.922  16.798  13.093 -0.1511  0.1536  0.2428
24538W        W42742   9.657  14.212  10.613 -0.0767  0.2240  0.2510
24539W        W42743   7.729   4.864  14.178 -0.3050  0.0514 -0.0666
24540W        W42744  13.745  14.765   2.644 -0.0778 -0.2929  0.0641
24541W        W42745   1.318  15.238   1.070 -0.1327  0.0034 -0.2182
24542W        W42746   3.658   5.385  11.140 -0.2489  0.1024 -0.2071
24543W        W42747   2.099   3.815   3.351  0.0242  0.0374 -0.3464
24544W        W42748  14.629   1.797  12.324  0.2898 -0.0222  0.0413
24545W        W42749  16.873   0.323   3.539  0.1372 -0.1152 -0.1461
24546W        W42750   1.116   0.440  14.253 -0.0533  0.2633 -0.1430
24547W        W42751   6.498   3.011   0.894 -0.1783 -0.1646 -0.2150
24548W        W42752   0.734  17.040  13.588  0.0541  0.0796  0.3108
24549W        W42753  10.759   5.588   1.233  0.0442 -0.1322 -0.0236
24550W        W42754   0.706   0.226  15.083  0.0951 -0.0461 -0.1573
24551W        W42755   5.184  17.650  12.039  0.3283 -0.1289 -0.1421
24552W        W42756   9.939   0.062  12.706  0.0251 -0.1046  0.3307
24553W        W42757  10.053  13.626   3.499  0.2150 -0.1094  0.0629
24554W        W42758   1.538   0.827   2.435  0.0723  0.1153  0.2698
24555W        W42759   1.663   8.442   4.117  0.3104 -0.3962  0.2463
24556W        W42760  15.480   7.473  10.628 -0.0458 -0.0771 -0.2331
24557W        W42761   8.725   9.634   1.838 -0.0633  0.2390  0.1875
24558W        W42762   1.251   4.096  14.493  0.3251 -0.1715 -0.0461
24559W        W42763   5.113   9.726  14.298  0.1964 -0.2163 -0.1508
24560W        W42764  13.605  10.701  14.972  0.0485  0.0903 -0.3122
24561W        W42765   7.253  11.616   2.351 -0.0386  0.0847  0.0510
24562W        W42766  16.007   5.450   3.137  0.1308 -0.0082 -0.1450
24563W        W42767   6.433  13.281  11.258  0.0472 -0.0584 -0.2252
24564W        W42768   1.674  15.697   0.856 -0.0887 -0.1800  0.0182
24565W        W42769   3.271  10.285   1.901 -0.0681  0.3937  0.1201
24566W        W42770   4.380  17.518  11.676 -0.0748 -0.1679  0.1809
24567W        W42771  18.286  11.451   2.796 -0.2285  0.0396  0.4071
24568W        W42772  15.152   9.463  14.192  0.1936 -0.0254  0.0918
24569W        W42773   3.397   4.334  11.476 -0.4311  0.1163 -0.1974
24570W        W42774   2.729  11.619  11.190  0.2644  0.4189  0.0027
24571W        W42775  14.418  15.278   2.892 -0.1687  0.2348 -0.0049
24572W        W42776   3.886  11.903   1.712 -0.3426 -0.0736 -0.2138
24573W        W42777   5.149  13.833  10.731  0.1659 -0.0533 -0.0157
24574W        W42778  13.970   8.587   2.414 -0.0233  0.1020  0.1064
24575W        W42779  13.703   0.359   2.228  0.1287 -0.0539 -0.1227
24576W        W42780   3.579   5.489   2.239 -0.1809 -0.0577  0.0249
24577W        W42781  15.991   0.347  11.573  0.0255  0.1909 -0.1121
24578W        W42782   5.022   3.676   4.222  0.1971  0.0776  0.0140
24579W        W42783   9.863  15.085   4.015  0.0501  0.0156  0.0103
24580W        W42784  15.024   0.183  11.473 -0.0874  0.2224  0.2550
24581W        W42785   5.760   7.526  13.838  0.1922  0.0511  0.0582
24582W        W42786  11.049  15.391  12.921 -0.0939  0.0456 -0.3482
24583W        W42787   5.048   0.426  13.667  0.3336 -0.2422  0.0596
24584W        W42788   8.501   6.866  13.389 -0.0699 -0.0532  0.1550
24585W        W42789   5.432   7.539  10.941 -0.0122 -0.1953  0.1967
24586W        W42790   2.303   0.824  11.938 -0.0258 -0.1628 -0.4165
24587W        W42791   3.104  17.733  11.137 -0.0278 -0.1274 -0.0637
24588W        W42792   8.711  15.053   4.910  0.0129  0.2236  0.1218
24589W        W42793  17.937  13.342   1.781  0.1069  0.3263  0.0769
24590W        W42794  17.070  12.396   4.391  0.2323 -0.1038  0.1604
24591W        W42795  16.246   6.166  12.190 -0.1652 -0.2862 -0.0593
24592W        W42796   9.467   8.190  11.081  0.0565 -0.0585  0.3063
24593W        W42797  17.963   2.941  12.691  0.0168 -0.1046 -0.2645
24594W        W42798   5.272  12.309   4.698  0.2206 -0.2516  0.4738
24595W        W42799  17.542   5.774  12.181 -0.0747  0.0781  0.0690
24596W        W42800   9.652   7.345  14.357  0.1475  0.0635 -0.3117
24597W        W42801  11.183  16.106  11.855 -0.0891  0.1841  0.2838
24598W        W42802   8.554  15.746  12.842 -0.1116  0.1423 -0.0630
24599W        W42803  10.167  17.409   3.202 -0.3205  0.0226 -0.1130
24600W        W42804  15.785  13.684  15.162 -0.0556 -0.2691 -0.0401
24601W        W42805   7.103  11.072   0.584 -0.2137 -0.2372  0.3555
24602W        W42806  18.174  14.681  11.424  0.0166 -0.1604 -0.2718
24603W        W42807  15.960   5.684  13.704  0.0061  0.1839  0.1287
24604W        W42808   1.644   3.661  11.980  0.0422 -0.1089 -0.1280
24605W        W42809   8.902  15.110  11.059  0.0515 -0.3964  0.2188
24606W        W42810   0.314   0.758  13.793 -0.1379 -0.1171  0.3961
24607W        W42811  18.444   3.133   9.584 -0.0456  0.0460  0.1230
24608W        W42812   6.063   8.183  14.882 -0.0491 -0.1367 -0.2447
24609W        W42813   8.877   8.165  15.420 -0.0680 -0.0788 -0.2091
24610W        W42814  13.488   7.342  13.569  0.0111  0.2526 -0.2161
24611W        W42815  13.815  16.621  15.326  0.0329 -0.0506  0.1562
24612W        W42816  18.529  18.171  14.834  0.0969  0.0231 -0.5676
24613W        W42817   0.806   0.786   9.784  0.0312 -0.2625 -0.1622
24614W        W42818   2.606  18.168  12.699  0.1075  0.2014 -0.1108
24615W        W42819  17.190  17.128   2.531 -0.1777 -0.2893  0.3474
24616W        W42820  17.455  12.089  14.406 -0.2845  0.2898  0.0884
24617W        W42821   7.719   4.769  12.470  0.2236 -0.1619 -0.3421
24618W        W42822   1.053  16.698   0.757  0.3352 -0.2527  0.1550
24619W        W42823   3.761   3.177  12.017  0.0008  0.0149 -0.0046
24620W        W42824   1.707  15.209   3.528  0.0285 -0.2766  0.3415
24621W        W42825  13.540   1.486   1.059  0.3088 -0.1497  0.0950
24622W        W42826   3.444   3.662   1.273  0.1453 -0.0213 -0.0915
24623W        W42827  18.529  11.680   1.010 -0.1603  0.2512  0.0642
24624W        W42828   7.956  10.568   1.250 -0.1110 -0.1195  0.1470
24625W        W42829   4.563  16.128  12.609 -0.0598 -0.0877 -0.3101
24626W        W42830   7.943  13.057  14.263 -0.0424  0.1851 -0.1796
24627W        W42831  15.023  15.756   4.105 -0.0719  0.1736  0.1239
24628W        W42832   3.054  10.146   4.243 -0.0007  0.0076 -0.0024
24629W        W42833  11.556   6.977   3.211 -0.3116 -0.0876 -0.1370
24630W        W42834   5.382   5.834  12.333  0.1238  0.0696 -0.0866
24631W        W42835  13.604   3.055   1.506 -0.0465 -0.0385 -0.0214
24632W        W42836  10.753  14.152  10.662  0.0176  0.0641  0.0455
24633W        W42837  13.303   0.329   0.604 -0.2417 -0.0700 -0.0561
24634W        W42838  18.586  12.851  13.314  0.0261  0.0990 -0.2838
24635W        W42839  17.904  13.140  15.254 -0.0379  0.1323  0.3347
24636W        W42840   3.546   6.433  14.521  0.2299 -0.0514 -0.6107
24637W        W42841   8.385   1.337   3.094 -0.0829 -0.0512  0.1412
24638W        W42842   4.691  18.567   1.368  0.1207  0.4479  0.0985
24639W        W42843  12.389   2.417   2.329 -0.3886  0.0711 -0.1934
24640W        W42844  11.095  13.495   3.704 -0.0170  0.0508  0.0776
24641W        W42845   6.790   5.440   9.800 -0.2308 -0.6423 -0.0436
24642W        W42846  18.409  11.437   2.003  0.0714 -0.1715  0.0661
24643W        W42847   9.072   2.437   4.057 -0.5461  0.0944 -0.1768
24644W        W42848   4.441  10.025   2.552 -0.3527 -0.1055 -0.0631
24645W        W42849   9.886   7.092  10.971  0.2373 -0.2261  0.0591
24646W        W42850   1.433   8.347  14.045 -0.1556  0.1907 -0.4290
24647W        W42851  13.173  16.763  11.929  0.2219  0.0213 -0.0315
24648W        W42852   7.909   9.215  12.508  0.2259  0.1713  0.1079
24649W        W42853  11.021  14.562   0.287 -0.0454 -0.1424 -0.2281
24650W        W42854  17.850   1.019   1.412  0.2217 -0.2784 -0.0645
24651W        W42855   7.434  10.456   3.779  0.1577  0.1304 -0.4450
24652W        W42856   8.638   4.968  12.370 -0.2085  0.0129 -0.1183
24653W        W42857  15.067  16.520   5.135  0.2434  0.0604  0.2549
24654W        W42858  10.847  17.037  10.947  0.0596  0.4713 -0.2497
24655W        W42859   8.182   4.116   3.262 -0.1525  0.2339  0.0543
24656W        W42860  13.727  12.085  11.920 -0.0256 -0.0448  0.0816
24657W        W42861   5.416  14.320   2.745 -0.0683  0.0599  0.1074
24658W        W42862   0.835   4.177   0.867  0.1218 -0.0844  0.3093
24659W        W42863  15.467  11.036  15.135 -0.3048 -0.3463  0.0304
24660W        W42864   7.686  13.194   3.794 -0.0791 -0.3130 -0.0759
24661W        W42865   9.615   5.262  11.420 -0.0800  0.0748  0.1114
24662W        W42866   2.516  15.643  10.187 -0.1995 -0.2321  0.1618
24663W        W42867   2.613  17.609   0.034 -0.1286  0.2801  0.2011
24664W        W42868   7.347   2.697  11.180 -0.0271 -0.0998 -0.0762
24665W        W42869   2.317   9.958   1.732 -0.2924 -0.0568 -0.1163
24666W        W42870  11.139   4.051  12.670  0.1896  0.2054 -0.0212
24667W        W42871   6.215   5.028  11.363  0.2479 -0.2609 -0.1213
24668W        W42872   0.293   5.263  10.857  0.2909  0.0474 -0.1473
24669W        W42873   0.870  16.151  11.358 -0.3351  0.2178  0.1181
24670W        W42874  12.263   9.277   0.808 -0.0214  0.0970 -0.1812
24671W        W42875   2.137  13.565   3.726  0.3818  0.0566  0.2325
24672W        W42876  16.158   2.435   4.069 -0.1873  0.0989 -0.3730
24673W        W42877   2.232   7.675   2.389 -0.1307 -0.0334 -0.3268
24674W        W42878  16.235   3.926   3.245  0.1632  0.0598 -0.0814
24675W        W42879   8.785  12.370  13.115 -0.1882 -0.2424  0.0419
24676W        W42880   9.076   7.989  10.334  0.2209 -0.1147 -0.0509
24677W        W42881   9.169   3.532  11.648  0.1848  0.0873 -0.1050
24678W        W42882  16.084   7.480   0.108  0.2974 -0.3027 -0.3330
24679W        W42883   5.627   7.151  11.115 -0.1352 -0.4443 -0.0708
24680W        W42884   8.115   4.844   4.293  0.0348  0.2066 -0.2499
24681W        W42885   0.128   7.940   0.423  0.0308  0.3328  0.0356
24682W        W42886   3.938   0.922   1.462 -0.0999 -0.2630 -0.0464
24683W        W42887   1.251  11.786  13.315 -0.0721 -0.2779 -0.0166
24684W        W42888  15.927  15.715  12.872  0.2265  0.0847  0.0658
24685W        W42889   6.154   4.540  14.903 -0.0718 -0.0994 -0.2236
24686W        W42890  18.364   3.097   0.590 -0.1447  0.0487  0.1268
24687W        W42891  14.020  16.311   2.033 -0.2203 -0.0201 -0.4435
24688W        W42892   1.952   2.931   1.408  0.1665  0.0894  0.1890
24689W        W42893   2.361  10.149  11.843 -0.1909  0.2935  0.2160
24690W        W42894   2.413  18.189   2.011 -0.1820  0.0422  0.0858
24691W        W42895   2.831  11.133  10.989 -0.1184  0.2774  0.2314
24692W        W42896  16.738  16.264  14.970 -0.2225  0.3558  0.0420
24693W        W42897  17.244   6.639  13.411 -0.1939 -0.4964 -0.2388
24694W        W42898  13.121   6.096  14.473 -0.1319 -0.0467  0.0451
24695W        W42899  18.333  12.630   1.159 -0.0553 -0.2428 -0.1536
24696W        W42900  12.258   5.819  14.634 -0.0468  0.1785  0.0017
24697W        W42901  18.238  17.822  13.394 -0.0192  0.1751 -0.1764
24698W        W42902  16.631  16.950   4.378  0.4672  0.0512 -0.1406
24699W        W42903  12.620  13.518   1.429  0.1486 -0.1258 -0.1895
24700W        W42904  11.373   0.414   2.592  0.0422  0.0901 -0.0556
24701W        W42905   0.644  11.059  14.139 -0.0318  0.3796 -0.2014
24702W        W42906  12.917  12.156   4.108  0.1738  0.7002  0.1165
24703W        W42907  11.330   0.279  12.679 -0.0404  0.1703 -0.0840
24704W        W42908  11.701   4.920  14.006 -0.2649  0.2224 -0.0321
24705W        W42909   6.912   4.900   0.732 -0.2615 -0.1754 -0.2068
24706W        W42910  13.898   3.933  12.796  0.1450  0.2678 -0.0604
24707W        W42911   9.963   5.687  10.759  0.1926  0.0032  0.2277
24708W        W42912   9.044  17.929  11.537 -0.0940 -0.0422 -0.0538
24709W        W42913   9.462   2.213   1.772  0.0012  0.1878 -0.4266
24710W        W42914   9.900   1.024   2.124  0.0199  0.2381  0.3093
24711W        W42915   4.887  15.451  12.651 -0.0438  0.1610  0.3996
24712W        W42916   3.892  12.055   0.406  0.1258  0.1812  0.1280
24713W        W42917   3.286  13.210   2.518  0.4655 -0.1236  0.0937
24714W        W42918   0.842  17.883  13.658 -0.1640 -0.1554 -0.3304
24715W        W42919  10.977   8.194   3.412 -0.2093 -0.3313 -0.0033
24716W        W42920   9.490  14.343   4.461  0.1863 -0.1201  0.1995
24717W        W42921  17.091   7.784  13.845 -0.0181  0.0124  0.3369
24718W        W42922  10.106   7.753   0.828  0.0475 -0.0068  0.0172
24719W        W42923   1.088  17.397  11.655  0.0928 -0.2574  0.1291
24720W        W42924   3.245  11.818   3.230 -0.1586 -0.2267  0.2328
24721W        W42925  10.054   0.100  10.701  0.0330  0.1109 -0.0851
24722W        W42926  14.515  15.882   1.702  0.0635  0.1430  0.1445
24723W        W42927   4.834   2.174  12.871 -0.1925 -0.1646 -0.0180
24724W        W42928   7.151   0.396   3.422 -0.2260  0.1500  0.3767
24725W        W42929  14.116  13.522   3.866  0.1323  0.1801 -0.1643
24726W        W42930  12.686  15.483  11.864 -0.1403  0.0064  0.0357
24727W        W42931   7.641   8.132   3.967 -0.1679 -0.1172  0.3685
24728W        W42932   3.475   5.665   4.515 -0.0174  0.1487 -0.0149
24729W        W42933   1.343   1.272   0.011  0.2537  0.1048  0.0546
24730W        W42934   7.886   1.147  10.596 -0.5423  0.1032  0.0197
24731W        W42935  18.419  14.216  14.494 -0.1393 -0.0123 -0.0546
24732W        W42936   7.637   3.059  11.300 -0.3036  0.0194  0.0331
24733W        W42937   4.176  10.920   1.004 -0.1643  0.0755  0.1254
24734W        W42938  11.420   8.832  14.990 -0.1272  0.0280  0.1812
24735W        W42939  11.403  16.579   3.328  0.1286 -0.1557 -0.0336
24736W        W42940   7.216  11.503   4.299 -0.0899  0.1745 -0.0092
24737W        W42941   9.651   1.220   4.579 -0.0437  0.1311  0.1130
24738W        W42942  12.513  14.412   4.810 -0.2140 -0.2972  0.2606
24739W        W42943  10.412   7.296  11.091  0.0626  0.3151  0.1970
24740W        W42944   1.396   3.223  14.551  0.0023  0.2044  0.1733
24741W        W42945   1.285   7.526   2.968  0.1004 -0.0896 -0.1188
24742W        W42946  11.185   8.127  10.477  0.3828 -0.2749 -0.1636
24743W        W42947   7.624  11.930   3.151 -0.1871 -0.3186  0.0423
24744W        W42948  10.653  16.233   3.250 -0.2575 -0.0538 -0.0808
24745W        W42949   7.456   2.271  13.182  0.0108 -0.1916 -0.3039
24746W        W42950   5.622   7.928  11.259 -0.1145  0.0346 -0.2279
24747W        W42951  16.611  16.572  15.416 -0.5500  0.1237  0.0049
24748W        W42952  18.053   6.784   4.387 -0.0881 -0.0162  0.1521
24749W        W42953   5.874  13.511  15.052  0.2128  0.0311 -0.0950
24750W        W42954  12.673   7.209   3.366  0.1309 -0.1128  0.2004
24751W        W42955   8.952  15.154  11.585 -0.0637  0.0832  0.0254
24752W        W42956   4.272   8.900  14.098  0.0074 -0.0165  0.1600
24753W        W42957   6.245   6.587   1.043 -0.3434  0.0259 -0.0447
24754W        W42958   8.018   2.385  13.185 -0.0820  0.1134 -0.0396
24755W        W42959   6.107  12.962  14.163 -0.1951  0.2919  0.0167
24756W        W42960   1.053   1.916  11.334 -0.1470  0.0806 -0.0135
24757W        W42961   8.331   0.918   2.736 -0.1954 -0.0362  0.4478
24758W        W42962  15.439   9.964  12.461 -0.1780 -0.2978  0.3130
24759W        W42963  17.922   7.247  14.522 -0.0338  0.2165 -0.0933
24760W        W42964  17.994  18.210  13.951 -0.1000  0.1004 -0.0009
24761W        W42965   1.062   4.973  14.279  0.1891 -0.0113 -0.0126
24762W        W42966   9.711  13.512   1.392  0.2067 -0.1794 -0.0423
24763W        W42967  15.430  16.172   2.837 -0.1285 -0.0410 -0.1433
24764W        W42968  14.213   1.912   3.531 -0.2507  0.5173 -0.0453
24765W        W42969  10.865  16.241  11.544 -0.3934  0.1564 -0.0222
24766W        W42970   1.493   3.395   4.572  0.0149 -0.0449  0.1356
24767W        W42971   0.392  11.662   4.611  0.4455 -0.0238 -0.2193
24768W        W42972   4.598  14.040  13.818  0.2632  0.3329  0.2870
24769W        W42973  12.461  10.404  13.416  0.0091 -0.1662 -0.1468
24770W        W42974   2.025  13.014   0.357  0.0601 -0.3376 -0.0188
24771W        W42975  12.512   7.387   2.252 -0.1427  0.0941  0.2145
24772W        W42976  10.897  17.073   2.658 -0.0214  0.2329  0.0176
24773W        W42977   7.931   2.645  13.923  0.1985  0.2624 -0.0242
24774W        W42978   4.131  10.427  14.983  0.3092 -0.1833 -0.2252
24775W        W42979   0.963   5.357  15.021 -0.1670 -0.0985  0.1579
24776W        W42980   2.791   5.555   1.725 -0.0247 -0.0991  0.0737
24777W        W42981  15.309   8.308   4.273 -0.3222 -0.1542  0.0672
24778W        W42982  16.989   4.904   2.880 -0.1053  0.3266 -0.1607
24779W        W42983  11.267   6.702   1.042 -0.3860  0.0459  0.3990
24780W        W42984  17.066   6.688  11.379 -0.0861  0.1345 -0.0087
24781W        W42985   4.885   9.935  14.681  0.1426 -0.0110 -0.3002
24782W        W42986  10.328   8.076  15.208  0.1527 -0.0896  0.0003
24783W        W42987   0.878  14.935  13.184  0.0912 -0.1228 -0.1088
24784W        W42988  11.176   1.117  11.541 -0.1064  0.1232 -0.0121
24785W        W42989   9.341  10.512   4.578  0.2865  0.1582  0.0180
24786W        W42990   1.557  16.203   4.317  0.0442 -0.2016  0.2054
24787W        W42991   8.450  12.015  13.844  0.1706 -0.3728  0.0233
24788W        W42992   7.133  17.429  14.061 -0.0962  0.0959  0.1526
24789W        W42993  12.086  12.706   0.360  0.0582 -0.3557 -0.4103
24790W        W42994   8.990  11.582  14.604  0.0321 -0.3086 -0.0727
24791W        W42995   3.027  16.106   5.454  0.1353  0.0993  0.1061
24792W        W42996  11.251  11.507   5.199  0.1628 -0.0573  0.2595
24793W        W42997   7.460   2.723  13.870  0.0450  0.2382  0.0782
24794W        W42998   2.080   9.884   0.177  0.1468  0.0535 -0.0288
24795W        W42999   7.807  16.192   2.840 -0.1184  0.5927 -0.3314
24796W        W43000   3.865  15.170   2.893 -0.1461  0.0139  0.2897
24797W        W43001   5.521   3.852   3.959 -0.0593  0.0896  0.2050
24798W        W43002  11.304  14.997  12.876 -0.0325  0.1183 -0.0519
24799W        W43003  15.818  17.834  10.377 -0.1568 -0.3125 -0.0025
24800W        W43004   5.928   1.748  13.834  0.2201  0.3247 -0.0537
24801W        W43005   6.344   3.217  14.712 -0.1425  0.2254 -0.1064
24802W        W43006   0.862   8.061   3.717 -0.0910  0.1101  0.0391
24803W        W43007  13.700   3.718   5.326  0.1428  0.0513 -0.0600
24804W        W43008  11.680   0.119  10.659  0.2370 -0.0643 -0.1859
24805W        W43009   6.002  10.680  12.198  0.1490 -0.0213  0.0999
24806W        W43010  12.649  18.517   3.491  0.1379 -0.1625 -0.1014
24807W        W43011  14.359  12.414   2.035 -0.2486  0.1068 -0.1147
24808W        W43012  12.972  16.584   1.296  0.0218 -0.0865  0.1961
24809W        W43013  16.025  13.733   2.513  0.2236  0.1591  0.3834
24810W        W43014   8.054  15.437   0.150 -0.2315 -0.0894  0.0687
24811W        W43015   0.830   2.878  14.015  0.0896 -0.1783  0.1996
24812W        W43016  12.524   2.969  12.281  0.3973  0.0378 -0.1629
24813W        W43017   5.176   7.803   0.336  0.0795 -0.0031 -0.1386
24814W        W43018  17.490   7.143  14.216  0.1377  0.3710  0.0932
24815W        W43019   5.673   9.863   2.844 -0.2167 -0.2833  0.1420
24816W        W43020   3.892   7.964   3.315 -0.1744 -0.1782  0.1612
24817W        W43021  17.789   8.278   4.823 -0.0735  0.3548 -0.0992
24818W        W43022  14.824   8.964  12.556  0.0292 -0.2619  0.3724
24819W        W43023  17.564   1.049  14.865  0.0969  0.3174 -0.3638
24820W        W43024   0.537  11.313   4.948 -0.1121  0.1685  0.1207
24821W        W43025   0.151  17.001   1.040  0.1831 -0.1587 -0.0397
24822W        W43026  10.374  14.526  13.121 -0.0968 -0.0762 -0.2558
24823W        W43027   9.813   8.910  14.629 -0.1108  0.1412 -0.1115
24824W        W43028  11.403   6.178   4.200 -0.0006 -0.0777 -0.2634
24825W        W43029   3.977  16.047  13.572 -0.0562 -0.0994  0.0752
24826W        W43030  16.360   0.720   4.283  0.1336 -0.2111  0.2208
24827W        W43031   7.801  13.902   3.633 -0.0692 -0.1820  0.2472
24828W        W43032   3.595   1.908  15.303 -0.2967  0.0076  0.0733
24829W        W43033   4.161   9.444  14.777 -0.0070 -0.1767  0.3094
24830W        W43034   6.548   7.667   2.619  0.0022 -0.2294 -0.2193
24831W        W43035  15.041  18.216   2.957  0.0348  0.2547 -0.1188
24832W        W43036  13.809   6.870  11.419 -0.1895 -0.2403  0.2641
24833W        W43037  16.224  13.928   4.753 -0.0082  0.1490  0.1137
24834W        W43038   0.177  10.170  12.033 -0.0660 -0.0797 -0.1152
24835W        W43039   4.208   0.822  12.539  0.1165  0.0075 -0.1120
24836W        W43040   1.013  10.391   3.741 -0.1245 -0.1857 -0.3152
24837W        W43041   4.983  14.127  14.280  0.0871 -0.0348  0.5053
24838W        W43042   3.933   7.131   2.387  0.2757 -0.2182  0.0801
24839W        W43043  17.179   8.713  14.842 -0.1638  0.0035 -0.1295
24840W        W43044   4.436  13.380   3.327 -0.0030  0.1592 -0.0870
24841W        W43045  11.056  15.175  10.789  0.0631 -0.0497  0.0218
24842W        W43046  17.176   4.738   0.788  0.0165 -0.1063  0.1080
24843W        W43047   7.666   6.662   1.556 -0.0839  0.1560 -0.2209
24844W        W43048   4.825  11.260   2.194  0.0180 -0.0050 -0.0335
24845W        W43049   6.222  11.934   1.137 -0.2800  0.2112  0.4598
24846W        W43050  15.991  11.963  14.191  0.0407  0.0707 -0.1064
24847W        W43051  17.309   1.742  12.138  0.3725  0.0122  0.0772
24848W        W43052  18.212  16.302  14.471 -0.0937 -0.1179  0.0547
24849W        W43053   2.463  17.351   4.277 -0.1304  0.2022  0.1499
24850W        W43054   4.719   8.271  14.527 -0.2913  0.0109  0.1375
24851W        W43055   3.668  11.129  12.334  0.0137 -0.0711  0.2739
24852W        W43056   7.994  11.862  14.630 -0.1214 -0.0879 -0.1953
24853W        W43057  13.792   2.220   0.991 -0.1065 -0.2870  0.1951
24854W        W43058   2.386   9.476   1.592 -0.2475  0.1619 -0.2153
24855W        W43059  13.648   8.144   2.426  0.1144  0.0617 -0.0624
24856W        W43060   0.530   5.453   5.180  0.0532 -0.1533  0.0993
24857W        W43061   5.432  12.177   2.106  0.2105 -0.1302 -0.0485
24858W        W43062  12.352  17.084   0.270 -0.1774  0.0696 -0.1503
24859W        W43063  16.813  15.655   4.573 -0.1670 -0.0204 -0.1746
24860W        W43064   5.234  16.718   0.612  0.0477 -0.0043 -0.1064
24861W        W43065   2.532   2.996  11.719  0.0980  0.0317  0.1475
24862W        W43066  14.740   6.232   5.051  0.0695 -0.0495 -0.0066
24863W        W43067   9.672  11.853  11.813 -0.1147  0.5640 -0.1016
24864W        W43068   1.278  10.589  13.525  0.0308  0.1384 -0.3056
24865W        W43069   2.184   3.933  10.753 -0.1749  0.0523 -0.1322
24866W        W43070  13.294   8.201  15.256  0.0828 -0.2405 -0.2299
24867W        W43071  14.149  15.569   0.386 -0.0341 -0.2150  0.0915
24868W        W43072  12.884  11.247   0.243  0.0210  0.0601 -0.1622
24869W        W43073   2.560   7.040  13.748  0.2167  0.2233  0.1307
24870W        W43074   4.949   6.512  12.801  0.5144  0.1786  0.0063
24871W        W43075   5.760  15.674  11.491 -0.2005 -0.0694  0.0232
24872W        W43076  13.050   6.527   4.399  0.1610  0.1465  0.0555
24873W        W43077  15.462  17.073  12.809  0.0066 -0.0792  0.1634
24874W        W43078  10.247  13.361   1.502  0.1936 -0.1675  0.0866
24875W        W43079   0.105   6.621  15.009  0.0649 -0.1087  0.1737
24876W        W43080  15.582  11.415   4.530 -0.2243 -0.2128  0.2590
24877W        W43081  14.301  12.112  11.832 -0.0911 -0.0342  0.4304
24878W        W43082  14.064   2.789   1.456 -0.1862 -0.0901  0.1580
24879W        W43083   2.270  12.774  12.857  0.1395  0.0971 -0.1232
24880W        W43084   2.554   8.095  14.797  0.0143 -0.3884 -0.1188
24881W        W43085  11.877   2.774  14.192  0.1784  0.0897 -0.0968
24882W        W43086   5.159  17.460   1.036 -0.3012 -0.0107  0.2733
24883W        W43087   5.298  10.842   1.865  0.0206  0.0848  0.0580
24884W        W43088   7.450   2.281   1.144 -0.1379 -0.4735  0.0886
24885W        W43089  12.591  11.484  10.983  0.0602  0.0270 -0.0241
24886W        W43090   1.154  15.408  13.349  0.0998 -0.0026  0.1276
24887W        W43091  10.561   6.279  11.027 -0.1140  0.2415  0.3417
24888W        W43092  14.167   8.951  14.950 -0.1576 -0.1006  0.2499
24889W        W43093  17.855   5.476  12.412 -0.1619  0.4467  0.0475
24890W        W43094  11.753   9.538  13.292 -0.0395 -0.1031  0.2914
24891W        W43095   9.737   0.905  14.687 -0.1166  0.1426  0.2434
24892W        W43096  14.781  14.456  14.560 -0.1391 -0.0846  0.0440
24893W        W43097   6.104  14.501   1.436 -0.1060  0.1027  0.3108
24894W        W43098   7.065   6.636  11.365 -0.2265 -0.0519 -0.0938
24895W        W43099  13.275  16.242   4.674 -0.1752 -0.1432 -0.1740
24896W        W43100   8.424   3.498   2.403  0.0517  0.0072  0.1701
24897W        W43101   8.130  14.147  15.229  0.0670  0.1602 -0.0166
24898W        W43102  11.676   3.207  13.816 -0.0707 -0.0246 -0.1507
24899W        W43103  11.185   1.270   2.422  0.0573  0.2668  0.0349
24900W        W43104  18.340  15.591   3.485 -0.2254  0.2830 -0.1380
24901W        W43105  17.990  10.412  12.489  0.0085 -0.1654 -0.1452
24902W        W43106   7.312   6.572   0.583  0.1566  0.3451  0.1500
24903W        W43107   1.903  13.817  14.549 -0.1883 -0.1048  0.0480
24904W        W43108  12.147  18.375   2.393 -0.0215 -0.2081 -0.2420
24905W        W43109  13.384  10.443   0.543  0.0322  0.4615  0.1172
24906W        W43110  16.760   6.964  11.919 -0.0067  0.1632 -0.2198
24907W        W43111  16.993  13.570   2.118  0.2346  0.0731 -0.2773
24908W        W43112   5.249   8.397   0.398 -0.1041  0.2478  0.0588
24909W        W43113   1.882   7.975   3.984  0.1339  0.2333 -0.1048
24910W        W43114  14.658  12.926   3.989 -0.1248 -0.1949 -0.1620
24911W        W43115   7.915   1.843   3.856  0.2032 -0.1541 -0.2232
24912W        W43116  16.356   4.327   2.345 -0.0972 -0.0547 -0.1183
24913W        W43117   7.733  14.679   4.665  0.1422 -0.2260 -0.0654
24914W        W43118  16.787   5.081   1.903 -0.0192  0.1288  0.1118
24915W        W43119  15.643   3.511   1.720 -0.2666  0.0795  0.5011
24916W        W43120  16.363  10.825   4.503  0.3322 -0.1931 -0.0387
24917W        W43121   8.076   4.344   4.626 -0.1378  0.1180  0.0249
24918W        W43122   8.121  14.216  11.150  0.3096  0.0821 -0.0658
24919W        W43123  17.235  12.200   1.709  0.1662 -0.0862  0.1264
24920W        W43124  12.847   1.266  14.942 -0.0595  0.2856 -0.1873
24921W        W43125   0.705   5.490   4.269 -0.0158 -0.1569 -0.0521
24922W        W43126   9.432   2.321   0.494 -0.2045  0.0383 -0.2402
24923W        W43127   4.436  17.608  14.431 -0.1201 -0.1440  0.0476
24924W        W43128   9.183   7.973   3.908  0.1182  0.0313 -0.0012
24925W        W43129   4.021   8.583   1.139 -0.1329  0.0612  0.0882
24926W        W43130  13.624   5.948   2.625  0.1555 -0.2156  0.2101
24927W        W43131   5.459   8.172  15.341  0.1259 -0.1251 -0.0591
24928W        W43132  15.289   7.126  14.434  0.1767  0.2206  0.2426
24929W        W43133   2.670  14.516   0.705  0.2350 -0.0014  0.3016
24930W        W43134   9.196  13.329  14.981  0.2084  0.3290 -0.1372
24931W        W43135   2.953  13.741   1.184  0.0858  0.4004 -0.0949
24932W        W43136   8.702   9.379   1.384 -0.0378  0.0778 -0.0532
24933W        W43137  13.135   0.118   4.345  0.1306 -0.1719  0.0962
24934W        W43138   3.937   8.197   0.318 -0.1744 -0.2059 -0.6734
24935W        W43139  13.018  11.908   3.424 -0.2002  0.2744 -0.0910
24936W        W43140   0.804   5.688   1.909  0.0213  0.0354 -0.4209
24937W        W43141  12.011   0.894   2.041 -0.1570  0.4476 -0.1074
24938W        W43142   5.255   6.906  12.771 -0.0128 -0.1293  0.0195
24939W        W43143   7.444   9.716  15.444 -0.0529 -0.2761  0.0556
24940W        W43144   0.115   3.868   3.980  0.0133  0.2387 -0.0010
24941W        W43145  16.649  17.030  13.924  0.1898 -0.1198  0.0744
24942W        W43146  17.753   7.237  13.742 -0.0352 -0.0982 -0.0223
24943W        W43147  11.446  15.562   4.764 -0.0839  0.2990  0.0938
24944W        W43148   5.941   3.903  14.363 -0.2110 -0.0336 -0.1930
24945W        W43149   9.084  17.518   1.928  0.1881 -0.1718 -0.2042
24946W        W43150  16.190  11.873  13.174 -0.2790  0.2251  0.1200
24947W        W43151   4.259  12.148   2.147 -0.1646 -0.2410 -0.1489
24948W        W43152  17.636   9.789   2.975  0.2293  0.1255  0.0706
24949W        W43153   6.090   0.682   0.319  0.0820 -0.1435 -0.0493
24950W        W43154   5.226   4.746  14.948 -0.1115 -0.0131 -0.3181
24951W        W43155   5.691   2.919   2.345  0.1028  0.0490  0.0467
24952W        W43156  10.958  16.959   0.900 -0.1872 -0.2840 -0.2390
24953W        W43157  18.553   0.916   0.855  0.0614 -0.1205 -0.0324
24954W        W43158  13.085   9.663   1.747 -0.0812  0.0274 -0.2266
24955W        W43159  16.336   8.032   3.341  0.2328  0.1911 -0.0796
24956W        W43160  15.592   0.522   1.189 -0.0315 -0.4945 -0.1685
24957W        W43161   0.792   1.469   0.012  0.2180  0.0596  0.3149
24958W        W43162   8.868   3.729  12.003 -0.2749 -0.0308 -0.1821
24959W        W43163   9.358   8.892  14.872 -0.0706  0.0015 -0.0100
24960W        W43164  10.171   8.766   2.232 -0.2604 -0.1893  0.0756
24961W        W43165   6.928  10.009  12.631  0.0605 -0.0909 -0.3079
24962W        W43166   8.493  15.392  11.796  0.2509  0.2191  0.1092
24963W        W43167   2.350   9.910  13.699  0.0703  0.1503  0.0103
24964W        W43168   6.247  17.796  14.464 -0.1088  0.0553  0.0944
24965W        W43169   1.650  17.259  14.078 -0.1556 -0.2510 -0.1451
24966W        W43170   4.617  10.967   1.853 -0.2166 -0.2178 -0.2115
24967W        W43171   1.247   7.447  15.062  0.2477  0.1594 -0.0531
24968W        W43172  13.787  16.873  11.067  0.0625  0.0617 -0.4467
24969W        W43173  18.180  12.703   1.682 -0.1717 -0.4150 -0.5457
24970W        W43174   9.223   7.123   2.463  0.0619 -0.0830 -0.1077
24971W        W43175  12.638   5.408   0.056  0.2573 -0.0928 -0.1744
24972W        W43176   7.330   1.467  14.094 -0.1904 -0.2778  0.1264
24973W        W43177   5.954   7.444  13.017 -0.0337 -0.2085  0.2145
24974W        W43178   6.129  12.868   0.854  0.3364 -0.0184 -0.0600
24975W        W43179  16.957   5.202   3.300 -0.0455 -0.0464 -0.1698
24976W        W43180   8.255  13.286  14.652 -0.1644  0.0852  0.2629
24977W        W43181   5.436  14.400  14.963 -0.0501  0.1016 -0.1164
24978W        W43182   4.531   6.185  14.833 -0.0775 -0.4760  0.1017
24979W        W43183   6.270   5.553   0.995  0.1478 -0.0324  0.3194
24980W        W43184   9.544  14.967   0.429  0.0900 -0.0317 -0.0783
24981W        W43185  18.416  15.710   5.793  0.0758 -0.0138  0.1624
24982W        W43186   5.390  15.903  12.372  0.1085 -0.0576  0.1435
24983W        W43187   3.164  17.841  15.187  0.0428  0.2002  0.0057
24984W        W43188  10.701  15.278   4.808  0.0797 -0.0295  0.0456
24985W        W43189   6.465   5.479   1.848 -0.5003 -0.0072 -0.3298
24986W        W43190   5.342  15.622   3.948 -0.1940  0.3293  0.0101
24987W        W43191   3.558   8.757   3.188  0.0376  0.0513  0.1105
24988W        W43192   3.971   4.804   1.628 -0.2414  0.1521 -0.0013
24989W        W43193  17.405   3.674   1.292  0.3988  0.2423  0.3835
24990W        W43194   4.545   4.615  14.950  0.2108 -0.2467 -0.0014
24991W        W43195  18.563  16.278   4.119 -0.1090  0.2544  0.1568
24992W        W43196   6.554   5.548  10.729 -0.0249 -0.3961  0.0465
24993W        W43197  17.114   1.285   2.484  0.0670  0.0415 -0.0305
24994W        W43198   7.238   1.899  13.820  0.2073  0.0843 -0.0571
24995W        W43199   1.298   8.877  13.557  0.0150 -0.0538  0.0009
24996W        W43200   5.638   5.956   1.101 -0.0713  0.0664 -0.1414
24997W        W43201  11.213   2.665  14.340  0.0077 -0.3507  0.1289
24998W        W43202  16.722  16.753   3.317 -0.1013  0.0996  0.0495
24999W        W43203  18.197  15.105  15.366 -0.1376 -0.3470  0.2103
25000W        W43204  18.510  12.193   2.455  0.3768  0.0402  0.1113
25001W        W43205  13.321  16.824  12.892  0.0898  0.0899 -0.2661
25002W        W43206   3.822  13.564   5.832  0.2366  0.0666  0.1253
25003W        W43207   4.147   9.136   4.098 -0.0813 -0.3176  0.0145
25004W        W43208  17.165  17.923   0.414  0.0273 -0.1168  0.1647
25005W        W43209   2.100   6.653  11.182  0.0028 -0.1338  0.2047
25006W        W43210  16.162   0.869  12.438  0.2160  0.1169 -0.1990
25007W        W43211   2.839   1.124  13.198 -0.1503 -0.2854  0.0227
25008W        W43212  14.528   6.983   4.694  0.3420 -0.0722 -0.1967
25009W        W43213   4.567  11.092   2.635  0.0646 -0.0645  0.1296
25010W        W43214   8.702  17.447   2.915 -0.1303  0.1309 -0.1111
25011W        W43215   4.351   2.935   0.410  0.0810 -0.0234 -0.2498
25012W        W43216  15.564   7.904  14.034  0.0148  0.1746 -0.1039
25013W        W43217   4.677   3.888  12.064  0.1274 -0.1257  0.0414
25014W        W43218   4.934  14.517   2.808  0.0553  0.0708  0.0074
25015W        W43219  14.795   7.981  13.388  0.1141  0.3219 -0.0253
25016W        W43220   8.445   5.779  15.114  0.0385 -0.2459  0.1117
25017W        W43221  16.595   0.221  15.165 -0.1976  0.4180 -0.0558
25018W        W43222   1.887   7.716  13.148  0.2779 -0.1977 -0.1163
25019W        W43223  10.272  11.889   1.798 -0.1605  0.0160  0.2253
25020W        W43224   4.702   9.175  12.930  0.3042 -0.0791  0.1924
25021W        W43225   7.862   8.077   0.271 -0.1611 -0.1337 -0.1436
25022W        W43226   4.979  13.323   1.894 -0.3767  0.2210  0.0989
25023W        W43227   5.035   9.672  10.307 -0.1753  0.1387  0.2856
25024W        W43228  12.519  17.412  13.340  0.0025  0.0783  0.2244
25025W        W43229  15.303   1.893   2.446 -0.1283 -0.1095 -0.3445
25026W        W43230   1.365  17.280  13.131  0.1490 -0.1681  0.2425
25027W        W43231  13.766  16.505   2.529  0.0729 -0.2074 -0.1636
25028W        W43232   7.281  11.112   1.040 -0.1598 -0.2455 -0.0461
25029W        W43233   1.796  13.452  14.150 -0.2342 -0.0400  0.3551
25030W        W43234  14.919  15.354   4.421 -0.0073 -0.2485 -0.1415
25031W        W43235  18.211   2.373   4.355  0.2410 -0.0161 -0.0527
25032W        W43236  10.221   1.499  13.038  0.0270  0.1198  0.1256
25033W        W43237  18.017   8.887  14.271 -0.2119  0.0995 -0.0870
25034W        W43238   7.903  10.736   1.785  0.1194  0.3107  0.0208
25035W        W43239   2.096   8.547  14.223 -0.0367  0.2541  0.0176
25036W        W43240   5.078  17.855  12.952  0.0323 -0.2301 -0.3665
25037W        W43241  12.084   9.635  12.887 -0.1063  0.2578  0.1918
25038W        W43242  14.585   9.627  12.657 -0.0692 -0.1197  0.1024
25039W        W43243  17.265  15.994  13.053  0.1613  0.2058 -0.2848
25040W        W43244   6.967  16.242   2.300 -0.1299  0.0811  0.0771
25041W        W43245   0.241  13.034   3.714  0.3069 -0.2219 -0.2434
25042W        W43246   7.430  10.917  14.081  0.1468  0.0566 -0.3585
25043W        W43247   9.931   3.598   4.721 -0.1332  0.1714  0.0152
25044W        W43248   4.270   8.768  11.292  0.0525  0.0441 -0.0235
25045W        W43249   1.002  15.738  10.061  0.0010 -0.0626 -0.0523
25046W        W43250  13.924  14.445  11.543 -0.0572 -0.1723  0.0198
25047W        W43251  15.791   3.381   3.977 -0.0166  0.0358 -0.1032
25048W        W43252   3.861  10.884   1.850  0.2183  0.0173 -0.0186
25049W        W43253   0.016  14.483   1.443  0.0839 -0.3149  0.0376
25050W        W43254  11.343  15.198   2.384  0.1308  0.1053 -0.2311
25051W        W43255   4.326   2.502   3.910  0.1124  0.0925  0.1659
25052W        W43256   5.926   8.205   9.817  0.1654 -0.0959 -0.1526
25053W        W43257  12.362  16.265  10.791  0.2733  0.4066  0.0797
25054W        W43258  10.746   7.032   0.791 -0.1857  0.0256  0.1401
25055W        W43259  17.933  12.078  10.537  0.1408 -0.0655 -0.1236
25056W        W43260   7.761  13.735  13.838 -0.1690 -0.0189  0.0280
25057W        W43261   7.607  12.064  14.814  0.4479  0.0872  0.3323
25058W        W43262   7.823  16.567  12.533  0.0409  0.1141 -0.1396
25059W        W43263   8.325  13.411   1.474  0.0712  0.1484  0.0852
25060W        W43264   0.931  18.164  14.691 -0.0281 -0.0577 -0.0688
25061W        W43265  13.765   6.804   2.347 -0.1155 -0.1159  0.4980
25062W        W43266  16.688   8.621  15.085  0.1472  0.0753  0.2003
25063W        W43267   6.527  18.321  15.160  0.0981 -0.2155 -0.2038
25064W        W43268   9.663   7.524   0.176 -0.0514  0.0433 -0.0705
25065W        W43269   9.277   8.606   1.582 -0.0425  0.2291  0.2466
25066W        W43270   1.213  12.647  14.647  0.1932 -0.0902  0.0746
25067W        W43271  10.121  11.925   3.619 -0.0385  0.1852 -0.0534
25068W        W43272  16.341   7.363   1.265 -0.1092 -0.0416  0.5192
25069W        W43273  13.488  11.119   9.991 -0.3641  0.1507  0.1344
25070W        W43274  17.134  16.073  12.061 -0.2028  0.0697  0.0006
25071W        W43275   4.098  11.046  14.962  0.1937  0.0620 -0.1622
25072W        W43276   5.674   9.249   0.447 -0.2240 -0.1471  0.0366
25073W        W43277   7.474  15.476   0.945  0.1632 -0.3485  0.1078
25074W        W43278   4.074   1.258   2.255 -0.0759  0.2853 -0.1075
25075W        W43279   6.285  17.545  12.208 -0.3081  0.4035 -0.0690
25076W        W43280  11.788  12.488  15.403  0.1586  0.1706 -0.2808
25077W        W43281  17.202  10.830  12.535  0.0446 -0.1719 -0.3119
25078W        W43282   2.891   5.843  13.825  0.0841  0.5032 -0.0206
25079W        W43283  15.279   2.441  14.567 -0.0279 -0.0582 -0.0926
25080W        W43284   5.192  17.517   4.711 -0.0519 -0.1192 -0.0857
25081W        W43285  17.549  11.434   1.595  0.0051 -0.0850  0.2162
25082W        W43286   4.909  14.393  14.896 -0.3435  0.0113 -0.1757
25083W        W43287   2.543   4.662   1.093 -0.2951 -0.0979 -0.1093
25084W        W43288   6.512  16.723  12.066  0.1309  0.0073 -0.2661
25085W        W43289  11.320   2.101  12.018 -0.3047  0.0097 -0.3788
25086W        W43290   6.900   7.867  13.416  0.0769 -0.2449  0.0969
25087W        W43291   6.566   6.663   3.051  0.0821 -0.2934 -0.3475
25088W        W43292   3.200  16.451   2.538 -0.1106  0.0331  0.2110
25089W        W43293   3.657   3.258  12.630  0.1904 -0.1524 -0.0229
25090W        W43294   3.061   3.695  13.701  0.1316 -0.0842  0.0466
25091W        W43295  12.634   0.336  15.395  0.1469  0.2041 -0.1099
25092W        W43296  16.600   1.336   0.885 -0.1591 -0.0321  0.0602
25093W        W43297   9.830   3.290  12.262 -0.1782 -0.0452  0.0107
25094W        W43298   1.850   7.347   1.783 -0.0794 -0.1498  0.0382
25095W        W43299  18.239   6.135   4.200 -0.0809 -0.0690 -0.0394
25096W        W43300   9.677  15.105   2.140 -0.1350 -0.3240  0.1649
25097W        W43301   5.538   2.963   4.175 -0.1813  0.0852  0.3283
25098W        W43302   3.014  17.584   3.727  0.0919 -0.1718 -0.1372
25099W        W43303   5.759   4.817   3.326 -0.0697  0.0248  0.1894
25100W        W43304  18.336   5.638  15.118 -0.1872  0.1651 -0.1734
25101W        W43305  18.069   5.604  13.746  0.1844 -0.0705 -0.1354
25102W        W43306   0.219   4.020  12.872 -0.2090  0.3508 -0.0302
25103W        W43307   9.299   4.688  12.215 -0.0973 -0.1265 -0.2028
25104W        W43308   5.036   9.687   3.871 -0.0389 -0.0435  0.0005
25105W        W43309   3.931   6.134   1.746 -0.0394  0.3880  0.0757
25106W        W43310   8.807  17.055   4.552 -0.0724 -0.1219 -0.1435
25107W        W43311   4.619  16.340   1.339 -0.2413 -0.1678 -0.0117
25108W        W43312  11.402   3.634   1.964 -0.0154  0.1025  0.1421
25109W        W43313   3.990   0.503  13.538  0.1183 -0.0949 -0.3157
25110W        W43314   8.668  14.230  15.375 -0.0731  0.2904 -0.0484
25111W        W43315   6.822   9.698   0.957 -0.0242  0.3164  0.3571
25112W        W43316  18.519   6.309   3.711 -0.1400 -0.0915  0.5056
25113W        W43317   8.837   0.176  11.510 -0.1152 -0.0250 -0.0601
25114W        W43318   3.071  11.934  14.094 -0.3094  0.4133  0.3562
25115W        W43319   1.882   0.488  15.365  0.0768  0.2629  0.0067
25116W        W43320   5.206   9.198  12.157 -0.1895  0.0700  0.0229
25117W        W43321  12.877  12.606  15.305 -0.2245 -0.2084  0.1769
25118W        W43322  11.663  17.794   4.823 -0.0211 -0.1969  0.0215
25119W        W43323  11.595   1.933  11.058 -0.1315 -0.2397  0.3028
25120W        W43324   3.255  14.877   3.616 -0.1662  0.1455  0.1544
25121W        W43325   0.346   7.974  14.888  0.2714 -0.0276  0.0650
25122W        W43326   1.630   5.608   2.428  0.5254 -0.0313 -0.0025
25123W        W43327   2.282   6.995   2.623 -0.0464  0.3146  0.1071
25124W        W43328  18.184   5.062   9.924 -0.0176  0.4402 -0.1191
25125W        W43329   3.297  14.748  12.455  0.3718  0.1289  0.0204
25126W        W43330  11.591   0.062   0.679 -0.0679  0.0469  0.1134
25127W        W43331  15.849  13.034  11.939 -0.1221  0.1032 -0.1955
25128W        W43332  17.075   1.645   1.005 -0.1985  0.1800 -0.0106
25129W        W43333   0.788  13.131   3.633 -0.0437 -0.1946 -0.1063
25130W        W43334  17.837  16.934   0.473  0.1242 -0.0326 -0.2073
25131W        W43335   1.700   3.353   9.556 -0.0518 -0.1948  0.0750
25132W        W43336   9.829  11.000   0.195 -0.2225 -0.0272  0.4191
25133W        W43337  14.432  10.496   0.584 -0.2084 -0.4167 -0.0788
25134W        W43338   3.400   6.517  14.983 -0.0922 -0.2725 -0.0959
25135W        W43339  13.773   3.375  11.096 -0.0484 -0.0882 -0.0174
25136W        W43340   5.769   7.592  11.721  0.0570 -0.0291 -0.0885
25137W        W43341   4.366  18.456   3.466 -0.3103 -0.0207  0.3050
25138W        W43342   9.906  16.525  11.068 -0.0105 -0.1855 -0.0192
25139W        W43343   5.163   2.943   3.722  0.0856 -0.0192 -0.0828
25140W        W43344   7.684   4.348  10.961 -0.1742 -0.1716 -0.1807
25141W        W43345   8.200   7.621   1.793  0.2734  0.1288  0.2669
25142W        W43346   0.175   1.868  13.450 -0.0843  0.1498  0.0800
25143W        W43347  17.949  11.274   2.414 -0.0650  0.3583  0.1775
25144W        W43348   5.253   9.849   2.077 -0.1891  0.0487 -0.0406
25145W        W43349   6.469   7.096  10.088 -0.0811  0.0329  0.0082
25146W        W43350   0.839  12.417   4.154  0.0987 -0.2430  0.1877
25147W        W43351  14.451   2.237  11.945 -0.2260  0.0118 -0.0886
25148W        W43352   1.573   7.959  13.576 -0.0149  0.0569  0.0576
25149W        W43353   1.818  12.137   3.914 -0.1403  0.2709 -0.0683
25150W        W43354  13.782  11.487  15.339  0.2053  0.1083  0.0013
25151W        W43355  16.383  16.443   4.188 -0.1432  0.2315  0.3579
25152W        W43356   1.456   3.233  13.715 -0.1386 -0.2180 -0.1496
25153W        W43357  11.595   5.990   0.740 -0.1575 -0.1699  0.1730
25154W        W43358  18.144  11.286  14.711 -0.1615 -0.5359 -0.0061
25155W        W43359  10.260   7.456  14.412 -0.0888 -0.2828  0.2619
25156W        W43360  15.854  11.164   1.533  0.2636 -0.0172 -0.0000
25157W        W43361  11.616  18.261  10.645  0.0048  0.1437 -0.0991
25158W        W43362  15.083  13.371  12.959  0.2763  0.0664  0.0283
25159W        W43363   4.876  13.246   0.380 -0.3189  0.0201  0.1489
25160W        W43364  11.517  10.889   3.297 -0.1246  0.0146  0.1381
25161W        W43365   4.602   1.788  15.250 -0.0095  0.0975 -0.0691
25162W        W43366  18.306  10.194  13.892  0.1851 -0.0295 -0.3465
25163W        W43367  12.438  13.636  11.797  0.0545  0.0421 -0.1255
25164W        W43368  16.489  12.649   1.267  0.1289 -0.3484 -0.1086
25165W        W43369   8.358   8.626  11.396  0.1312 -0.1617  0.1085
25166W        W43370   1.637  18.148  12.508  0.2058  0.0457  0.1255
25167W        W43371   6.882   1.829  13.421  0.0881 -0.0962 -0.2409
25168W        W43372   0.872  14.837   3.854 -0.1102  0.1275  0.2764
25169W        W43373  11.251  14.159   0.622  0.3391 -0.0661 -0.0305
25170W        W43374   4.599   0.154  11.862 -0.0253 -0.0570 -0.3813
25171W        W43375   9.559  15.577   1.952 -0.1828  0.0801  0.2560
25172W        W43376   1.798   7.526  13.942 -0.1148 -0.5836  0.0551
25173W        W43377  18.134  10.918  12.528  0.2399 -0.0415  0.1664
25174W        W43378  15.375   5.787   1.573  0.0083 -0.1254  0.0306
25175W        W43379  16.599  11.125   0.163 -0.2375  0.3491  0.0495
25176W        W43380   6.892   5.110  12.933  0.0530 -0.2457 -0.3841
25177W        W43381   3.101   5.736   1.347  0.0251 -0.0146  0.0494
25178W        W43382   8.049   5.437   0.509 -0.0885 -0.2375 -0.2348
25179W        W43383   8.949  11.404   2.087  0.1610 -0.0212  0.4278
25180W        W43384   9.017  15.746  15.437  0.5660 -0.1402  0.3788
25181W        W43385  10.967   8.876  15.275 -0.1015 -0.1619 -0.3728
25182W        W43386  15.993   1.133  10.686 -0.1409  0.6493  0.1425
25183W        W43387  17.991  18.397  11.704 -0.3029 -0.0750  0.1896
25184W        W43388  16.474  12.289   0.924 -0.1486 -0.1221  0.2603
25185W        W43389  16.806   1.436  14.027  0.1971 -0.1076  0.0316
25186W        W43390  17.202  12.460   3.367  0.0238  0.1737 -0.0933
25187W        W43391   9.958  13.728  13.364 -0.1670 -0.1228  0.1533
25188W        W43392   9.200   2.649  14.226 -0.0536  0.1652 -0.0487
25189W        W43393  17.107  12.983   4.141 -0.1315 -0.3265  0.0921
25190W        W43394   5.497  16.974   4.137  0.1333  0.3359  0.1432
25191W        W43395  11.066  11.293  13.823  0.1355  0.1919  0.0093
25192W        W43396  12.974  15.263   4.790  0.2445 -0.0356 -0.1530
25193W        W43397  15.426   5.540   4.041  0.0242  0.2241  0.3110
25194W        W43398   9.160  18.087   0.432 -0.0025  0.0415  0.1721
25195W        W43399   3.307  15.389  14.436 -0.1832  0.4149  0.1036
25196W        W43400  10.460  12.334   2.860 -0.0664 -0.0455 -0.0186
25197W        W43401   8.529   6.201  12.536  0.0957  0.1682 -0.0585
25198W        W43402  16.890  10.570  10.443 -0.5903  0.2231  0.1250
25199W        W43403  11.642   1.534  13.085 -0.0677 -0.0946  0.3474
25200W        W43404   5.090   1.334   2.000  0.1361  0.1444  0.0190
25201W        W43405  17.761   7.869   5.630 -0.0327 -0.0762 -0.0379
25202W        W43406  11.739  13.402  11.177  0.1813  0.1693 -0.1991
25203W        W43407  16.854  17.828  15.026  0.1194  0.0553 -0.3699
25204W        W43408   8.778  17.777   1.669 -0.3716 -0.2278 -0.1250
25205W        W43409  15.200  17.741   4.100 -0.1349 -0.3868  0.1405
25206W        W43410  16.934  14.977  14.992  0.1523  0.0755 -0.0857
25207W        W43411   8.716   5.430  15.446  0.0019  0.2305  0.0213
25208W        W43412  11.861   4.629  14.785 -0.0418  0.1346 -0.1173
25209W        W43413  15.783  12.407   4.144  0.2277  0.0327 -0.2099
25210W        W43414  17.246  13.435  13.208  0.2600 -0.0543 -0.2247
25211W        W43415  17.712   1.333  12.188  0.3046 -0.3614  0.1501
25212W        W43416   6.484  10.527   3.162 -0.2344  0.1307 -0.2414
25213W        W43417   8.566   1.505   0.432  0.1936  0.0474  0.0063
25214W        W43418   1.375   1.445  13.145  0.1297  0.0562 -0.2144
25215W        W43419  13.677   5.107  10.959  0.0229  0.1470 -0.2316
25216W        W43420  12.746  12.471   0.446  0.1536 -0.3594  0.2580
25217W        W43421   3.720  16.729   2.206  0.0828 -0.0707  0.1681
25218W        W43422   0.889  11.480   2.002  0.0531  0.0418 -0.0865
25219W        W43423   3.900   6.007  11.088 -0.1622  0.1191  0.1528
25220W        W43424   5.661  13.573   1.451  0.1810  0.0420  0.1201
25221W        W43425   7.931   6.609  10.965 -0.1089 -0.3297  0.0015
25222W        W43426   2.298  15.036   3.987  0.0645 -0.0364 -0.1131
25223W        W43427  11.621   4.990   0.713  0.1963  0.1812 -0.0578
25224W        W43428   8.154   9.845   2.865  0.0355  0.1513 -0.2454
25225W        W43429   7.044  12.621  14.201  0.1486  0.0435  0.1525
25226W        W43430  16.657   6.072  13.942 -0.3798 -0.0880  0.3147
25227W        W43431  14.589   3.678   1.983  0.0498 -0.1815 -0.1678
25228W        W43432  12.468   6.382   2.063 -0.0832 -0.0850  0.1536
25229W        W43433  10.862   0.161   1.116 -0.2593 -0.1542 -0.1007
25230W        W43434   3.879  12.442  13.026 -0.0045 -0.2680 -0.2391
25231W        W43435   8.546  17.597  13.865 -0.4492  0.0569  0.1658
25232W        W43436   0.655   4.284   4.578  0.0250 -0.0458  0.1256
25233W        W43437  17.048  18.140   4.145 -0.1746 -0.0080 -0.0602
25234W        W43438  10.041  15.902   4.294  0.1225  0.0051 -0.4808
25235W        W43439  14.363   6.239  10.327  0.0920 -0.0228 -0.1091
25236W        W43440  15.017  10.893  14.705 -0.0562  0.2465  0.0432
25237W        W43441  10.780  10.912  12.576  0.0447 -0.0585 -0.1520
25238W        W43442   3.867   5.638   3.428  0.0631  0.0296  0.2733
25239W        W43443  18.215   5.961   0.062  0.2110  0.0616 -0.2010
25240W        W43444  10.106  13.263  13.396 -0.0047  0.0532 -0.2549
25241W        W43445   2.154   0.513   1.304  0.1541 -0.2785  0.2589
25242W        W43446   7.726  10.391   4.957 -0.1481 -0.2627 -0.2638
25243W        W43447   3.152   2.592   1.082 -0.0803  0.0768  0.0136
25244W        W43448   8.807   0.119   0.274 -0.0448  0.0578 -0.0840
25245W        W43449  13.648  11.222   3.420  0.0378 -0.1834 -0.0417
25246W        W43450   7.937  12.820  12.247  0.0798  0.0095 -0.3144
25247W        W43451   4.855  11.617   3.573 -0.1167  0.0538 -0.1135
25248W        W43452   1.588   2.170  12.067 -0.3094 -0.1975 -0.0872
25249W        W43453   8.424  14.020  11.612 -0.1924 -0.2367 -0.2067
25250W        W43454   7.715   9.176  13.278  0.2910  0.1580 -0.1917
25251W        W43455  11.154   5.718  13.471 -0.0780 -0.1597 -0.2319
25252W        W43456  11.433   8.039  11.451 -0.3737 -0.1698  0.1020
25253W        W43457  14.067  13.967  12.391 -0.2745 -0.2105  0.0157
25254W        W43458   9.305  13.631  13.854 -0.1456 -0.3099 -0.1077
25255W        W43459   7.655   6.193  11.700  0.3045 -0.1008 -0.1951
25256W        W43460  14.625   4.868  12.981 -0.0530 -0.2693 -0.4814
25257W        W43461  10.997  11.705  12.521 -0.3495 -0.1670  0.1102
25258W        W43462  13.847   6.934  11.942  0.0288  0.0097 -0.0627
25259W        W43463   5.006  14.261  13.509 -0.0446  0.0353 -0.1476
25260W        W43464   3.563  14.064  14.486  0.0971  0.1224 -0.2101
25261W        W43465   9.889  15.379   3.172 -0.0403 -0.2318  0.0917
25262W        W43466  12.175   5.050   0.609 -0.0022  0.4729  0.0245
25263W        W43467   9.434   1.168  13.134  0.0299 -0.2061  0.0415
25264W        W43468   7.860   3.064  12.946 -0.3041 -0.2132 -0.2073
25265W        W43469   3.872   5.365   4.410  0.1512 -0.0415  0.1992
25266W        W43470   2.631   1.685  12.688  0.2151  0.0208  0.1511
25267W        W43471   8.796  12.068  12.634 -0.0018 -0.0402  0.3256
25268W        W43472   5.950  10.106   2.416 -0.0356  0.0122 -0.1912
25269W        W43473  10.659  12.313   1.814  0.2170  0.2396  0.1278
25270W        W43474  14.977  18.515   0.332  0.0476  0.0179  0.0506
25271W        W43475  14.567   4.064  14.166 -0.2965 -0.2790  0.2922
25272W        W43476   9.505  11.816  10.965 -0.1481  0.1269 -0.1442
25273W        W43477   6.900  12.084  13.221 -0.0462  0.1815 -0.2605
25274W        W43478  13.967  12.844   3.934  0.0420  0.3424  0.0418
25275W        W43479  14.705   5.074  15.030 -0.2399  0.0704 -0.1463
25276W        W43480  10.739   8.140   3.898  0.1184  0.1325  0.5312
25277W        W43481  14.037   9.486   5.333 -0.1759  0.1553  0.3482
25278W        W43482   1.085   1.229  13.911  0.1636  0.1586 -0.0351
25279W        W43483  13.747  12.886  13.955  0.1176 -0.2270  0.0960
25280W        W43484   3.922  14.787  13.762  0.3006 -0.1687  0.2026
25281W        W43485   8.209  17.491   2.920 -0.0324  0.1098  0.0507
25282W        W43486   0.887   6.634  14.480  0.3305 -0.0621 -0.1566
25283W        W43487  11.096   5.937  11.551 -0.2257 -0.0401 -0.0751
25284W        W43488   2.647  16.963   3.004  0.0519 -0.1999  0.0976
25285W        W43489  12.884  13.045  13.738  0.0747 -0.0871 -0.1952
25286W        W43490   1.234  15.878   4.148 -0.4542  0.1270  0.1607
25287W        W43491  17.796  13.424  13.078  0.0966  0.1508 -0.2035
25288W        W43492  10.203   5.108  10.993 -0.0743 -0.0353  0.1539
25289W        W43493  12.468   4.029  12.208  0.2537 -0.0594 -0.3445
25290W        W43494   0.189  16.136  11.874  0.0839 -0.1264 -0.0178
25291W        W43495  10.331  14.913   2.438 -0.3428 -0.0109 -0.2507
25292W        W43496  17.389  13.865  13.067 -0.3578  0.1470 -0.1860
25293W        W43497   7.321  12.866   1.105  0.1493 -0.0164  0.1239
25294W        W43498   7.419   8.740  13.141 -0.0406 -0.0619  0.2626
25295W        W43499   8.675  11.950   0.845 -0.0371  0.1472 -0.0291
25296W        W43500  18.058  13.022   2.173 -0.0165  0.2668 -0.1397
25297W        W43501  13.603   8.954  13.130 -0.2965 -0.3202 -0.0475
25298W        W43502  10.048   9.242   2.172 -0.1851  0.0615  0.0512
25299W        W43503  15.942   2.279  12.537  0.2836 -0.1601 -0.0732
25300W        W43504  16.414  10.423  13.393 -0.3225  0.2391  0.1768
25301W        W43505   0.357   3.746  13.853 -0.0905  0.3015 -0.3326
25302W        W43506  13.461   5.685  13.540 -0.1852  0.1404 -0.0369
25303W        W43507   0.680   2.867  12.136 -0.1296 -0.1898 -0.0402
25304W        W43508   0.792   1.280   0.499 -0.1940 -0.0430  0.0799
25305W        W43509   0.137  11.916   1.410  0.0609 -0.2023  0.2653
25306W        W43510  14.112  18.104  13.966  0.2812 -0.1673 -0.3198
25307W        W43511   8.034  11.756  13.632 -0.0422 -0.2159  0.0752
25308W        W43512  12.317   3.928   0.373 -0.5177  0.2371 -0.0967
25309W        W43513  12.089  13.149  12.569 -0.1425 -0.1167 -0.1628
25310W        W43514  15.845  16.340  13.713 -0.1257 -0.2025  0.1105
25311W        W43515  15.240  12.334  14.854 -0.0204  0.2720  0.0778
25312W        W43516  10.899  13.159  14.761 -0.1029  0.3875  0.1780
25313W        W43517  16.998  10.161   4.367 -0.1315 -0.0627  0.1030
25314W        W43518  12.534  12.721  12.231  0.2337  0.0193 -0.0168
25315W        W43519  16.308  11.375   1.424 -0.0482 -0.0570 -0.0402
25316W        W43520   4.657   8.604  12.092 -0.0186 -0.1848 -0.2529
25317W        W43521  17.574  14.193   1.261 -0.1230 -0.0238  0.1760
25318W        W43522   2.364  16.852  14.381 -0.1258 -0.1073 -0.2428
25319W        W43523   0.485  15.773   0.974  0.0582 -0.1858 -0.0822
25320W        W43524   1.738  12.514  12.445 -0.0672 -0.3888  0.1618
25321W        W43525   0.573  18.545  13.545 -0.1647 -0.1518 -0.2899
25322W        W43526  17.172  13.803  13.598  0.1225 -0.1117  0.0607
25323W        W43527   2.225   5.013   0.514 -0.1608 -0.3016 -0.1569
25324W        W43528   3.857  15.357  14.449 -0.0273  0.2435 -0.1088
25325W        W43529   6.971   2.807  10.847 -0.1325  0.0047  0.1813
25326W        W43530  11.421  10.300  15.335  0.2570  0.1175  0.2010
25327W        W43531  15.893   2.002   2.983  0.3074 -0.0599 -0.2537
25328W        W43532   3.545  10.636  14.161  0.3851 -0.1706  0.3392
25329W        W43533  18.185   4.048  11.587  0.0483 -0.1022 -0.0374
25330W        W43534   0.626   8.263  14.095 -0.2282  0.1834 -0.1937
25331W        W43535  10.729  18.002   2.292  0.0298 -0.1023 -0.2929
25332W        W43536  16.783  16.641  10.963  0.1518 -0.3484 -0.3311
25333W        W43537  13.582   2.335   3.192 -0.0031 -0.0621 -0.1070
25334W        W43538   8.597  17.522  11.535  0.2366 -0.0685 -0.1893
25335W        W43539  11.050   2.967   4.484 -0.1554 -0.0355  0.0837
25336W        W43540   9.911   0.964  15.140 -0.3369  0.4305 -0.3697
25337W        W43541   7.490  17.997   0.622  0.0249  0.1304 -0.3217
25338W        W43542   9.519   2.072   0.029 -0.0610  0.0241 -0.1635
25339W        W43543   2.389   3.053   3.147 -0.0448 -0.1068  0.1262
25340W        W43544   1.990  13.706  15.070  0.1263 -0.0978 -0.0670
25341W        W43545   0.644   6.526  15.053 -0.1664  0.1299 -0.1614
25342W        W43546  11.650  17.030  13.934 -0.3632  0.0638  0.0200
25343W        W43547  12.932   6.146  10.489  0.2611 -0.0895 -0.0191
25344W        W43548  13.662   7.264   2.459 -0.2088 -0.2430 -0.0529
25345W        W43549  10.889  16.678   3.424  0.1449 -0.1716 -0.3293
25346W        W43550  16.255  11.831   2.807  0.0088 -0.2260 -0.3381
25347W        W43551   7.684   9.803   2.750  0.2436 -0.1180 -0.7000
25348W        W43552  14.457   8.359   2.526 -0.3059  0.2336  0.1200
25349W        W43553   0.947   3.931  13.995 -0.0095 -0.2794 -0.0377
25350W        W43554   3.219  12.523  11.005  0.1332  0.3796 -0.2696
25351W        W43555   3.502   2.804   2.606 -0.4337 -0.0981 -0.1215
25352W        W43556  14.760   2.780   2.841  0.1538  0.1047  0.0515
25353W        W43557   0.991  14.094  11.687  0.0726  0.1068 -0.1550
25354W        W43558  12.382  16.413  13.771  0.0744  0.0241 -0.2977
25355W        W43559   0.940   1.870   4.301 -0.1989 -0.1711 -0.1287
25356W        W43560   6.902  18.568  12.252  0.1306 -0.3326  0.0626
25357W        W43561   6.978  10.816  12.044  0.0931  0.3330  0.2914
25358W        W43562  15.538  17.882  15.278  0.2564 -0.0424  0.1199
25359W        W43563  10.349  11.078  13.617 -0.2124 -0.1956  0.1936
25360W        W43564  13.302   5.751  15.334  0.0046 -0.0939  0.1187
25361W        W43565   4.551  18.558   3.884  0.1844  0.0559 -0.1414
25362W        W43566  14.953   0.844  14.923  0.0815 -0.1988 -0.2210
25363W        W43567   0.588   4.844  14.669 -0.2163 -0.0485  0.2327
25364W        W43568   1.509  11.000  11.344  0.1315  0.2259  0.1879
25365W        W43569   9.660  13.414   0.281 -0.1902  0.0314  0.2471
25366W        W43570  16.476   0.939  13.179 -0.0675 -0.1419 -0.0914
25367W        W43571  15.438   6.776  15.213  0.0737 -0.1987 -0.1785
25368W        W43572  18.001   3.819  14.497 -0.1481  0.3153  0.1391
25369W        W43573   8.051   2.171  13.665 -0.0102 -0.2193 -0.2659
25370W        W43574   5.498   1.768   1.403  0.0313  0.1299 -0.0695
25371W        W43575   4.891  10.285   0.770 -0.3445 -0.2832  0.0404
25372W        W43576  15.003   7.498  14.730 -0.0294 -0.1552  0.0294
25373W        W43577   3.005  10.696  10.855 -0.0858 -0.1579  0.1600
25374W        W43578   5.543   4.510  11.738  0.1667 -0.2234 -0.2545
25375W        W43579   3.102   7.520  12.409  0.2369 -0.4837  0.1465
25376W        W43580  12.694   9.796   2.104  0.2799  0.1567 -0.0386
25377W        W43581   2.385  16.869  11.945  0.1759 -0.2032  0.2823
25378W        W43582   7.145   2.098  11.176 -0.2768  0.0470 -0.0589
25379W        W43583  15.117  18.114  12.413  0.0026  0.1227  0.1933
25380W        W43584  16.711  14.516   2.389 -0.1239  0.0225 -0.0940
25381W        W43585   8.896   4.950   0.845 -0.0575  0.2378  0.0399
25382W        W43586  14.053   8.860   9.866  0.2352  0.2672 -0.4058
25383W        W43587  11.978  14.957  10.484  0.2131  0.1413  0.1660
25384W        W43588  12.632   3.577   3.563 -0.2520 -0.3008 -0.0382
25385W        W43589   4.812   9.952  11.606 -0.1891  0.0303 -0.1304
25386W        W43590   6.750   7.356   3.064 -0.1532 -0.3404  0.1234
25387W        W43591  12.590   5.502   5.067  0.0340 -0.3200 -0.1697
25388W        W43592   1.938   6.323  13.838 -0.1871 -0.0710  0.0819
25389W        W43593  12.289   8.199   4.730  0.0792 -0.0877  0.0633
25390W        W43594   2.826   9.919   5.782 -0.1803  0.1995 -0.0686
25391W        W43595  14.876  17.308   1.024  0.2553 -0.0583  0.1826
25392W        W43596   1.370  18.539   3.883  0.2829 -0.3827 -0.3882
25393W        W43597   2.008   7.017  13.807 -0.1716 -0.1411 -0.0448
25394W        W43598   9.097  18.512   0.653  0.0477  0.0610  0.4730
25395W        W43599  11.007  17.588  13.516  0.0573  0.1264  0.0095
25396W        W43600   6.909   0.626  14.029  0.2601 -0.0728  0.2863
25397W        W43601  12.657   9.490  11.075 -0.1832 -0.2228  0.0849
25398W        W43602   3.483   3.979  15.121  0.0118  0.2095 -0.0603
25399W        W43603   4.030   4.002   3.156  0.0204 -0.3238  0.0283
25400W        W43604  13.409  11.120  14.036  0.1296  0.3689 -0.0569
25401W        W43605   3.245   0.268  13.256 -0.4043 -0.1773 -0.1516
25402W        W43606   1.285   2.356   1.973  0.4641  0.1013 -0.0083
25403W        W43607   0.069   0.846  15.305  0.2720 -0.0282  0.1242
25404W        W43608   3.062   8.443   1.756 -0.0860  0.1417  0.1012
25405W        W43609   9.200   3.600   3.199  0.1937  0.0749 -0.0951
25406W        W43610   5.310   6.844   5.408 -0.3076  0.1018  0.0980
25407W        W43611  14.745   7.006  13.563 -0.0989  0.0074  0.1236
25408W        W43612  16.821   2.175   0.218 -0.1219 -0.0247 -0.0872
25409W        W43613  11.873   2.702   3.978 -0.1892 -0.1083  0.0099
25410W        W43614   2.331  11.371   3.730  0.0312  0.0313 -0.2589
25411W        W43615   3.597  14.952   1.765  0.1327  0.1857  0.1113
25412W        W43616   9.936  12.229  11.645 -0.1774  0.1356  0.5117
25413W        W43617   4.724   2.641   3.314  0.0111  0.2969 -0.1795
25414W        W43618  18.020  10.750   4.503 -0.4715 -0.0886  0.0847
25415W        W43619  13.407  11.566   1.582 -0.0151  0.2512 -0.1655
25416W        W43620  15.655  11.088  11.474 -0.1196  0.2215 -0.1203
25417W        W43621  17.502  16.583   1.182 -0.1877 -0.1194 -0.2253
25418W        W43622   4.050  14.992   0.906 -0.2437 -0.2385 -0.4999
25419W        W43623   3.083  15.508  13.670 -0.0440 -0.0584 -0.0324
25420W        W43624   0.591   4.262  13.811  0.3773 -0.1859  0.3187
25421W        W43625  12.504  13.711  14.418  0.4900 -0.1916  0.1203
25422W        W43626  15.066   3.321   0.334 -0.0309  0.0192  0.2274
25423W        W43627   7.677   6.275  10.680  0.0705 -0.0919  0.2798
25424W        W43628  13.592  13.751   0.091 -0.0680 -0.0922 -0.2544
25425W        W43629   4.576   0.383   2.509  0.3008  0.1399 -0.2058
25426W        W43630  18.583   1.285   0.052 -0.1084 -0.0224 -0.3024
25427W        W43631  17.643   7.574   1.146  0.1556  0.4213 -0.1273
25428W        W43632  12.284   8.191  12.835 -0.1732  0.0157 -0.0779
25429W        W43633  11.000   7.864   2.557  0.0512 -0.1077  0.0540
25430W        W43634   1.583   1.779   3.547 -0.1269 -0.2200 -0.2435
25431W        W43635   6.682   4.631  10.963  0.0158  0.1103 -0.1886
25432W        W43636   3.809   0.084   0.293 -0.1629  0.0817 -0.1211
25433W        W43637  15.521  16.961   2.047 -0.1348  0.3038 -0.1365
25434W        W43638  12.491  15.398  10.986 -0.3021 -0.2796 -0.1801
25435W        W43639   0.234  13.391   2.766 -0.1156 -0.2739  0.0980
25436W        W43640   8.125   2.694   1.523 -0.0003 -0.4759  0.0256
25437W        W43641   9.894  17.012  11.145 -0.3040 -0.2828  0.2132
25438W        W43642  13.205   8.792  15.302 -0.2524 -0.3482 -0.0310
25439W        W43643   7.711   8.065   3.216 -0.2012 -0.3062  0.1049
25440W        W43644   2.080  12.311   2.658  0.2503  0.0347 -0.0842
25441W        W43645   0.620   9.964   4.584  0.3662  0.3376  0.1497
25442W        W43646  12.006  14.803   4.148 -0.0099  0.1362 -0.1615
25443W        W43647  17.633  10.591   3.279  0.0495 -0.0789 -0.3199
25444W        W43648   1.044   8.046  13.916 -0.2248  0.0543  0.0828
25445W        W43649  14.565   6.773  13.987 -0.1013  0.0548 -0.0949
25446W        W43650  12.344  15.188   2.404 -0.1217 -0.0850 -0.0126
25447W        W43651   7.069   2.743  14.212  0.0548  0.0571  0.1483
25448W        W43652   4.781   0.607   1.011  0.0123 -0.0382  0.0222
25449W        W43653   0.788   5.855  11.620  0.0390  0.1899 -0.1153
25450W        W43654   6.670  16.682  13.479 -0.1398 -0.3488 -0.2087
25451W        W43655  16.284  10.680   2.741 -0.0450  0.0190  0.1813
25452W        W43656  10.840  18.545  14.816 -0.5858 -0.2613 -0.2166
25453W        W43657  11.478   8.044  12.331 -0.0583 -0.2160 -0.1772
25454W        W43658   1.308   2.927  11.698  0.0587  0.0496  0.3274
25455W        W43659  13.989   0.889  11.018 -0.0706 -0.2189  0.1415
25456W        W43660   0.720  13.327  11.664 -0.0008  0.0175 -0.2057
25457W        W43661   5.418   6.276   2.585  0.1336  0.0166 -0.1878
25458W        W43662   0.816  11.796  13.019 -0.0552  0.3833 -0.2389
25459W        W43663   5.351  15.557  11.263  0.0566 -0.1801 -0.2069
25460W        W43664  13.059  10.874   0.004 -0.2945 -0.1442  0.3590
25461W        W43665  12.686  12.470  14.163  0.0800 -0.0818  0.1578
25462W        W43666   2.342  16.800   4.246  0.1829 -0.2735 -0.2471
25463W        W43667   5.485   3.127   1.816 -0.2477  0.3885 -0.1158
25464W        W43668   9.535  16.969  14.687 -0.3091 -0.0568 -0.1908
25465W        W43669  10.818   0.985  13.224  0.1495  0.3267 -0.3546
25466W        W43670   5.521   2.018   2.606 -0.3934 -0.2444 -0.0133
25467W        W43671   6.555   2.016  13.086 -0.0738  0.2118  0.2453
25468W        W43672   4.707   2.043   0.309 -0.1478  0.3151 -0.0035
25469W        W43673   3.910  14.843  12.766 -0.0794  0.4304 -0.0131
25470W        W43674   7.712  15.835  13.285 -0.2113  0.0015  0.0070
25471W        W43675   5.842   7.976  13.755  0.0077  0.0957 -0.0563
25472W        W43676   5.203  16.132   5.327 -0.2149 -0.4605  0.1123
25473W        W43677  18.189  16.119  12.959  0.1503  0.2442 -0.2063
25474W        W43678   7.392  12.234  14.081 -0.0420 -0.0862 -0.0397
25475W        W43679   1.431  15.383   2.046  0.0471  0.2008  0.0441
25476W        W43680  11.529   4.238   0.448  0.0869  0.1715 -0.0938
25477W        W43681   6.758  13.164   1.375  0.0477 -0.2269 -0.1415
25478W        W43682  14.466   9.434   3.327 -0.2528  0.0878  0.0012
25479W        W43683  14.334   5.703  12.345  0.1747  0.1694  0.0934
25480W        W43684  16.583  17.433  13.586  0.1520 -0.0434 -0.0792
25481W        W43685  16.267  13.334   2.301 -0.1570 -0.1655  0.2910
25482W        W43686   7.938  13.869  11.532 -0.1565 -0.1460 -0.1873
25483W        W43687   5.924   1.083  14.358  0.0110  0.2561 -0.0747
25484W        W43688   0.757   9.553  12.242  0.2118  0.0916 -0.1554
25485W        W43689  11.014  13.201  14.207 -0.2455 -0.2304 -0.3446
25486W        W43690   2.272   2.826   0.566  0.0382  0.0434  0.0154
25487W        W43691  17.414  18.390   1.993 -0.0605 -0.0599  0.1743
25488W        W43692  10.601   0.053   0.552 -0.1549 -0.3275  0.1768
25489W        W43693  12.728   5.664  10.074  0.0584  0.0538  0.0813
25490W        W43694   9.372  16.715   2.083 -0.0896  0.1222 -0.0259
25491W        W43695   3.085  16.029  14.586 -0.1500 -0.2119 -0.0523
25492W        W43696  16.261  10.741  12.333 -0.2291  0.1343  0.1259
25493W        W43697  14.313   2.142  12.596  0.0416 -0.5478 -0.0587
25494W        W43698  11.291   1.304   4.503  0.0860 -0.1827 -0.0055
25495W        W43699   1.375  11.004  14.893 -0.2870  0.1432  0.4045
25496W        W43700  17.765   9.368  14.304 -0.1139  0.1388 -0.0233
25497W        W43701  16.084  16.626  13.301 -0.3955  0.0769  0.2509
25498W        W43702   9.181   2.144  14.276  0.1653 -0.0609 -0.0759
25499W        W43703  15.996   8.587   3.467 -0.0824  0.0464  0.0623
25500W        W43704  15.666   4.689   4.318 -0.4682 -0.1399 -0.1131
25501W        W43705  14.848   2.751  14.695 -0.1816  0.0004 -0.3652
25502W        W43706  16.353   9.065  14.496  0.0784  0.2480 -0.0422
25503W        W43707  10.042  14.066   1.353  0.1867  0.1029 -0.0899
25504W        W43708  13.884   1.102   0.362  0.1948  0.2469 -0.0657
25505W        W43709  15.607   1.101  13.291 -0.4527 -0.1121  0.2190
25506W        W43710   4.760  16.589  14.529  0.0269  0.0743  0.0462
25507W        W43711   5.254  11.061   4.435  0.1144  0.0302 -0.0065
25508W        W43712  12.645   9.902  13.387 -0.0701 -0.2962  0.0921
25509W        W43713  17.461   7.957  12.784  0.0626 -0.0982 -0.0307
25510W        W43714  14.092   7.651  13.734 -0.1901 -0.1174 -0.1885
25511W        W43715   5.645   0.792   3.799 -0.0378 -0.2813 -0.0327
25512W        W43716  11.814  18.209  14.051 -0.3071 -0.2789  0.1350
25513W        W43717   5.195   1.586  14.076 -0.1932 -0.0528 -0.1497
25514W        W43718   8.490  14.520   3.004 -0.2657 -0.1013  0.0861
25515W        W43719  14.565   4.729  12.147 -0.1560  0.0144 -0.2886
25516W        W43720  13.727   5.609   1.013  0.1417  0.2038 -0.0756
25517W        W43721  11.969  15.210  10.933 -0.1348  0.1029 -0.1679
25518W        W43722  15.865  17.461  10.677  0.0407  0.0352 -0.0455
25519W        W43723   5.947  16.280  11.484  0.0357 -0.0299  0.0094
25520W        W43724  15.153   7.424   3.933 -0.3021 -0.0925 -0.0639
25521W        W43725  11.534  11.429   4.314 -0.2085 -0.3578  0.1068
25522W        W43726  12.127   0.086  12.973 -0.0840 -0.1505 -0.1138
25523W        W43727   6.302  17.649   3.156  0.0241  0.4361  0.2083
25524W        W43728  10.181   5.497   1.725  0.0105 -0.0830 -0.0337
25525W        W43729   1.465   4.599   0.874  0.1739 -0.2240  0.1670
25526W        W43730  10.467  12.906   3.701  0.1856  0.0734  0.0965
25527W        W43731   0.139   3.261  11.157 -0.0975  0.1299  0.1155
25528W        W43732   7.595   8.441   1.215  0.2978  0.2862  0.1513
25529W        W43733  14.483  15.060   0.420  0.0702  0.2178  0.3332
25530W        W43734   1.985  17.565   4.697 -0.0569 -0.2908 -0.0066
25531W        W43735   6.067  10.988   4.562  0.1590 -0.3442 -0.0991
25532W        W43736  16.011  14.561  12.512 -0.4292 -0.1125  0.1456
25533W        W43737  13.410  18.609  13.368  0.1716  0.0312  0.1117
25534W        W43738   5.541  12.938   2.129  0.1487  0.2225  0.0634
25535W        W43739   9.735  10.549  13.418 -0.3519  0.1747 -0.2232
25536W        W43740  17.625   1.578  15.423 -0.1675  0.0270 -0.0700
25537W        W43741   1.611   5.636  11.345  0.1432  0.0014 -0.1412
25538W        W43742   1.238   5.051   2.920 -0.3203  0.3304 -0.2021
25539W        W43743  14.486  14.595  11.717 -0.0633 -0.0558  0.0427
25540W        W43744   1.388   7.486  13.402  0.0885  0.0268 -0.2663
25541W        W43745  11.317  16.170   0.434  0.0962  0.0560 -0.0627
25542W        W43746   1.103   2.622  14.482  0.0682 -0.2617  0.0614
25543W        W43747  14.276   5.660  15.301 -0.0420 -0.0127  0.2666
25544W        W43748  12.602  12.368  10.785 -0.0013 -0.1899  0.1358
25545W        W43749  16.778   5.842   5.876 -0.1240  0.2088 -0.0216
25546W        W43750  16.669   8.184  12.208 -0.1000 -0.0070 -0.1305
25547W        W43751  11.393  12.978  11.070 -0.5648 -0.2391  0.2399
25548W        W43752  15.643   5.216  15.210  0.1980  0.0758  0.0487
25549W        W43753   9.818   2.343  10.259  0.2157 -0.1892  0.2459
25550W        W43754  11.433   5.380   0.093 -0.0001 -0.0165 -0.0884
25551W        W43755   4.862  14.774  13.527  0.2997 -0.0085 -0.0861
25552W        W43756   9.704   2.413  13.059 -0.2480  0.0402 -0.0918
25553W        W43757  10.357  11.000  14.965 -0.1195 -0.2920  0.1403
25554W        W43758   4.447   0.795   4.383  0.0582  0.2392  0.1574
25555W        W43759  15.316   4.392   4.029 -0.1405  0.0080 -0.3206
25556W        W43760  15.142  15.231  14.226  0.0279  0.4590  0.1075
25557W        W43761   7.478  18.583   1.298  0.3128  0.1251  0.1785
25558W        W43762  11.332  16.262  11.228  0.1520 -0.0276  0.1633
25559W        W43763   3.712  13.795   0.066  0.2592 -0.0968 -0.1309
25560W        W43764   2.720  12.820   1.489  0.0875  0.2134  0.0851
25561W        W43765   2.332   5.948   4.023 -0.1670 -0.0202  0.2635
25562W        W43766   9.638  16.088  10.779  0.1621 -0.2533  0.2282
25563W        W43767   4.389  10.489   0.754  0.1536 -0.2029  0.1881
25564W        W43768  16.076  15.395  12.483  0.1423  0.0631  0.0368
25565W        W43769   0.369   9.769   4.240  0.1870  0.2286  0.0254
25566W        W43770   5.398  13.135   1.667  0.1734 -0.4387 -0.3135
25567W        W43771  10.757  13.822   3.489 -0.2910  0.1674 -0.1194
25568W        W43772  13.210  17.990  12.963  0.0385  0.1621  0.3128
25569W        W43773  12.147   3.190   2.565 -0.0877 -0.1223  0.1602
25570W        W43774   7.264   1.735   2.849 -0.0679  0.1804  0.2538
25571W        W43775   8.208   4.793  11.234  0.3701  0.0149  0.0033
25572W        W43776   6.480   1.244  12.223 -0.0760  0.2795 -0.1005
25573W        W43777  11.906  18.067   4.434 -0.0844 -0.0761 -0.2885
25574W        W43778  10.142   3.594  13.562  0.0875 -0.0836 -0.2988
25575W        W43779  13.400   7.907   1.638  0.0469 -0.1055 -0.0133
25576W        W43780   0.191  14.887   0.585 -0.2593  0.1758  0.2129
25577W        W43781   9.762  14.331   0.073 -0.0529  0.1009 -0.0461
25578W        W43782  12.950  13.691   0.702  0.2681  0.1988  0.0626
25579W        W43783  15.108   7.840  11.020  0.1057  0.1405  0.0678
25580W        W43784  14.504   1.906   0.427 -0.2291 -0.3118 -0.0118
25581W        W43785  13.585   2.350   0.187  0.0101  0.0714  0.0483
25582W        W43786   5.327  14.070  11.128  0.3220  0.1924  0.1352
25583W        W43787   7.814   0.071  11.937 -0.1825 -0.0344 -0.2039
25584W        W43788  17.080  11.974   3.001  0.0836  0.4109 -0.0894
25585W        W43789   9.349   2.939   5.664 -0.1926  0.0556  0.2515
25586W        W43790   9.800   2.698   2.415  0.0144 -0.2459 -0.0699
25587W        W43791   0.680  13.386  12.687  0.0052  0.0273  0.0316
25588W        W43792  13.354   4.855   0.732  0.1288  0.0442  0.1819
25589W        W43793  12.877   8.583   2.341  0.0511  0.0914  0.2819
25590W        W43794   7.593   1.869  15.046 -0.1164 -0.0145  0.1846
25591W        W43795  13.187  13.395   0.078 -0.0408  0.1246  0.0076
25592W        W43796   6.604  18.597   0.934  0.3141  0.0623  0.5425
25593W        W43797   2.504   6.816  11.402 -0.1224  0.2946 -0.2225
25594W        W43798  14.475   3.530   3.295  0.1933 -0.0482 -0.1807
25595W        W43799  17.362   4.517  11.389 -0.1075 -0.4770  0.1453
25596W        W43800   9.579   2.002   2.661 -0.2456  0.2208  0.0102
25597W        W43801   4.623   0.474  14.135  0.1372 -0.0095  0.0137
25598W        W43802  16.192  12.728   3.126  0.0434 -0.0862 -0.2318
25599W        W43803   0.942  11.820   0.509  0.1432  0.1590 -0.0403
25600W        W43804   5.021  17.491   1.967  0.1349  0.0000  0.0948
25601W        W43805  12.133  14.567  12.115  0.0493 -0.0436 -0.3171
25602W        W43806   6.325  12.069  15.141 -0.4143  0.0285  0.1920
25603W        W43807  14.412   4.576   3.985  0.0997 -0.2800  0.1940
25604W        W43808   5.298  16.259  15.200  0.1806  0.3018  0.0116
25605W        W43809  11.352  15.810  13.843 -0.2045 -0.0804  0.1194
25606W        W43810   6.725  16.778   0.483  0.1817 -0.0614 -0.0122
25607W        W43811  11.558   2.761  12.259 -0.3174 -0.0012  0.1339
25608W        W43812   9.110  12.004  13.252 -0.0634 -0.1760 -0.2409
25609W        W43813   7.750   0.945   0.499 -0.0361  0.0968  0.0039
25610W        W43814   3.560  17.928  13.205  0.5975  0.1689  0.0259
25611W        W43815  18.105  14.910   1.778 -0.2459 -0.2859 -0.1079
25612W        W43816   6.915  15.550   4.282 -0.2319  0.0113 -0.1201
25613W        W43817   0.681  13.475  14.848 -0.0613  0.0529 -0.0461
25614W        W43818  13.045   5.578   0.263  0.2139  0.1490  0.2471
25615W        W43819  15.518   3.804  12.125  0.1951 -0.0609 -0.0957
25616W        W43820   4.876  10.871  13.215 -0.0092  0.1643 -0.4761
25617W        W43821  13.385   0.197  13.900 -0.0495 -0.1987 -0.0381
25618W        W43822  16.720  11.888   0.573  0.0818  0.3369 -0.0347
25619W        W43823   6.811   8.200   1.314 -0.1406  0.0569  0.1777
25620W        W43824   9.309   3.916   1.911  0.1853 -0.2824  0.0898
25621W        W43825  15.220   1.659  11.641 -0.1981 -0.1422 -0.3012
25622W        W43826   1.801  13.663  10.940  0.0097 -0.0052 -0.2037
25623W        W43827   2.500  18.197  15.226 -0.1967  0.0540  0.0041
25624W        W43828   0.612  10.292  11.814  0.0815  0.1103 -0.1930
25625W        W43829  10.675  14.367   0.655  0.0363  0.2786  0.2993
25626W        W43830  11.074   3.486   3.692  0.0044 -0.0947 -0.1834
25627W        W43831   9.765  11.013   1.941  0.2792 -0.0306  0.1570
25628W        W43832  14.494  10.339  13.680  0.1815  0.6002  0.0438
25629W        W43833  11.506   2.365  14.001 -0.0702 -0.0808  0.1510
25630W        W43834   6.086  14.887   0.004 -0.1164  0.0969 -0.0726
25631W        W43835   2.380   6.727   1.324 -0.0138 -0.0904 -0.2623
25632W        W43836   5.867  12.536  12.574 -0.2222 -0.4662  0.3364
25633W        W43837   6.684   6.816  13.803 -0.1620  0.0339  0.0032
25634W        W43838  14.889   8.383  15.238 -0.2366 -0.0406  0.0231
25635W        W43839   0.884   2.360  12.127 -0.0731  0.1329 -0.4495
25636W        W43840  12.044   9.945   5.406  0.0304  0.2085 -0.2367
25637W        W43841   8.951   2.040   1.592  0.0809 -0.1887  0.1857
25638W        W43842   9.494  17.706   2.453 -0.0201  0.2204  0.0137
25639W        W43843   8.045   0.382  13.600  0.3297  0.1016 -0.2164
25640W        W43844   6.095  15.594  14.698 -0.0518 -0.0466  0.0753
25641W        W43845  16.577   5.392   2.279 -0.0154  0.0435  0.0115
25642W        W43846   6.485  10.588   1.655 -0.0768 -0.0879 -0.1205
25643W        W43847   8.363   7.522  14.459 -0.1851 -0.1143  0.3311
25644W        W43848   6.247  14.077  13.840 -0.1907 -0.2196  0.2419
25645W        W43849  18.224   6.197   1.842 -0.0082  0.0759  0.0729
25646W        W43850  13.203   1.333   1.464 -0.4597  0.1522  0.1661
25647W        W43851   1.033   7.838   4.351  0.1728 -0.1812  0.5772
25648W        W43852   5.953   9.500  15.348 -0.0638  0.1465  0.1706
25649W        W43853   1.395   8.710  12.367 -0.0967  0.1836 -0.1287
25650W        W43854  13.463   2.680   2.798  0.2127  0.2470  0.0027
25651W        W43855  18.021   7.534  14.118 -0.1504  0.1214  0.1901
25652W        W43856   5.746   2.812  12.339 -0.1118 -0.0765  0.1656
25653W        W43857  15.728  13.691   3.958 -0.2983  0.0572  0.4139
25654W        W43858   5.584   0.658  12.039  0.1356  0.1837 -0.1783
25655W        W43859  16.026   9.067   2.656  0.4304 -0.1525 -0.2853
25656W        W43860  13.808  17.787   1.712  0.2948 -0.0449 -0.1100
25657W        W43861   5.148   8.960   4.419 -0.0830 -0.0690 -0.1655
25658W        W43862  16.318  13.824   3.486  0.0119 -0.1518  0.4131
25659W        W43863  17.420   1.304   4.732 -0.0550 -0.1113  0.1750
25660W        W43864   1.805  13.405   2.919 -0.0764  0.0356 -0.3490
25661W        W43865   6.149   5.252  12.145  0.0568  0.0880  0.1456
25662W        W43866  15.382   4.986  14.882  0.1896  0.0977  0.0501
25663W        W43867   9.313   1.988   4.196  0.1368  0.2286 -0.4047
25664W        W43868   7.996  16.384  15.325 -0.4365 -0.2229 -0.0030
25665W        W43869  13.347   7.381  14.704 -0.0101  0.3819 -0.1569
25666W        W43870  17.691   9.735   4.583 -0.2140  0.2246 -0.0395
25667W        W43871   5.815  12.512  13.545  0.1170 -0.2325  0.1419
25668W        W43872  17.015   6.522   0.469 -0.2235  0.1030  0.1708
25669W        W43873  14.522   8.111  15.097  0.0378 -0.0143  0.2885
25670W        W43874   9.528  10.674   2.280 -0.1710  0.0511 -0.0961
25671W        W43875   9.874  14.233  14.899 -0.0372 -0.0423 -0.0065
25672W        W43876  11.168  12.343   2.188 -0.2040 -0.2365  0.2658
25673W        W43877  11.676   9.333   4.137 -0.3161 -0.2910 -0.0462
25674W        W43878   2.729  15.836   1.511 -0.2152 -0.0660 -0.1840
25675W        W43879   5.593   6.745  14.918 -0.3196 -0.1772  0.1441
25676W        W43880  14.735  17.457  13.831 -0.0061  0.1049  0.0186
25677W        W43881   4.193  10.982  13.967  0.0941  0.2147 -0.2622
25678W        W43882   8.778   3.612  11.320 -0.1634  0.2739  0.0926
25679W        W43883   9.993   2.202  14.738  0.1554 -0.0589  0.3226
25680W        W43884   0.325   0.349   0.386 -0.0389  0.1870 -0.1539
25681W        W43885   7.381   2.160   2.524 -0.0234 -0.0233  0.4316
25682W        W43886   8.429  10.901  13.210  0.0273 -0.0269 -0.0860
25683W        W43887   8.783   9.675  14.575 -0.3822 -0.0727 -0.2058
25684W        W43888  16.348  12.747   1.848  0.0301 -0.1458 -0.2003
25685W        W43889   6.403  11.499   2.974 -0.2148  0.0193 -0.2413
25686W        W43890   9.867   3.282  14.328  0.1792 -0.0855  0.2817
25687W        W43891   0.637   2.498  10.385 -0.2937  0.1146  0.0384
25688W        W43892  15.125   5.898   5.012 -0.2917 -0.1432  0.1555
25689W        W43893  15.624   4.880   3.401 -0.0608  0.0326 -0.3225
25690W        W43894  14.400   2.395   2.789  0.2292  0.1909  0.0446
25691W        W43895   7.300  13.765   5.279  0.1331  0.0814  0.0873
25692W        W43896   1.430  15.838   2.249 -0.2477 -0.0297 -0.0060
25693W        W43897  14.654  11.668  11.113  0.1356  0.2181 -0.2312
25694W        W43898   5.162   7.536   2.035 -0.0086  0.0271  0.0570
25695W        W43899   9.387   5.399   1.775 -0.1716  0.2689 -0.1601
25696W        W43900  10.733  12.272  14.704 -0.2908 -0.0558  0.3083
25697W        W43901  15.608  14.400  12.205 -0.2513  0.1828 -0.2412
25698W        W43902  15.656  13.292  11.030  0.0100  0.1882  0.1214
25699W        W43903  13.280  13.532  14.482  0.1383  0.2234 -0.0761
25700W        W43904  14.165   0.526  11.768  0.1766 -0.0014  0.1867
25701W        W43905  10.038   5.501   4.440 -0.2034 -0.1883 -0.0531
25702W        W43906  11.760  16.296  14.784  0.1159  0.2279  0.2855
25703W        W43907   9.984   6.544   3.891 -0.1314 -0.2570  0.1837
25704W        W43908  18.402   7.252  14.338 -0.0712  0.1993  0.2343
25705W        W43909   2.695  17.119   3.885  0.0327 -0.0921  0.1326
25706W        W43910   5.204   4.281  13.298  0.0059 -0.1070  0.1525
25707W        W43911  10.234   2.900   4.120 -0.0428  0.0494 -0.2530
25708W        W43912   8.276  11.721  11.470 -0.0920 -0.2775 -0.3048
25709W        W43913  16.842   3.200  14.201 -0.0557  0.4228  0.0891
25710W        W43914   8.739  18.338  11.628  0.0490 -0.1675 -0.0761
25711W        W43915  17.860  16.417   1.497 -0.2756 -0.1046  0.0314
25712W        W43916  15.105   1.492   5.222 -0.1250  0.1588  0.1378
25713W        W43917  14.708  18.470  15.125  0.2071 -0.1600 -0.2753
25714W        W43918  13.363   0.290   9.971 -0.0751  0.2408 -0.1167
25715W        W43919  15.341   5.110   2.240  0.3949  0.3585 -0.1947
25716W        W43920   5.680  13.952  13.095 -0.1387 -0.3234 -0.1378
25717W        W43921  14.483  17.204   4.071  0.0096 -0.0107 -0.0418
25718W        W43922   6.434  18.196  13.822  0.2206  0.2140  0.0662
25719W        W43923  15.819  15.794   1.542 -0.0367  0.0384 -0.0131
25720W        W43924   2.962  13.919  12.317  0.0113 -0.2672  0.0087
25721W        W43925   5.747   9.477   3.144 -0.0403  0.0467 -0.0330
25722W        W43926  11.027   9.104  13.779 -0.1478 -0.0012  0.0696
25723W        W43927  14.969   8.403   2.214  0.1016 -0.0578 -0.0100
25724W        W43928   2.012   5.577  13.602 -0.0682 -0.0389  0.0323
25725W        W43929  10.032  15.844   2.060  0.0292  0.0503 -0.3052
25726W        W43930   8.524   6.236   4.318 -0.1334 -0.1060 -0.2024
25727W        W43931  10.514   7.183   4.199  0.0036 -0.1025 -0.0155
25728W        W43932  15.130  10.368   3.974  0.1704 -0.1147 -0.2347
25729W        W43933   2.130   7.627   1.462 -0.0931 -0.0732 -0.0174
25730W        W43934   1.192   1.764   0.046  0.0109 -0.2015 -0.0394
25731W        W43935   9.489  13.411  14.596  0.2244  0.1798  0.0263
25732W        W43936  16.541   2.745  15.083 -0.2755 -0.0887 -0.1913
25733W        W43937   7.618  13.678  12.461 -0.2352 -0.0329  0.2406
25734W        W43938   0.110   1.039   3.494 -0.2690 -0.0233  0.0960
25735W        W43939   0.868   1.142  15.107  0.1496 -0.0551  0.0809
25736W        W43940  11.703  13.497  12.454  0.1554  0.2568  0.0260
25737W        W43941   1.415   5.097  15.087  0.2575  0.1446 -0.0118
25738W        W43942  12.551   2.129  12.787 -0.0014  0.1461  0.1904
25739W        W43943   6.780  16.275   0.177  0.1044  0.0094  0.0088
25740W        W43944   7.925  10.780  11.423 -0.0675  0.0179 -0.1366
25741W        W43945  14.429  13.649  14.933 -0.2821  0.0376 -0.2553
25742W        W43946  17.939   3.923   2.040 -0.0516  0.1117 -0.3973
25743W        W43947  13.362   8.471  10.321  0.1536 -0.0088 -0.0062
25744W        W43948  12.249  10.839   0.789 -0.2428  0.0619 -0.1618
25745W        W43949  14.956  10.661   2.731 -0.0733 -0.1653  0.0861
25746W        W43950  13.034  13.071   4.681  0.2230 -0.2457  0.2807
25747W        W43951  13.765   3.495   0.694  0.0236  0.0264 -0.2240
25748W        W43952   0.256   2.123   1.786  0.0489 -0.1170 -0.2029
25749W        W43953   9.111   3.419   1.946 -0.1503 -0.1215 -0.0873
25750W        W43954  16.029   6.207  11.325  0.0449  0.1196  0.0965
25751W        W43955   1.244   5.607  13.036  0.0333 -0.0098  0.1036
25752W        W43956   7.884   4.092   2.506  0.4413  0.0709 -0.3514
25753W        W43957  11.386  13.924   1.064 -0.0170 -0.2396 -0.1629
25754W        W43958  11.453  16.277   2.667  0.2447 -0.0295 -0.3432
25755W        W43959   0.897   6.180  11.997  0.1149  0.1925 -0.1265
25756W        W43960  15.850   7.237   0.924  0.3978  0.0612 -0.1694
25757W        W43961  12.766   5.004   3.000 -0.3811 -0.0636 -0.0771
25758W        W43962   7.054   6.187   4.359  0.0035 -0.1304 -0.2581
25759W        W43963  13.919  11.277  11.401  0.0626  0.2031  0.0110
25760W        W43964  10.022  15.107  14.390 -0.0375 -0.1389 -0.1074
25761W        W43965   0.037  11.420  15.017  0.2833 -0.0415  0.2136
25762W        W43966  16.257  15.925   3.452 -0.1862 -0.0304 -0.1623
25763W        W43967   2.989  11.238  14.696  0.0969 -0.3254  0.0178
25764W        W43968  16.729  10.257   2.624  0.1181  0.1097  0.2300
25765W        W43969   8.488   4.004   2.220 -0.3407  0.1327 -0.1255
25766W        W43970   7.950   5.582  14.372  0.0700  0.0122  0.1395
25767W        W43971  10.530  16.759   1.257  0.0023 -0.1909 -0.1065
25768W        W43972   5.091  11.224  11.924  0.3013  0.0120  0.0688
25769W        W43973   0.967  11.968  12.384  0.1551  0.1924  0.0288
25770W        W43974  15.001  10.990  11.769  0.0739 -0.2776 -0.1373
25771W        W43975   9.231   2.700  11.279  0.0582 -0.0518  0.2541
25772W        W43976   0.741  15.858   5.796  0.1335 -0.0474 -0.1704
25773W        W43977  16.138   2.244  13.446  0.1657  0.2740 -0.1283
25774W        W43978   4.648  18.307   0.702  0.0487  0.1000 -0.0609
25775W        W43979  15.744   3.412   3.320 -0.0240 -0.1153 -0.0585
25776W        W43980   1.578   8.386   0.157 -0.0540  0.3885  0.1173
25777W        W43981  13.754  18.409   3.620 -0.2624 -0.0451  0.2069
25778W        W43982   2.317   0.127   1.017 -0.1217 -0.1820  0.2650
25779W        W43983   3.668   4.417   2.900  0.0514  0.1977  0.0578
25780W        W43984   3.909   8.324  10.803 -0.0516 -0.0295 -0.3232
25781W        W43985   1.295   4.904  12.410 -0.2884  0.1255 -0.3539
25782W        W43986   9.170  11.767   1.786  0.3595  0.0829  0.0127
25783W        W43987   2.589  15.197   3.483 -0.1181 -0.1947 -0.0377
25784W        W43988  17.644  11.121   4.525 -0.2186 -0.0910  0.2031
25785W        W43989  11.441  11.638  13.940 -0.2460  0.1433  0.2946
25786W        W43990  16.893  14.360   1.452 -0.0517 -0.2375  0.0239
25787W        W43991   6.208   8.207  11.979  0.2169 -0.1571 -0.2238
25788W        W43992   9.202  10.925   1.945  0.0384 -0.1559 -0.3114
25789W        W43993   3.630   2.474   1.257  0.1119 -0.3532  0.2458
25790W        W43994  18.263  16.722  13.191 -0.1383  0.2758 -0.0086
25791W        W43995   3.723  11.737   1.292 -0.2379  0.0603  0.0556
25792W        W43996  18.381  10.963  13.345 -0.0718  0.1724 -0.2097
25793W        W43997   6.235   3.442   0.331 -0.1153 -0.1012 -0.0860
25794W        W43998  17.178   7.481  14.364 -0.0345 -0.3404  0.1548
25795W        W43999   7.042  17.385  12.597 -0.3574  0.3296 -0.2255
25796W        W44000   2.376   2.157  14.768  0.0940  0.0416 -0.1566
25797W        W44001  17.060  17.570  13.362 -0.1486  0.1111 -0.0390
25798W        W44002  15.157   0.216  11.956 -0.1144  0.0066 -0.1503
25799W        W44003  17.371   0.366   1.274 -0.0370  0.4270  0.1598
25800W        W44004   5.566  10.645  14.958  0.1878 -0.0857 -0.1590
25801W        W44005   1.974  13.086  13.685 -0.1949 -0.0933 -0.1192
25802W        W44006   2.399  15.630   0.562 -0.3873 -0.1416  0.1750
25803W        W44007   8.233   8.441   9.715 -0.0112  0.1208 -0.1475
25804W        W44008   8.613  18.432   2.222  0.0827  0.2708  0.0699
25805W        W44009  10.565  15.784   5.129 -0.0891 -0.0158  0.0894
25806W        W44010   0.937   0.950   0.111 -0.0765  0.2657  0.2174
25807W        W44011  13.635  18.549   1.739 -0.2212 -0.0292  0.1264
25808W        W44012  10.939  11.706  10.510 -0.4874  0.1161 -0.2013
25809W        W44013   5.446   9.081  13.855 -0.0151  0.0492  0.1504
25810W        W44014   2.845   6.284   2.174 -0.1747  0.2404 -0.0037
25811W        W44015  13.088  17.672  11.848 -0.1162 -0.2216  0.0116
25812W        W44016   4.820   0.282   2.076  0.1182 -0.1509 -0.1995
25813W        W44017   1.950  15.021  12.351  0.1221 -0.0724  0.0783
25814W        W44018   5.356   7.347   2.463  0.2224 -0.3240  0.3052
25815W        W44019   8.022   2.554   3.115 -0.2175 -0.0713  0.4767
25816W        W44020  17.187   5.339   9.816  0.1778  0.1866 -0.0832
25817W        W44021   5.016   3.566  13.781 -0.0446 -0.1202 -0.0836
25818W        W44022  10.644   0.864   1.557  0.2391  0.1041 -0.1557
25819W        W44023  12.684   6.909   2.395  0.0793 -0.2541  0.1158
25820W        W44024  10.550   9.480   2.035  0.0104  0.2931 -0.1053
25821W        W44025   0.041   9.276  13.158 -0.1448  0.1537 -0.1307
25822W        W44026  10.212  13.365   2.895 -0.2038 -0.2433 -0.0857
25823W        W44027   3.354  13.057  11.445  0.2719  0.0568  0.1712
25824W        W44028   9.781  14.907   3.506  0.1086  0.0619  0.2152
25825W        W44029  13.862   5.890  13.894  0.0788  0.0654 -0.2681
25826W        W44030   7.362   6.030   4.678 -0.2339  0.1268 -0.1139
25827W        W44031  16.124   5.188   3.650 -0.1109 -0.2005 -0.0057
25828W        W44032   5.081  13.171   2.831 -0.0333 -0.0510  0.1524
25829W        W44033   0.788  18.477  14.154  0.0799  0.2002 -0.0976
25830W        W44034  13.132  15.230   2.920  0.0624  0.0514 -0.0470
25831W        W44035   4.855  18.395  11.370 -0.0278  0.0269  0.0088
25832W        W44036   7.191  12.926  12.893  0.0643  0.0808  0.0085
25833W        W44037  12.833  16.760   2.678 -0.2131 -0.0735  0.1338
25834W        W44038  12.479  16.110   1.918  0.0762 -0.3421  0.0889
25835W        W44039  12.590   1.684  15.346  0.2276 -0.1234 -0.0180
25836W        W44040   0.137   2.840   1.468 -0.2507  0.0725 -0.1134
25837W        W44041   9.639  11.856   4.518  0.1783  0.0958  0.2888
25838W        W44042   9.028   5.816   1.658  0.0144 -0.4119 -0.2143
25839W        W44043   2.748   8.936  11.109  0.2813  0.3428  0.1703
25840W        W44044  13.225  15.298   3.457 -0.0148  0.0974 -0.2624
25841W        W44045   2.656   2.105   2.832 -0.1792 -0.5267 -0.0364
25842W        W44046  13.614   9.616   3.506  0.0265  0.0958  0.0552
25843W        W44047   1.318  17.697  14.691  0.0653  0.0606 -0.1770
25844W        W44048   0.382   3.733  15.363  0.2822  0.1117  0.3831
25845W        W44049   0.639   8.489   0.944  0.3694 -0.1685 -0.1316
25846W        W44050   2.000   1.948   4.626 -0.2814 -0.0349  0.1218
25847W        W44051  13.955   2.535  12.777 -0.0880  0.1450 -0.2559
25848W        W44052   8.148  13.943   5.430 -0.2646  0.0822  0.1291
25849W        W44053  10.763   6.793   4.031 -0.1609  0.3019 -0.3390
25850W        W44054   3.138  14.500   4.495  0.0386 -0.0357 -0.1295
25851W        W44055  15.268   5.541  15.063  0.0523 -0.1318  0.1356
25852W        W44056   6.811   0.890  14.607 -0.1047  0.3600  0.0742
25853W        W44057  13.998   8.169  11.266 -0.0416  0.0039  0.4942
25854W        W44058  14.865  12.261   2.940  0.0663 -0.2438  0.3544
25855W        W44059  18.448   2.926   4.236 -0.2612  0.0563 -0.2074
25856W        W44060  13.873   6.380   0.239  0.3880 -0.3341 -0.0116
25857W        W44061  16.281  14.321   2.172  0.0866 -0.1070 -0.3534
25858W        W44062   3.675   1.057  14.888 -0.0180  0.1262 -0.0171
25859W        W44063  11.498   5.969  10.590 -0.0594  0.0556 -0.0952
25860W        W44064   5.221  14.423   5.692  0.1703  0.0870 -0.1298
25861W        W44065  11.053   0.405  12.282  0.4236 -0.0550 -0.0071
25862W        W44066   3.099  17.963  13.480  0.1891 -0.1385  0.1348
25863W        W44067   4.560   4.870   0.194 -0.0378 -0.1030  0.0917
25864W        W44068   4.822  15.628   4.276  0.4513 -0.3636 -0.0085
25865W        W44069   5.370  17.406  14.257 -0.0027 -0.1518 -0.0202
25866W        W44070   0.465  16.721   2.021 -0.1550 -0.0687 -0.1310
25867W        W44071   6.935  16.413   1.247  0.4180 -0.2615 -0.1658
25868W        W44072   9.451  18.612  12.367  0.0339 -0.0931  0.1675
25869W        W44073  13.348  15.559  13.334 -0.0332  0.0987  0.0275
25870W        W44074   7.835  10.423   5.437  0.1994  0.1035  0.1146
25871W        W44075   2.340  14.922   2.501  0.0960 -0.0666  0.1228
25872W        W44076  15.793  16.243  14.750 -0.2218 -0.1381 -0.0377
25873W        W44077  12.196   8.141  12.340 -0.3024  0.2758  0.2793
25874W        W44078   8.900  17.926  13.848  0.1874  0.0527 -0.2700
25875W        W44079  17.064   0.587  11.997 -0.0799  0.1438 -0.0688
25876W        W44080  15.448  13.089   0.366  0.1680  0.1869 -0.1747
25877W        W44081   8.607   7.713  12.319  0.0730 -0.1709  0.0225
25878W        W44082  11.942  15.147  12.233  0.0482 -0.1739 -0.4294
25879W        W44083  18.260  14.291   3.773 -0.0347  0.3321  0.0528
25880W        W44084  13.017   4.389   4.152 -0.3842  0.0415 -0.1687
25881W        W44085  14.513  10.021  12.291 -0.0619  0.2053  0.1337
25882W        W44086   6.488   8.664   9.873  0.0198 -0.0162  0.0795
25883W        W44087  12.819   6.596  13.505 -0.0417  0.1389 -0.0265
25884W        W44088  16.973  10.852   1.769  0.0367  0.0632  0.0117
25885W        W44089   2.009  17.130   4.505  0.0725 -0.1585 -0.1517
25886W        W44090   7.161   1.541  14.980 -0.1417 -0.3481  0.1909
25887W        W44091  14.438   0.073   0.578 -0.0326  0.0395  0.0224
25888W        W44092  13.363  15.796   1.448 -0.0297  0.1415 -0.0833
25889W        W44093   8.411  14.596   3.525 -0.0668  0.1744  0.1432
25890W        W44094   9.023  15.246   2.690 -0.2526  0.2107  0.1501
25891W        W44095  15.700   6.657   4.769  0.0045 -0.1553  0.0142
25892W        W44096  16.995  14.728  13.462 -0.3113 -0.1476  0.1201
25893W        W44097   1.126  13.972   1.537 -0.2142 -0.2914  0.2792
25894W        W44098   9.857  16.455   1.933  0.3774  0.3794 -0.0781
25895W        W44099   8.753  16.012   2.500 -0.1546  0.2352  0.1587
25896W        W44100   9.466  17.707  11.628  0.0158  0.4275 -0.0551
25897W        W44101   6.835   0.870  13.043 -0.0587 -0.1523  0.2344
25898W        W44102  11.460   7.388   2.937  0.1868 -0.2659  0.2161
25899W        W44103  12.621  18.608  14.414  0.0025  0.2120 -0.1901
25900W        W44104   8.854   9.510  15.378 -0.2079  0.1161  0.2806
25901W        W44105  13.013   4.922   3.495  0.1533  0.0115 -0.0204
25902W        W44106   5.271  10.949  12.472 -0.2943  0.0572  0.0748
25903W        W44107  11.258   4.419  13.049  0.0731  0.1788  0.0940
25904W        W44108  10.834   1.546  11.557 -0.1277  0.0140  0.0348
25905W        W44109  17.450  17.422   0.130  0.1947  0.0318  0.0800
25906W        W44110  18.598   4.802   2.972 -0.2727  0.2553  0.0035
25907W        W44111   3.879  16.732   4.953 -0.4875 -0.0333  0.1799
25908W        W44112  15.037  17.003  11.755 -0.0274  0.0182  0.2018
25909W        W44113   9.996  11.468   1.872  0.0061 -0.2469  0.1779
25910W        W44114   5.218   9.945  12.852  0.0777 -0.0170 -0.1094
25911W        W44115  13.202  17.585  11.327 -0.0849  0.2612  0.1964
25912W        W44116   4.517  15.340  13.268 -0.2282 -0.1133 -0.1587
25913W        W44117   7.814   8.904   2.283  0.0997 -0.0109 -0.1304
25914W        W44118   5.642   1.904  12.743 -0.1024  0.2153 -0.2178
25915W        W44119   2.327   2.707   4.252 -0.2027 -0.0475 -0.1798
25916W        W44120  11.763   6.978   0.967  0.0981  0.2639  0.0700
25917W        W44121   5.712   7.195   3.969  0.0094 -0.0124 -0.3138
25918W        W44122   4.157  11.025   1.486  0.1236 -0.0087  0.3040
25919W        W44123  10.691   0.310  11.250  0.0135  0.0119 -0.1008
25920W        W44124  16.708  17.077  15.384  0.3674  0.0197 -0.1299
25921W        W44125  12.925  15.835   1.724 -0.2816  0.0484  0.1395
25922W        W44126  15.010   3.183   9.473  0.1341 -0.1594  0.2176
25923W        W44127  18.348  10.023  14.779  0.3093 -0.0276  0.0508
25924W        W44128   2.737   6.664  13.420  0.2571  0.0462  0.1837
25925W        W44129  14.522   6.366   4.644  0.0365  0.0862 -0.1083
25926W        W44130  14.133  16.129  12.016  0.2512  0.2205  0.0135
25927W        W44131  15.914   1.155  11.185 -0.0525 -0.0852  0.3375
25928W        W44132   7.747  17.339  13.192 -0.1385 -0.1834  0.2138
25929W        W44133   8.592   3.580  13.872  0.1207  0.1838 -0.0229
25930W        W44134  14.520  12.620   3.114  0.2019  0.0763 -0.1169
25931W        W44135  14.410   7.329  12.980  0.3207 -0.1417  0.3005
25932W        W44136  12.025  11.431   2.905 -0.0323 -0.1495 -0.0477
25933W        W44137   6.905  11.958   4.981 -0.3606 -0.0117 -0.0890
25934W        W44138   8.136  17.601   0.581  0.1760 -0.2501 -0.0208
25935W        W44139   4.781   6.240   0.229 -0.0115  0.0418  0.0041
25936W        W44140   7.404  16.420   1.095  0.0813 -0.1599 -0.0317
25937W        W44141   3.877  12.414   1.788  0.1964  0.2331 -0.0487
25938W        W44142   9.101   2.382  12.879 -0.1011 -0.0405 -0.0264
25939W        W44143  13.825   3.506   2.704  0.2307  0.1298 -0.2159
25940W        W44144   1.003   2.736   3.029  0.0672  0.0656  0.1871
25941W        W44145  10.637  17.395   2.919  0.2873  0.0759  0.1446
25942W        W44146   8.290   6.056   1.353  0.3241 -0.0602  0.1816
25943W        W44147   7.431   7.981   1.998  0.0261 -0.1441 -0.0305
25944W        W44148  13.444  14.191   3.757 -0.6249 -0.1426  0.0734
25945W        W44149   4.845  16.300   5.058 -0.0751  0.0282  0.0634
25946W        W44150  15.079   9.173   0.980  0.3389  0.2554  0.3021
25947W        W44151   3.291  18.344  11.685 -0.0290 -0.5050 -0.1334
25948W        W44152  15.957   0.691  13.228 -0.2625 -0.1706 -0.2713
25949W        W44153   4.271   1.114   1.088 -0.0149  0.1385 -0.4206
25950W        W44154   4.832   8.977   1.665  0.3182  0.3965 -0.2927
25951W        W44155   5.560   1.958  14.160  0.0948 -0.0841 -0.0084
25952W        W44156  11.163   9.989   3.319  0.4110  0.0320 -0.3965
25953W        W44157  10.420  16.367   4.219  0.1793 -0.1237 -0.3115
25954W        W44158   7.751   7.855   1.596 -0.1327 -0.2686 -0.1600
25955W        W44159  14.080   3.769   0.464 -0.0321  0.3013 -0.2205
25956W        W44160   7.233  13.125   4.333 -0.0538  0.0439 -0.0901
25957W        W44161   5.957  16.823   2.766 -0.0711  0.1879  0.1282
25958W        W44162  10.761   5.930   2.687 -0.1880  0.1384 -0.2216
25959W        W44163  14.609  13.942  12.473 -0.1535 -0.3258  0.1244
25960W        W44164  14.113  17.876  11.183 -0.3763 -0.2901  0.0164
25961W        W44165   9.722  16.634  13.711 -0.0852 -0.1151 -0.1762
25962W        W44166  12.847  11.512   0.741  0.3141 -0.1831  0.2392
25963W        W44167   9.623  16.376   2.354  0.0275  0.0673 -0.0376
25964W        W44168  10.144   3.900  12.373 -0.0737  0.1687  0.1108
25965W        W44169   5.118  13.622   2.641 -0.1014  0.1078  0.1636
25966W        W44170  11.839  16.313   3.611 -0.2332  0.1336 -0.0731
25967W        W44171  12.799   6.784  11.150  0.0679  0.2245  0.2030
25968W        W44172  13.696   9.083  11.615 -0.2098  0.0073  0.1072
25969W        W44173   7.456  10.778   2.124 -0.0532 -0.1088  0.2164
25970W        W44174   6.871  12.798   0.275  0.0876  0.1221 -0.0636
25971W        W44175   8.701  10.630  11.296 -0.0467  0.2943  0.0842
25972W        W44176   9.090   6.156  10.676  0.0662 -0.2142  0.1282
25973W        W44177  10.102  10.133  13.437 -0.2117 -0.3228 -0.0343
25974W        W44178   8.762   6.963  14.109  0.0725 -0.2245  0.1863
25975W        W44179  12.844   9.428  13.354  0.0097  0.2613 -0.1813
25976W        W44180   8.903   8.280   1.541  0.1070 -0.1871 -0.2226
25977W        W44181  13.224   2.679   1.565  0.2540  0.3823  0.4880
25978W        W44182  14.746   4.412   4.462  0.1924  0.1723 -0.0150
25979W        W44183  17.857   3.772  13.633 -0.1797 -0.1151 -0.1533
25980W        W44184   9.508  13.855   4.234  0.0250 -0.3600  0.3394
25981W        W44185   9.828  14.969   2.583 -0.2146  0.0689  0.1537
25982W        W44186   3.888  18.580   3.491 -0.0774 -0.0639 -0.0571
25983W        W44187  14.763   7.481   4.731  0.0707  0.0365  0.1973
25984W        W44188  15.329  10.099   2.032  0.0023 -0.0285  0.0931
25985W        W44189   7.161  13.424  11.900 -0.1874  0.3726 -0.2698
25986W        W44190  13.042   7.700   0.452  0.0175 -0.1241  0.2264
25987W        W44191  16.495   5.727  10.044  0.0814  0.1185 -0.2341
25988W        W44192   1.781   0.592  12.095 -0.0136  0.2177 -0.0365
25989W        W44193  12.853   7.069  14.027 -0.0110 -0.3336 -0.3422
25990W        W44194  18.055   3.586   2.929 -0.0886 -0.0331 -0.0827
25991W        W44195  16.452   1.293  12.446 -0.0058  0.1377  0.1008
25992W        W44196  16.724   2.620  10.657  0.1382  0.2048 -0.3048
25993W        W44197   5.668   3.597  12.273 -0.1839 -0.2056 -0.0147
25994W        W44198  16.300   3.869  11.613  0.1911 -0.0965 -0.0565
25995W        W44199  12.400  15.164  13.463  0.1431 -0.0408 -0.0308
25996W        W44200  13.150  12.832   0.224 -0.1026 -0.3081 -0.0538
25997W        W44201  10.179   2.959   2.553  0.0248  0.0110 -0.1825
25998W        W44202   6.987  17.028  13.371  0.0386  0.0192 -0.1588
25999W        W44203   5.305   9.040  14.952 -0.0567  0.0035  0.4215
26000W        W44204   5.616  15.307   5.085 -0.1201  0.0651  0.0127
26001W        W44205  11.027  17.291  11.320 -0.2297 -0.2892 -0.0523
26002W        W44206   4.525   1.276  15.298  0.0400  0.2389 -0.0838
26003W        W44207   4.993  15.614  13.200 -0.0921 -0.2444 -0.2271
26004W        W44208  13.169  16.229   1.520  0.0944  0.0770 -0.0865
26005W        W44209  13.685   2.231  12.026  0.0463 -0.1605 -0.0581
26006W        W44210   3.573   2.833  12.961 -0.0682 -0.0776 -0.1071
26007W        W44211  16.367   5.587   1.862  0.1411  0.0683  0.0921
26008W        W44212  12.722  17.099  14.157  0.1905  0.2125 -0.0142
26009W        W44213  11.224   2.616   4.182  0.0674  0.1259 -0.2902
26010W        W44214  14.036  10.205   3.052 -0.0880 -0.0072  0.0700
26011W        W44215  16.951   6.449  12.949 -0.1171  0.0287  0.0627
26012W        W44216   7.494  15.359  13.436 -0.0502 -0.1463  0.0937
26013W        W44217   0.524  15.221   3.136 -0.1099 -0.2230  0.0539
26014W        W44218   4.196  17.948  15.370 -0.0267 -0.2196 -0.0369
26015W        W44219  16.863  12.770  15.010 -0.0707  0.1462  0.0257
26016W        W44220  17.148   2.814  10.669  0.0635 -0.0639  0.0102
26017W        W44221   6.968  13.951   2.689 -0.3535 -0.0854  0.3004
26018W        W44222  15.873  15.259   4.164  0.1602 -0.0971 -0.0511
26019W        W44223   9.348   9.147   3.753 -0.0660 -0.1640  0.0667
26020W        W44224   2.419  16.442  12.743  0.0832 -0.1074 -0.3173
26021W        W44225   7.350   8.797  14.211  0.0514 -0.1115  0.2020
26022W        W44226   6.814   7.822  13.991 -0.1228  0.1304  0.2203
26023W        W44227  14.820  17.873   3.346  0.1651 -0.0589  0.0073
26024W        W44228   1.563  14.780  14.469 -0.2613  0.0292  0.4094
26025W        W44229  16.211   6.561  12.566  0.1271 -0.1261  0.0126
26026W        W44230   6.037   5.910  11.403  0.1402  0.2288  0.0599
26027W        W44231   1.775   8.411  13.632  0.2073  0.2992 -0.1003
26028W        W44232   3.031   0.321   1.766 -0.2159 -0.1132 -0.1278
26029W        W44233  12.898   4.962   0.946  0.0286 -0.4551 -0.1675
26030W        W44234   3.715   6.817   0.583 -0.2551  0.0008  0.0987
26031W        W44235  12.249  18.190  12.754  0.0597 -0.1120  0.4888
26032W        W44236  15.165  17.072   4.485 -0.0864 -0.3026  0.0691
26033W        W44237  11.088   6.772   3.048 -0.0077  0.0084 -0.0406
26034W        W44238  12.954   1.147   2.184 -0.1010  0.0673  0.0358
26035W        W44239  16.808  14.062  15.130 -0.0071 -0.1360  0.2156
26036W        W44240   4.572   8.982  14.918 -0.0905 -0.2024 -0.1604
26037W        W44241   2.803  18.002  14.376  0.0659 -0.0471  0.1675
26038W        W44242  11.479   3.781   4.462 -0.5010  0.2767  0.1604
26039W        W44243   9.951   9.780   0.854 -0.3760 -0.4590  0.0462
26040W        W44244  12.768   9.817   0.231  0.2056 -0.1344  0.1570
26041W        W44245   5.527   0.771  11.241  0.1106 -0.2436  0.1898
26042W        W44246   0.510   1.262  10.876  0.2110 -0.5046 -0.0291
26043W        W44247   5.083  10.601  11.303 -0.3325 -0.0956 -0.1284
26044W        W44248   4.292   3.429   3.627 -0.1199 -0.1782 -0.2593
26045W        W44249   1.584   3.515   0.606  0.3135  0.0423  0.2050
26046W        W44250  10.829  15.635   0.886  0.0985  0.3138  0.1707
26047W        W44251   0.398   0.696  14.886  0.0013  0.2627  0.0738
26048W        W44252  15.566   9.128   1.128 -0.3183 -0.2669 -0.1771
26049W        W44253   1.059   2.735   0.742  0.0111 -0.0141 -0.2109
26050W        W44254   4.884   7.774   1.655 -0.4514 -0.1822  0.0620
26051W        W44255  13.575   3.506   1.665  0.0833  0.0129  0.3031
26052W        W44256  11.309  12.159   3.071  0.2654  0.0745  0.1448
26053W        W44257   2.802   7.087   2.566 -0.1402 -0.2107  0.3352
26054W        W44258  18.473  13.519   5.473 -0.0145 -0.0643 -0.1528
26055W        W44259  11.248   2.341  13.432  0.0622 -0.0986  0.0880
26056W        W44260   1.869   8.900   0.574  0.4279 -0.2427 -0.1596
26057W        W44261   5.647   3.539  11.621  0.1312 -0.0968  0.0428
26058W        W44262   8.588   5.603  10.767 -0.0293 -0.2270  0.0620
26059W        W44263  18.181  18.057   2.177  0.1410  0.1847 -0.0290
26060W        W44264  13.769  13.479   1.078 -0.2095 -0.0165 -0.3985
26061W        W44265   5.339   5.718  14.479 -0.2654 -0.1937  0.3046
26062W        W44266  15.686  15.186  11.349  0.2550 -0.0596  0.2895
26063W        W44267   7.505   6.472  12.644 -0.0350 -0.0076  0.1715
26064W        W44268   0.693   4.538  11.268 -0.0593  0.0434 -0.1107
26065W        W44269  10.271   7.826   1.769  0.0207  0.3444 -0.6058
26066W        W44270   9.931   9.470  14.121  0.1442 -0.3719 -0.2087
26067W        W44271   2.428  11.246  13.469 -0.0921  0.1228  0.0272
26068W        W44272  13.325   6.922   0.968  0.2569  0.0686 -0.2742
26069W        W44273  17.972  13.740   1.469 -0.2540  0.2670 -0.1292
26070W        W44274   3.469   8.205   0.579 -0.0001 -0.1875  0.0338
26071W        W44275  16.331  16.551  12.748 -0.1616  0.0930  0.2208
26072W        W44276  18.389   6.600  12.377  0.2550 -0.0441  0.1312
26073W        W44277  10.453  14.690  11.779  0.1629 -0.1222 -0.1768
26074W        W44278   1.457   9.845   4.309  0.1619  0.3458  0.0631
26075W        W44279   2.236  12.434  15.130  0.2603 -0.5782  0.0195
26076W        W44280  14.200  15.270   1.243  0.2838 -0.3035  0.0644
26077W        W44281   7.725   1.362  11.224 -0.3328 -0.0234  0.0372
26078W        W44282  16.181   7.785   2.369  0.0546  0.1222 -0.1695
26079W        W44283   9.554   9.858  12.528 -0.1477  0.0694 -0.1284
26080W        W44284   2.266   5.573  14.840  0.0773 -0.1347 -0.1652
26081W        W44285   1.841  18.103   5.015 -0.0309  0.0703 -0.1151
26082W        W44286  11.231  16.716  14.105 -0.2199  0.1006  0.1557
26083W        W44287   6.161  15.508  14.230  0.1321 -0.1386  0.0640
26084W        W44288   3.324   5.497  14.558 -0.0706 -0.1232 -0.0429
26085W        W44289  11.103  17.130  13.797 -0.0264  0.0571 -0.1032
26086W        W44290   2.029  13.711  12.651  0.2858  0.0496 -0.4549
26087W        W44291  15.822  10.353  13.108  0.0855  0.2508 -0.2191
26088W        W44292   0.522   6.112   1.066  0.0032 -0.0296  0.3016
26089W        W44293   5.967   8.560  11.631 -0.4335  0.1850 -0.0329
26090W        W44294  14.267   2.856   3.043  0.1292 -0.2732  0.2990
26091W        W44295   2.238   1.367  15.198 -0.3947  0.1482  0.1628
26092W        W44296  17.276  13.430   1.167  0.2436  0.3179  0.0358
26093W        W44297   4.820  16.366  14.998  0.1048 -0.1610  0.2024
26094W        W44298   7.118  17.326  14.728  0.1325 -0.3078  0.2248
26095W        W44299  17.507   6.030   4.308 -0.2345  0.0614  0.2110
26096W        W44300   9.349   6.019  13.262  0.1413  0.0085 -0.0993
26097W        W44301  16.482  17.944   1.205 -0.3876 -0.1014  0.2849
26098W        W44302   4.133   0.423   3.262 -0.0273  0.0107 -0.1731
26099W        W44303   9.093  15.827   6.003  0.2049  0.1490 -0.0883
26100W        W44304   7.607   3.928  14.584  0.0690 -0.2374  0.5518
26101W        W44305   5.458  13.294  12.512 -0.3669  0.1271 -0.0978
26102W        W44306   5.198  14.846  14.922  0.1516  0.0019 -0.0938
26103W        W44307   6.816   1.382   5.354 -0.4332  0.2277  0.1604
26104W        W44308  17.885  10.344   2.147 -0.0077  0.0296 -0.2263
26105W        W44309  15.592  15.494  12.570  0.3878  0.0807 -0.0019
26106W        W44310   8.389   8.929   3.173  0.0509  0.0239  0.0075
26107W        W44311  14.117  18.282   1.319 -0.0996  0.0883 -0.2970
26108W        W44312  13.342  15.999  13.051  0.1141  0.1104  0.2772
26109W        W44313   9.182  11.730  12.877 -0.0052 -0.2039  0.1080
26110W        W44314  15.494  16.424   0.214  0.1852  0.0576  0.0638
26111W        W44315   9.877   2.687  13.639  0.0591 -0.0676 -0.1342
26112W        W44316  14.885  14.968   3.596 -0.0827 -0.1775 -0.4168
26113W        W44317   8.019   0.478  12.253  0.1775  0.2518 -0.1204
26114W        W44318  11.252  13.965   3.913 -0.0240 -0.0639 -0.2748
26115W        W44319   2.036  13.366  11.831 -0.0965 -0.2125  0.1840
26116W        W44320   2.322  14.254  13.320 -0.0734  0.2423  0.0742
26117W        W44321  13.386   3.245   9.608 -0.1078  0.1168  0.3258
26118W        W44322   4.797   8.806  11.605 -0.2109  0.0562  0.2055
26119W        W44323  17.911   7.672  11.960 -0.0357 -0.0236  0.0962
26120W        W44324   4.729  17.258   1.211  0.3378 -0.0475 -0.0101
26121W        W44325  16.328  18.066  12.207 -0.1031  0.4382  0.1953
26122W        W44326   8.398  17.930   0.298  0.4052  0.1502  0.2798
26123W        W44327  16.510  10.501   4.963 -0.2399  0.0852 -0.0964
26124W        W44328  12.190   5.560   1.492 -0.0196  0.0606 -0.0140
26125W        W44329  13.592   7.333   1.367  0.3074  0.0134  0.1830
26126W        W44330   2.023   5.287  10.163  0.2248  0.0707  0.1622
26127W        W44331   1.388   2.938   4.807  0.1968 -0.2560  0.0173
26128W        W44332  14.418   5.466  13.386  0.3082 -0.0689  0.3840
26129W        W44333   2.681   6.517  11.954  0.3564  0.0119 -0.3403
26130W        W44334  15.348  13.916   0.983 -0.0106 -0.1816 -0.1845
26131W        W44335  13.473  16.146   3.660  0.1504 -0.0257  0.1167
26132W        W44336   1.860  14.887  11.715 -0.1939 -0.0201 -0.2433
26133W        W44337   7.246  11.495   1.783 -0.0530 -0.1443  0.2356
26134W        W44338  14.166  17.531  11.511 -0.0196 -0.0060 -0.2658
26135W        W44339   0.218  12.454   2.877  0.2892  0.0388  0.1817
26136W        W44340  14.830  16.547   1.530  0.0086 -0.1999  0.2173
26137W        W44341  15.411   0.483   3.999  0.2980  0.3632 -0.1908
26138W        W44342  12.566   5.121  14.149  0.4730 -0.2107 -0.0144
26139W        W44343  12.952  12.813  10.885 -0.2723  0.0457  0.0554
26140W        W44344   1.202   7.126   1.232 -0.0565  0.1124  0.2121
26141W        W44345  17.003  12.761  11.838 -0.1913 -0.0584  0.0427
26142W        W44346   1.483   3.792   4.247  0.0688 -0.1437  0.0164
26143W        W44347   8.142   9.673  13.624 -0.0498 -0.1265 -0.2381
26144W        W44348  11.145   6.405   3.429  0.1187  0.1634 -0.0447
26145W        W44349   5.605   1.291   2.081 -0.0053  0.0223 -0.4129
26146W        W44350  10.484   7.437   2.010 -0.0303 -0.0333 -0.0330
26147W        W44351   1.802   4.078   3.779 -0.2330 -0.0311  0.0086
26148W        W44352   8.548   2.082  12.283  0.0496  0.2427 -0.0066
26149W        W44353  16.142   9.938   3.854  0.0737  0.0452  0.0003
26150W        W44354   2.537  10.988   4.146 -0.2976  0.0928  0.0257
26151W        W44355   5.977  16.633  14.491 -0.1597  0.2300  0.2130
26152W        W44356   4.444   9.786  14.428 -0.2066  0.3568  0.1301
26153W        W44357  17.664  11.775   2.418 -0.3073 -0.1574 -0.0398
26154W        W44358   0.904   5.531   2.970  0.3369 -0.3546 -0.0274
26155W        W44359  14.561  10.778  10.935 -0.1642  0.1858  0.1979
26156W        W44360  14.639   8.362  13.082 -0.1386 -0.2591  0.2573
26157W        W44361   6.084   5.734   2.156 -0.1667 -0.1343  0.0666
26158W        W44362   4.054  12.779  10.585  0.3548 -0.2146  0.1202
26159W        W44363  16.287  14.442  14.326 -0.0590  0.2026 -0.1176
26160W        W44364   7.984   2.183  15.154  0.1616 -0.0060  0.3065
26161W        W44365   5.017  14.486   3.866  0.1599  0.2249 -0.0495
26162W        W44366  14.762   5.770  11.575  0.0682  0.1288 -0.1101
26163W        W44367   2.894   7.644  10.969 -0.0725  0.0520  0.2279
26164W        W44368   2.315   9.111   0.759 -0.0819 -0.1212  0.1341
26165W        W44369   7.201  16.606   0.220 -0.2096 -0.0730 -0.1684
26166W        W44370   0.877   8.930  11.648  0.1694  0.1287 -0.1508
26167W        W44371   5.895  14.747   1.898  0.2000 -0.1213 -0.1241
26168W        W44372  12.264  14.368  11.227  0.1279  0.1599 -0.1740
26169W        W44373   4.469   9.436   4.501 -0.1800  0.1052 -0.1013
26170W        W44374   5.299   4.535  13.738 -0.0697 -0.0559 -0.0223
26171W        W44375   1.517   4.515   3.813  0.1831 -0.1508 -0.0785
26172W        W44376  13.492  16.398  14.571 -0.0239 -0.1959 -0.0525
26173W        W44377   9.657   9.307  11.436  0.3658 -0.1506 -0.0341
26174W        W44378  10.280  13.892   2.169  0.1862 -0.0069 -0.0416
26175W        W44379   1.012  11.328  13.118 -0.2146 -0.1884 -0.1918
26176W        W44380  15.809   0.199  13.382  0.3032 -0.1819 -0.0241
26177W        W44381   1.154   0.661   1.175 -0.1578  0.3854 -0.0876
26178W        W44382   6.660  14.512   1.482  0.1148  0.2083  0.0884
26179W        W44383  15.442  11.103  12.028  0.2741  0.1455 -0.1878
26180W        W44384   0.617   4.057   5.507  0.1015  0.1539 -0.0290
26181W        W44385  14.076  10.856  12.869  0.2334 -0.0870  0.0062
26182W        W44386  14.263  14.650  15.212 -0.0006  0.0211 -0.1297
26183W        W44387  12.061   8.095   0.483  0.3172 -0.1028 -0.1245
26184W        W44388   8.523  12.940   1.505  0.0576  0.3471 -0.1146
26185W        W44389  16.063  18.016   1.525 -0.2091  0.1075 -0.2761
26186W        W44390   3.332   1.681  14.867  0.2089  0.1870 -0.1333
26187W        W44391  17.668   7.599  11.188  0.0870 -0.1518 -0.0641
26188W        W44392  15.617   2.126   4.680 -0.2145 -0.3874  0.2078
26189W        W44393  10.985  11.171   1.549  0.0410  0.3827 -0.0866
26190W        W44394  14.520   3.026  14.063  0.1342  0.1201 -0.2383
26191W        W44395   7.704   0.291   3.270  0.0063 -0.2650  0.0408
26192W        W44396   8.267   9.328   4.233  0.4568  0.1959 -0.3041
26193W        W44397   2.205  15.771  15.303  0.0888 -0.4211 -0.1961
26194W        W44398   2.355  14.229  12.388  0.2786  0.2612  0.1478
26195W        W44399  13.694  11.023   2.979  0.1745  0.1554  0.4034
26196W        W44400   6.008   5.309  10.782 -0.0921 -0.1921  0.0298
26197W        W44401   7.929   1.938  14.655 -0.0897  0.4620 -0.0831
26198W        W44402  14.093   5.567   3.244  0.2709  0.0846 -0.0586
26199W        W44403  15.956   9.304  11.627 -0.1824  0.1543  0.0334
26200W        W44404   5.362   2.460  13.851 -0.2378 -0.1643 -0.0486
26201W        W44405   5.297   1.914   3.133  0.1059 -0.1326  0.1708
26202W        W44406   8.380   2.631   1.119 -0.1094 -0.1580  0.0356
26203W        W44407  12.362   4.508   0.068  0.2655  0.2584  0.2788
26204W        W44408   8.592   3.320   4.282 -0.0754 -0.2314 -0.1069
26205W        W44409   6.226  12.178   9.766  0.1063 -0.0686  0.0083
26206W        W44410  12.008   0.822  14.390 -0.2691  0.0940  0.1897
26207W        W44411  15.748  17.932   4.713  0.2135  0.0074 -0.1781
26208W        W44412  14.055  10.845  15.199 -0.0507  0.1667  0.0390
26209W        W44413  16.157  13.432  15.434  0.0194  0.1984 -0.1333
26210W        W44414  16.110  11.391   2.501  0.1374 -0.2361  0.0731
26211W        W44415   0.968   0.104  13.206  0.1873 -0.3656 -0.2107
26212W        W44416  13.375   5.230   2.093 -0.0954  0.1783  0.2543
26213W        W44417   2.203  11.785   4.955 -0.1958 -0.1224  0.3582
26214W        W44418   0.150  12.830  15.146 -0.2535  0.0202  0.0074
26215W        W44419   1.503   0.076   3.402  0.0180  0.1771 -0.2208
26216W        W44420  12.223  12.196   0.353 -0.0336 -0.1372  0.5083
26217W        W44421  10.050  13.014   4.330  0.0854  0.0849 -0.2905
26218W        W44422   9.470   5.515   4.451  0.0294 -0.3361 -0.1376
26219W        W44423  16.332   0.643  14.004 -0.0447 -0.1414 -0.0384
26220W        W44424  17.950  11.018  13.943  0.1825  0.2269 -0.0159
26221W        W44425  11.990   9.114   2.325 -0.1275  0.0540 -0.2178
26222W        W44426   5.601  13.202   4.539 -0.2053  0.0057 -0.0029
26223W        W44427  15.717  10.833   3.404  0.1978  0.0936 -0.3823
26224W        W44428   8.700   6.366  12.073  0.0876  0.0524  0.4219
26225W        W44429  12.858   9.441   5.396  0.3746 -0.0971 -0.1268
26226W        W44430  15.526   1.738   1.721  0.0760 -0.2534  0.1082
26227W        W44431   2.078   9.859  10.946 -0.0815  0.0589  0.2167
26228W        W44432   1.248  11.228   3.858 -0.2705 -0.2358  0.2135
26229W        W44433  11.642  13.911   3.082  0.2261  0.5135  0.0311
26230W        W44434   0.839  10.278  13.480  0.0606  0.1155 -0.3408
26231W        W44435   2.951  14.829  12.894  0.0656  0.2234  0.0353
26232W        W44436   6.412  13.616  13.642 -0.1758 -0.1380  0.1408
26233W        W44437   3.284   6.330  11.213  0.1446 -0.1510 -0.1908
26234W        W44438   0.434  12.586   3.788  0.0602 -0.1812  0.0015
26235W        W44439  11.209  10.040  11.804 -0.0360 -0.0266 -0.3274
26236W        W44440   4.271  14.503   0.899  0.1257 -0.2139 -0.2727
26237W        W44441   6.599  11.053  15.421  0.2585  0.0483  0.1528
26238W        W44442   1.060   1.381   3.953  0.0352 -0.0425  0.3090
26239W        W44443   6.844  13.865   3.952 -0.0227  0.2114 -0.1379
26240W        W44444   5.090  11.298   3.231  0.1882  0.0109  0.1241
26241W        W44445  13.004   7.140  13.439  0.2825  0.2043  0.2820
26242W        W44446   7.390   4.114  11.288  0.0587 -0.0525 -0.2143
26243W        W44447   7.640  11.038   3.077 -0.0151  0.0086 -0.3482
26244W        W44448  15.713   5.202   1.922  0.5369 -0.0817  0.0995
26245W        W44449   4.862   3.127   0.464  0.1748 -0.1799  0.2048
26246W        W44450  17.764   0.378  12.721  0.0539  0.0144 -0.2005
26247W        W44451  16.913   1.306  10.792 -0.5881  0.1073 -0.3170
26248W        W44452  14.712  14.880   2.750 -0.1009  0.0192 -0.0849
26249W        W44453  12.929  12.838  12.583 -0.0989  0.0530 -0.3732
26250W        W44454   4.933   4.031  13.859 -0.0571 -0.2547  0.0507
26251W        W44455  12.637  17.402   3.485  0.0946  0.0747  0.1094
26252W        W44456  17.930  13.651   3.791  0.0708  0.2390 -0.1974
26253W        W44457  18.391  17.346  15.311 -0.1025 -0.1154  0.0367
26254W        W44458   1.054   7.996  12.067  0.3680  0.4498 -0.0455
26255W        W44459   0.819   7.497  11.321 -0.0035  0.0839 -0.2157
26256W        W44460   0.312   4.654   0.086  0.0942  0.1491  0.1757
26257W        W44461   3.753   3.319   4.566 -0.0749  0.2665  0.0392
26258W        W44462  14.070   7.505   1.701  0.0223  0.1060 -0.2535
26259W        W44463   7.106   5.218  12.465 -0.1355 -0.1197 -0.0331
26260W        W44464   3.145   3.536   3.189 -0.0115 -0.0278  0.3088
26261W        W44465  12.050   3.239   2.054  0.2314  0.0149  0.1140
26262W        W44466   2.324   8.342  13.852  0.0989  0.0456 -0.1680
26263W        W44467  11.279  12.607  12.661  0.0648 -0.1721  0.1990
26264W        W44468   1.890   3.069  12.538 -0.2834 -0.0133  0.2933
26265W        W44469  14.111  12.558  14.078 -0.1798 -0.0820  0.2361
26266W        W44470   1.264   4.052   2.489 -0.2715 -0.2286 -0.1075
26267W        W44471   9.012   7.948   2.424  0.1160 -0.0838 -0.0464
26268W        W44472  11.374   4.014   0.030  0.2413  0.3548 -0.1114
26269W        W44473   4.729   7.425  14.390 -0.2035  0.2025 -0.0714
26270W        W44474   2.216  10.897  12.655  0.2532 -0.0737 -0.1772
26271W        W44475   0.015   6.908   1.885 -0.3945 -0.3945 -0.0746
26272W        W44476   7.371   9.780  13.939 -0.2522 -0.0673 -0.0635
26273W        W44477   9.728   6.141  11.402 -0.0207  0.0767 -0.4388
26274W        W44478   5.442   4.026  13.723 -0.1678 -0.3562 -0.4486
26275W        W44479   6.823  17.314   1.089  0.0841 -0.5047  0.0283
26276W        W44480  12.590  12.870   0.186  0.0153 -0.3366  0.1509
26277W        W44481  12.335   1.016  12.432  0.1226 -0.0928  0.3576
26278W        W44482  13.409  16.540  10.960  0.0601 -0.0985 -0.0931
26279W        W44483  10.304  15.423  14.871 -0.0956 -0.2517 -0.0619
26280W        W44484  10.779  18.172  12.319  0.0898 -0.1240  0.0024
26281W        W44485  10.471  13.489   0.656  0.0385  0.1481 -0.1126
26282W        W44486   7.834  10.931  12.586  0.1802  0.0269 -0.2193
26283W        W44487   8.277   5.609  11.643 -0.0534 -0.2317 -0.0707
26284W        W44488   0.788   8.137   4.693  0.0259  0.1524 -0.0621
26285W        W44489   6.922  10.817  12.829 -0.4014 -0.1456  0.0067
26286W        W44490   5.915  15.666   4.754  0.2233  0.1873 -0.2036
26287W        W44491   0.770   3.935   1.376  0.4656  0.0203  0.1988
26288W        W44492   5.956  10.277  13.327  0.4228 -0.0380 -0.3098
26289W        W44493   6.075  12.064   2.295  0.1373 -0.0218 -0.0396
26290W        W44494  10.265   1.306   2.912  0.0420 -0.1872  0.4841
26291W        W44495  15.274   9.382   2.856 -0.2259  0.3365  0.3195
26292W        W44496   8.136   2.524  11.864 -0.1020 -0.2604  0.0430
26293W        W44497  11.279  13.980   3.420  0.1076 -0.1773 -0.5003
26294W        W44498   9.491  15.922  14.424 -0.0545 -0.3019 -0.0006
26295W        W44499  10.681  12.392  10.989  0.0409  0.4290 -0.0346
26296W        W44500   2.152   8.323   3.745  0.1034 -0.1201 -0.0217
26297W        W44501   2.471   6.173  13.964 -0.1271  0.1879  0.0823
26298W        W44502   9.197  16.743   2.578  0.1541  0.0686  0.0231
26299W        W44503  15.791  10.468   0.406  0.1196 -0.2200 -0.1841
26300W        W44504   4.700   2.603   0.459  0.0664  0.0992  0.1216
26301W        W44505   3.574  10.632   2.685  0.2603 -0.1114  0.1492
26302W        W44506   9.803  10.118  11.016  0.0846 -0.3594 -0.1130
26303W        W44507  15.925   7.327  13.429 -0.2398  0.0322  0.1742
26304W        W44508  10.445   5.239  14.900  0.2328 -0.0465 -0.2787
26305W        W44509  13.423  11.230   2.344  0.0154 -0.2006 -0.3259
26306W        W44510   8.714   0.405  12.609  0.0172 -0.0454 -0.0550
26307W        W44511  14.138   5.041  15.151 -0.0989  0.0606  0.0614
26308W        W44512  13.444   4.084   3.373 -0.0178  0.1943 -0.1843
26309W        W44513   8.165  18.137   2.205  0.0596  0.1386 -0.1244
26310W        W44514  17.780  15.869  12.848 -0.1772  0.0243  0.3686
26311W        W44515   3.174  14.292  12.064 -0.1656 -0.1631 -0.1307
26312W        W44516  15.174  15.200  13.223  0.1791  0.0496  0.0027
26313W        W44517   4.464  12.239   3.556  0.2835 -0.0400  0.0698
26314W        W44518   7.664  15.772  14.102  0.2579  0.2490  0.2489
26315W        W44519   2.545   5.294   3.279  0.1029  0.0315 -0.0269
26316W        W44520   7.108  15.150   2.169  0.1416 -0.4121  0.0521
26317W        W44521   6.051  14.070   4.727 -0.0113  0.3114  0.0549
26318W        W44522   1.667   2.745   0.970 -0.2141  0.1429 -0.0339
26319W        W44523   6.808  16.392   2.838  0.1338 -0.1438  0.0589
26320W        W44524   1.031  16.592   1.255  0.1019 -0.1825  0.1544
26321W        W44525   7.684  12.772   0.480  0.1265  0.0240 -0.3683
26322W        W44526  16.963   4.482  14.949  0.5639 -0.0483 -0.1150
26323W        W44527   2.804   6.056   0.865 -0.0051 -0.0486 -0.1505
26324W        W44528   1.696  11.726   0.049  0.5148  0.2895  0.0549
26325W        W44529   1.665  13.814  13.059 -0.0584  0.0841 -0.2261
26326W        W44530  18.050  11.988  13.310 -0.1234 -0.0982  0.0956
26327W        W44531  12.117  14.372   4.456 -0.4413 -0.0705 -0.0069
26328W        W44532  13.499  18.475   0.239 -0.2740 -0.0989  0.3780
26329W        W44533   7.312  17.991   1.691 -0.1954 -0.0139  0.1348
26330W        W44534   5.214  14.977   3.708  0.1732  0.1263 -0.2990
26331W        W44535   5.620  15.599   3.551  0.3252  0.1569 -0.0775
26332W        W44536   6.338   6.824  11.009  0.0599 -0.0921  0.0649
26333W        W44537   0.371   7.684  12.483 -0.3681  0.2813 -0.2189
26334W        W44538  17.628  11.891  13.601  0.1708 -0.1019  0.1095
26335W        W44539  18.428  16.840  10.820 -0.1390  0.1067  0.3007
26336W        W44540   4.763  12.574  10.947  0.3088 -0.0047 -0.1886
26337W        W44541   8.484  11.891   1.321 -0.0581  0.0376 -0.0483
26338W        W44542  13.225  15.421  11.047  0.1527 -0.1373 -0.4004
26339W        W44543  16.026  17.191  11.962  0.0990  0.1020  0.1024
26340W        W44544  17.273   6.964   0.421 -0.2734  0.1703  0.1531
26341W        W44545   5.844   6.362  12.233 -0.1083  0.1400 -0.0836
26342W        W44546  17.437  10.790  11.538  0.0269  0.0964 -0.0619
26343W        W44547   1.009  17.993  12.744 -0.0552  0.1481 -0.0103
26344W        W44548   0.794   9.054  14.000 -0.2793  0.0649  0.2368
26345W        W44549   4.035   2.408  11.085  0.1955  0.1791  0.2142
26346W        W44550   7.238  16.127   0.238  0.1338 -0.0479  0.1239
26347W        W44551   2.591  11.245   3.291  0.1211 -0.0012  0.2968
26348W        W44552   1.912  12.194   1.389  0.2695  0.3433  0.1085
26349W        W44553  14.248  11.666   3.865 -0.2375 -0.1794  0.0360
26350W        W44554  13.858  16.671  10.640  0.0934 -0.2027 -0.3244
26351W        W44555  11.466   3.896  13.075 -0.0937  0.1804  0.0067
26352W        W44556   2.928   6.493   3.570  0.1190 -0.2927 -0.1250
26353W        W44557  11.686  16.928  13.258 -0.0015  0.1361  0.1644
26354W        W44558   8.450  11.336  12.926 -0.1530  0.0471 -0.1980
26355W        W44559   8.904   8.588   1.146 -0.0783 -0.5787 -0.0187
26356W        W44560   2.623  13.564   0.809  0.0555 -0.0341 -0.0433
26357W        W44561  11.310  11.198  13.231 -0.2592  0.0610  0.3274
26358W        W44562  13.077  10.955  14.362 -0.1305 -0.3289 -0.0146
26359W        W44563  13.747   7.387  15.016  0.1667  0.1408  0.2578
26360W        W44564   9.184   6.519   0.853  0.1082  0.3917  0.0045
26361W        W44565   1.586  16.976   2.059  0.0223 -0.0753  0.1966
26362W        W44566   9.461   1.201  15.083  0.0479  0.0511 -0.3177
26363W        W44567  13.090  14.829   3.285  0.1860  0.1743  0.4487
26364W        W44568   2.900   5.096   3.885  0.2484  0.0204 -0.0565
26365W        W44569  14.694  11.825   4.662 -0.0073  0.2133  0.1239
26366W        W44570   3.236   8.573   1.276  0.1004  0.2122  0.0219
26367W        W44571   4.206   5.326  14.307 -0.3258  0.1969 -0.0209
26368W        W44572   3.862  17.458   2.882 -0.2879  0.0022 -0.1583
26369W        W44573   0.357  15.588   5.614  0.0600 -0.1160 -0.2092
26370W        W44574   1.816  18.163  13.194 -0.0521 -0.2429 -0.1380
26371W        W44575   1.728   8.517  15.140  0.0028 -0.0609  0.0235
26372W        W44576  13.443  10.008   0.202 -0.2517  0.1557  0.1564
26373W        W44577   2.003  11.809   2.838 -0.3522  0.0215  0.3078
26374W        W44578  13.701  15.780  11.087 -0.0013  0.1607 -0.2424
26375W        W44579  11.701  13.861   4.021 -0.2063  0.1618  0.0893
26376W        W44580  15.743  17.077   3.338 -0.2202 -0.0457 -0.0709
26377W        W44581   9.864   5.220   3.635  0.1784 -0.1966  0.3329
26378W        W44582   5.492  11.971  12.161  0.3026  0.1172  0.0811
26379W        W44583   8.638  11.724   4.763  0.1575 -0.1747  0.1615
26380W        W44584  17.728   5.718  14.137  0.1494 -0.1776  0.0105
26381W        W44585   3.280  15.712   5.727 -0.0004  0.0161 -0.1198
26382W        W44586   1.664  11.224   2.049  0.1174 -0.0555  0.1994
26383W        W44587   0.220  13.040  12.784  0.1684 -0.2633 -0.2384
26384W        W44588   4.455   4.575   4.163  0.0434  0.0261  0.0710
26385W        W44589   1.759   3.151   3.824  0.1156  0.1444  0.1841
26386W        W44590  18.076   2.401  13.518 -0.0787  0.0453  0.0307
26387W        W44591   1.851   8.554  11.144 -0.3949  0.0273  0.0429
26388W        W44592  16.085  15.312   3.349  0.2156 -0.2543 -0.0199
26389W        W44593  17.408   8.448  13.335  0.1274 -0.1211 -0.1849
26390W        W44594  15.584  14.601   5.012 -0.0940  0.1149 -0.0653
26391W        W44595  17.652   8.348  11.397 -0.0674 -0.2982 -0.0756
26392W        W44596   7.835   5.124   0.038 -0.0190  0.0383  0.0364
26393W        W44597   2.183   6.764  12.785  0.2053 -0.1109 -0.1571
26394W        W44598  11.306  15.213   1.446  0.1436  0.1742  0.2890
26395W        W44599  10.686  14.696   4.661 -0.0893 -0.0586  0.0242
26396W        W44600   5.559   7.144   1.180  0.0874  0.0406 -0.0970
26397W        W44601  10.250   3.465   3.346 -0.0774 -0.1671 -0.0633
26398W        W44602  12.241   7.709   2.541  0.1661 -0.1075  0.2071
26399W        W44603  10.195  11.030   1.683  0.3593  0.0140 -0.1474
26400W        W44604   4.914  18.367  14.876  0.2919  0.1533 -0.0035
26401W        W44605   4.590  14.694  12.733 -0.1669  0.0082 -0.0472
26402W        W44606   6.925  12.272   1.689  0.3586  0.1419  0.3152
26403W        W44607  13.541   9.960  11.939 -0.1252  0.2710 -0.3062
26404W        W44608   9.948   6.576  14.047 -0.1391 -0.1789 -0.1607
26405W        W44609   0.226   5.635  14.610  0.0304 -0.0236 -0.1429
26406W        W44610  10.405  16.702   3.456  0.2704 -0.1820  0.2274
26407W        W44611  12.493   8.684  13.446  0.0931  0.2206  0.0628
26408W        W44612   9.773  14.150   2.052 -0.3402  0.0074  0.1030
26409W        W44613   0.792  15.349   0.997 -0.2382 -0.0854 -0.0468
26410W        W44614  18.251  12.317   0.497 -0.0557 -0.0570 -0.0254
26411W        W44615   2.742   7.778   2.269  0.1775 -0.2040  0.0344
26412W        W44616   2.497   6.457   0.923 -0.0113  0.3044 -0.2455
26413W        W44617  13.133   2.219   4.059  0.1268  0.0075 -0.1252
26414W        W44618   6.708  14.020  12.807 -0.3412 -0.1358  0.1477
26415W        W44619   5.572  12.077   0.030  0.1597  0.0420 -0.0298
26416W        W44620  11.136   0.002   0.611  0.0717  0.2132  0.1664
26417W        W44621   6.258  17.045   2.436 -0.2037  0.0316  0.0558
26418W        W44622   5.652   3.038   3.656 -0.0876 -0.1133 -0.1364
26419W        W44623  13.440   1.889   2.931  0.0209 -0.0889  0.0880
26420W        W44624   9.105  10.098  12.483 -0.2946  0.0919 -0.1308
26421W        W44625   6.978   9.430  15.362 -0.1585  0.3248 -0.0689
26422W        W44626  15.928   9.403   2.229 -0.1017  0.1216 -0.1051
26423W        W44627   6.539   0.289  11.695  0.1320  0.2418 -0.1515
26424W        W44628  18.453   7.476   1.932  0.1391 -0.2306 -0.1716
26425W        W44629  13.248   5.575   5.682  0.0493  0.1246  0.0206
26426W        W44630   7.558  16.210  13.571  0.0028  0.0247  0.2569
26427W        W44631  13.007  12.875   2.362  0.1342 -0.2528  0.1638
26428W        W44632  11.216  12.670  14.039  0.1119 -0.1186 -0.2206
26429W        W44633  11.586  11.974   1.509  0.0919 -0.0903 -0.1082
26430W        W44634  11.801   9.864  11.024  0.1860 -0.2864  0.1863
26431W        W44635  18.330  14.846   0.599  0.2263  0.2855 -0.0227
26432W        W44636   2.831   9.247  14.365 -0.0483  0.0668 -0.0603
26433W        W44637  14.542   6.782   2.087  0.0260  0.1573 -0.3679
26434W        W44638   5.052   2.637  12.869  0.1841 -0.1446  0.0275
26435W        W44639  11.771   0.103  14.268  0.0554 -0.0724 -0.2342
26436W        W44640   3.581   8.297   1.076 -0.2334  0.0789 -0.1030
26437W        W44641  12.823  14.888  12.502 -0.1251  0.0703  0.3323
26438W        W44642  14.270   9.514   0.511 -0.1414  0.0212  0.0228
26439W        W44643  17.703   1.670   4.972 -0.2952  0.2673  0.2716
26440W        W44644  15.977  11.495  13.944 -0.0005  0.2481 -0.0496
26441W        W44645  15.087   7.900  13.785 -0.0053  0.2041 -0.1211
26442W        W44646   3.694  11.894  13.419 -0.0229 -0.1926 -0.0606
26443W        W44647  14.272   6.754   2.599  0.0435 -0.1411 -0.1329
26444W        W44648  12.951  10.670  11.335 -0.0198  0.2323  0.0933
26445W        W44649   8.568  17.082   1.242 -0.0430  0.1891  0.4536
26446W        W44650   3.463   2.926  11.748 -0.0512  0.3101  0.0779
26447W        W44651   8.225   3.573  12.190  0.0685  0.2610  0.0912
26448W        W44652  14.452   2.671  12.611  0.0954 -0.2206  0.0029
26449W        W44653  17.694  17.240  10.766  0.0961 -0.3365 -0.4369
26450W        W44654  11.048   7.217   3.283 -0.0005 -0.1596 -0.0341
26451W        W44655  17.647   1.941  11.426 -0.0996 -0.2041  0.2536
26452W        W44656   6.898   6.732  10.861 -0.1259 -0.0423 -0.2228
26453W        W44657   0.537  17.807  14.065  0.3876 -0.0066 -0.2655
26454W        W44658   3.200  15.728   1.723 -0.3773  0.1414  0.1938
26455W        W44659  17.061  15.180   1.527 -0.0758  0.0129 -0.3126
26456W        W44660  17.669  15.711  15.144 -0.1375  0.3111 -0.3027
26457W        W44661  10.137  16.967  11.617  0.1341  0.2788  0.1270
26458W        W44662  16.100  17.166   0.658 -0.1296 -0.1236 -0.1352
26459W        W44663  10.552   9.502   4.695  0.3926 -0.0676  0.0754
26460W        W44664  16.308  11.522   0.049 -0.1518 -0.6461  0.2784
26461W        W44665   0.378   6.564  11.522  0.2204  0.1838  0.3519
26462W        W44666   9.697   8.667   0.176  0.1603  0.2171 -0.2122
26463W        W44667  11.306  17.867  10.911 -0.0425 -0.3649 -0.2961
26464W        W44668   6.110   0.289  10.852  0.0014 -0.1149 -0.0871
26465W        W44669   5.031  10.703  12.037 -0.2266 -0.1756  0.1681
26466W        W44670  16.740   6.257  13.483 -0.1411 -0.1043  0.3802
26467W        W44671   0.480  15.011   4.098  0.0386 -0.4355  0.1193
26468W        W44672   7.695  16.940   2.460 -0.1182  0.4589  0.1075
26469W        W44673  18.072  11.474  11.683 -0.3024  0.3375  0.0560
26470W        W44674  13.478  13.490   3.270  0.2443 -0.1372 -0.0380
26471W        W44675  16.348   6.479  14.671 -0.0434  0.0115  0.0629
26472W        W44676   9.456  12.900  13.315  0.1885 -0.4110 -0.1610
26473W        W44677   5.946   5.496   5.518 -0.0134  0.0472  0.1031
26474W        W44678   0.064  13.081   2.344 -0.1461 -0.1443  0.0705
26475W        W44679  13.644   6.028   3.185  0.0378 -0.0745 -0.2959
26476W        W44680   1.486   6.710   3.949  0.0042 -0.2540 -0.0304
26477W        W44681   8.475  16.948  11.636  0.0014  0.0066 -0.0895
26478W        W44682  11.228   5.966  12.301 -0.1025 -0.1080 -0.1226
26479W        W44683  15.098   0.005   2.681 -0.1015 -0.0552  0.0575
26480W        W44684   7.385   9.652  11.472 -0.2766 -0.0937 -0.3634
26481W        W44685   8.092   9.103   1.712 -0.0534  0.0491 -0.1578
26482W        W44686  12.947   7.332  11.310 -0.2554  0.1304 -0.1295
26483W        W44687   4.350  10.621   0.213  0.4794  0.1293 -0.0136
26484W        W44688   4.739   4.579  13.833  0.0216 -0.2263 -0.0882
26485W        W44689   3.748   3.605   3.323 -0.2032  0.2603  0.0772
26486W        W44690   4.220  11.059   2.230 -0.0357 -0.1918 -0.0429
26487W        W44691  16.111   1.425   3.490 -0.1188  0.0483 -0.1054
26488W        W44692  14.563   4.427   0.337  0.2719  0.1707 -0.3125
26489W        W44693  15.209   7.627  12.190 -0.2782 -0.0482 -0.0372
26490W        W44694  14.884  10.254  13.287 -0.3555 -0.0617 -0.2325
26491W        W44695  12.867   3.740  12.409 -0.0013  0.1424  0.1322
26492W        W44696  13.924   1.147  14.684  0.0404  0.0855 -0.1229
26493W        W44697  11.646   2.712   2.088  0.1907  0.0981  0.0112
26494W        W44698   6.163   3.766  15.308 -0.0484  0.0577 -0.1036
26495W        W44699  12.335   9.345  13.890 -0.0031  0.3655 -0.0931
26496W        W44700   4.092   3.404  14.490 -0.0395 -0.0959 -0.1373
26497W        W44701   6.262  16.013   4.455 -0.1230 -0.3154 -0.0376
26498W        W44702   0.352   8.853  14.352 -0.2588  0.2689 -0.1701
26499W        W44703  11.803   2.580  11.497  0.1660 -0.1578 -0.1391
26500W        W44704   9.846   8.795   3.853  0.0166 -0.0315 -0.2380
26501W        W44705   3.605  12.938   3.514  0.0296  0.1166  0.1379
26502W        W44706  16.655  10.583   4.118 -0.1098  0.0201 -0.0088
26503W        W44707  16.575  12.947  12.911 -0.2842 -0.2586 -0.3025
26504W        W44708  15.555   3.826   4.809  0.3065  0.0306 -0.1489
26505W        W44709   4.981   8.771  12.414  0.0354 -0.0860 -0.3103
26506W        W44710  15.495   6.886   0.771 -0.0419 -0.1715 -0.1929
26507W        W44711   2.579   3.527   3.926  0.2477 -0.0056 -0.0891
26508W        W44712   3.313  16.739   4.274  0.0410  0.1124 -0.0997
26509W        W44713   3.837  14.078   1.414 -0.1131  0.0148  0.1067
26510W        W44714   4.881   6.530   1.824 -0.2946 -0.2892  0.0818
26511W        W44715   4.380   3.386  11.336  0.4221 -0.0186 -0.5033
26512W        W44716  12.121   6.747  13.488  0.0210 -0.0660 -0.1627
26513W        W44717   1.723   2.171   5.493  0.1627  0.0531 -0.3134
26514W        W44718   4.217   5.704  13.439 -0.0280  0.0375 -0.1720
26515W        W44719  12.048  18.167   3.442  0.0041  0.0480  0.0481
26516W        W44720   9.227   6.862  11.961  0.3554  0.1887 -0.1227
26517W        W44721  17.506  11.535   3.277  0.0866  0.0885  0.0657
26518W        W44722  10.596   3.716   3.642 -0.3968 -0.0825  0.0292
26519W        W44723   9.929   6.563  10.592 -0.1709 -0.2315 -0.1260
26520W        W44724  16.310   3.407  11.215  0.1666 -0.1815 -0.1529
26521W        W44725   3.934  17.106  13.175 -0.1284  0.0724  0.0894
26522W        W44726   6.240  16.853  10.179 -0.1401  0.0528 -0.0421
26523W        W44727   7.337   8.081   4.403  0.1127  0.0176  0.2240
26524W        W44728  15.706   7.240  15.390  0.3145 -0.0417 -0.0913
26525W        W44729   6.046   6.730  13.955 -0.0236 -0.0821 -0.2144
26526W        W44730  14.571   4.898   4.346 -0.0792 -0.0301 -0.1151
26527W        W44731   4.770  18.416   3.207  0.0883 -0.0197 -0.1022
26528W        W44732   2.858  13.990   0.467  0.4028 -0.0600 -0.2523
26529W        W44733   1.837  16.524  12.057  0.0759  0.0182  0.2158
26530W        W44734   6.503  13.599   3.088  0.0207 -0.0643  0.1744
26531W        W44735   1.659   1.077   3.349  0.1497  0.0867 -0.1458
26532W        W44736   2.080  15.377   0.887 -0.1594  0.4013 -0.2757
26533W        W44737  18.001   1.582   2.775 -0.1870  0.5509 -0.1745
26534W        W44738   6.196   3.125   1.565  0.0141 -0.0061 -0.3446
26535W        W44739  17.213   9.352  12.007 -0.2180  0.1735  0.0418
26536W        W44740   6.887   0.164   0.599 -0.0933  0.0545  0.2129
26537W        W44741  10.934  16.855  12.894  0.0554  0.1930  0.5897
26538W        W44742   6.074   0.005   0.587 -0.1764 -0.2183  0.0408
26539W        W44743   2.979   6.188   2.627  0.1614 -0.2893 -0.0695
26540W        W44744   2.616  13.343   1.301  0.2788  0.1389 -0.4196
26541W        W44745  15.036  16.571   0.132 -0.0917  0.0151 -0.2312
26542W        W44746  14.997   6.409   1.948 -0.1495 -0.0305  0.1191
26543W        W44747   5.594  10.984   0.351  0.0312 -0.1354  0.0801
26544W        W44748   6.122  11.115   3.397 -0.2295  0.2052  0.3962
26545W        W44749  12.377   8.819   3.988 -0.1449  0.1586 -0.1619
26546W        W44750   2.190   9.280   3.543 -0.2198 -0.1577 -0.1267
26547W        W44751   3.203   5.377  12.135 -0.1920  0.2305  0.2796
26548W        W44752   0.880   4.671   0.845 -0.2091  0.1446  0.2188
26549W        W44753  14.543   3.171  14.567 -0.0280  0.0777  0.0273
26550W        W44754   9.354   3.640   2.352 -0.4532  0.0284  0.1375
26551W        W44755  10.922  10.454   3.197 -0.3855 -0.0148  0.0312
26552W        W44756   3.949  17.436  12.059 -0.2289  0.0478 -0.1565
26553W        W44757  13.960   5.660  13.389 -0.2554  0.1228 -0.1718
26554W        W44758  18.086   2.460   2.190  0.0717 -0.0630 -0.1229
26555W        W44759  11.266  14.782  15.391 -0.3201  0.0555  0.0557
26556W        W44760  18.158   0.587  14.180  0.0872 -0.2849  0.1413
26557W        W44761   4.928  17.678   1.522  0.1746 -0.3638  0.4430
26558W        W44762   0.732   8.701   0.274 -0.1260 -0.2383 -0.0838
26559W        W44763  13.744   2.884  14.921 -0.3259 -0.2680 -0.0213
26560W        W44764  17.671   7.644   0.049  0.0523 -0.0141  0.0151
26561W        W44765  15.017  12.853   2.105  0.0265  0.2975 -0.0571
26562W        W44766  10.329   4.796   5.310 -0.0615 -0.4569  0.0819
26563W        W44767   4.568   0.850   2.400  0.2464 -0.0173  0.0854
26564W        W44768   5.759   7.638   2.537 -0.0875 -0.0851  0.0983
26565W        W44769   6.363  14.084   1.720  0.0395  0.0008  0.1646
26566W        W44770   1.183   8.032   0.847 -0.0407  0.0583  0.1083
26567W        W44771   5.073  10.421  13.011  0.0109 -0.0746 -0.2032
26568W        W44772   1.153   8.556   4.847 -0.2123 -0.1810 -0.0808
26569W        W44773  15.435  12.178  12.485  0.0505 -0.1200 -0.1872
26570W        W44774   8.136   1.858   2.447  0.1400 -0.0167  0.1226
26571W        W44775   8.348   3.976   1.663  0.2849 -0.0650  0.0235
26572W        W44776   6.812   7.191  13.385  0.2337  0.1656  0.2042
26573W        W44777  18.613   5.939   4.638  0.1573 -0.2247  0.2008
26574W        W44778  11.860   1.550  11.816 -0.0566  0.0823 -0.3953
26575W        W44779   2.819  18.115  11.346 -0.1156 -0.2160 -0.0264
26576W        W44780   7.992  14.364  13.003 -0.4979  0.0553 -0.2419
26577W        W44781  16.089  14.281   0.501  0.2023  0.1778  0.0461
26578W        W44782  12.725  12.353   9.654 -0.1168 -0.3154 -0.3991
26579W        W44783   4.189  12.218   0.055  0.1267  0.1052  0.0683
26580W        W44784   3.309   7.696  14.410  0.0950  0.4262  0.1485
26581W        W44785   6.960  13.583   1.151  0.0613  0.0742 -0.1017
26582W        W44786  17.848   0.482   1.400 -0.3990 -0.3427  0.2067
26583W        W44787  12.965   1.703  11.974 -0.0452  0.2297  0.1557
26584W        W44788  14.842  14.198  10.532  0.0182 -0.1175 -0.0770
26585W        W44789   8.444  18.516  14.470  0.0400  0.1427 -0.0245
26586W        W44790  16.390   4.627   1.811  0.0330 -0.1081 -0.2459
26587W        W44791  13.136   9.710   9.871  0.0177  0.0589  0.1813
26588W        W44792   3.820  15.183   2.365 -0.0389  0.2459 -0.2442
26589W        W44793  14.419  17.978   4.566 -0.0635 -0.1392  0.1879
26590W        W44794   7.698  11.791   1.989  0.0937 -0.1974 -0.2235
26591W        W44795  17.206   6.249   9.862 -0.0918  0.1839  0.0651
26592W        W44796  16.461   6.114   1.762 -0.0598  0.2578  0.1909
26593W        W44797   4.303   9.607  11.764 -0.0539 -0.0697  0.0879
26594W        W44798   9.454  11.784   0.363  0.0189  0.1829 -0.1901
26595W        W44799   1.973  14.348  11.775  0.2019 -0.0171 -0.0871
26596W        W44800  11.829   2.388  13.628  0.0300  0.2233  0.4206
26597W        W44801   9.391   6.481  11.024 -0.2301 -0.3580  0.1395
26598W        W44802  12.825   9.482   4.833 -0.1999 -0.1962 -0.1288
26599W        W44803   1.502   6.983  12.158  0.1011  0.3520 -0.1048
26600W        W44804   6.014  11.705  13.729 -0.1226  0.0301 -0.1894
26601W        W44805  11.678  14.104  14.944 -0.1288  0.0857  0.1847
26602W        W44806   7.640  18.190  13.003 -0.1400  0.0711 -0.1506
26603W        W44807  12.257   8.764   2.016 -0.0500  0.0668  0.1244
26604W        W44808   5.056  15.197  10.583  0.2235 -0.1328 -0.1824
26605W        W44809   8.717   4.669  14.302 -0.2547 -0.0644  0.2593
26606W        W44810  18.139   8.696   1.229  0.3737  0.0300 -0.2099
26607W        W44811   4.351   5.982   2.036 -0.0300  0.3646 -0.1930
26608W        W44812   7.238  16.664   2.533  0.1323  0.1987  0.1712
26609W        W44813  16.189  11.397   3.837  0.0218 -0.3317  0.0388
26610W        W44814   3.847  13.733  13.074 -0.0946 -0.1828 -0.1235
26611W        W44815  11.018   6.752   0.101  0.0146 -0.0575  0.2147
26612W        W44816  15.515  14.870   1.065  0.2869 -0.0332 -0.0362
26613W        W44817  12.655   6.953  11.632 -0.1722 -0.1816  0.3544
26614W        W44818  12.277   3.695   3.884 -0.0587 -0.0772 -0.1254
26615W        W44819   1.590   6.508  11.982 -0.1562 -0.4557 -0.1261
26616W        W44820   7.514   1.183   2.251  0.1303  0.1184  0.0438
26617W        W44821  18.247  14.802   3.110  0.2900 -0.1318  0.1056
26618W        W44822   2.661   8.259   3.857  0.0957  0.0492  0.2818
26619W        W44823   9.924  12.023  12.289 -0.0569  0.0140  0.2352
26620W        W44824  15.356   3.929   1.523  0.1527 -0.0524 -0.0708
26621W        W44825   0.300   4.043   0.920 -0.2166 -0.0533 -0.1027
26622W        W44826   0.824  17.352   4.260  0.1034 -0.0554 -0.3124
26623W        W44827  10.228   5.053  13.816  0.2020 -0.2000 -0.1176
26624W        W44828   1.454  10.472  15.239  0.0993 -0.0045  0.0877
26625W        W44829  13.192   9.889   3.733  0.0037 -0.0053 -0.0565
26626W        W44830   1.582   0.140  14.375  0.0826 -0.1688 -0.0166
26627W        W44831  15.375  14.236  13.225 -0.0547 -0.0616 -0.0650
26628W        W44832  16.807   2.791   0.457 -0.0073  0.2119  0.2510
26629W        W44833   9.194   8.359  14.809  0.1860  0.1890 -0.1188
26630W        W44834  16.198   6.754   4.967 -0.2610 -0.0436 -0.5113
26631W        W44835   4.899  13.646   3.548 -0.1381 -0.3856 -0.0906
26632W        W44836  16.837   0.161   1.628 -0.0224  0.1113 -0.1562
26633W        W44837   2.589   5.169   2.656  0.0138  0.0245 -0.1945
26634W        W44838  16.731   2.387   0.753 -0.0317  0.1573 -0.4769
26635W        W44839   5.881   5.681  12.260  0.2345 -0.0988 -0.0750
26636W        W44840  11.828   0.845   2.624  0.3967 -0.1346  0.0750
26637W        W44841  10.501  14.125  10.141 -0.0418  0.3440  0.2076
26638W        W44842   8.557   7.975  14.280  0.0089 -0.2412  0.0711
26639W        W44843   5.026  13.732  13.942  0.1443  0.1244  0.3811
26640W        W44844  10.287  16.507   1.690  0.1878 -0.3304  0.0014
26641W        W44845   9.134  12.433  14.534  0.1010 -0.2124  0.1030
26642W        W44846  11.945   5.572   4.450  0.0640  0.1156  0.1332
26643W        W44847   6.126   7.082   1.151  0.1881 -0.1404  0.1610
26644W        W44848   4.132  18.053   3.620  0.0482 -0.4016  0.0011
26645W        W44849   2.318   7.515  11.062 -0.0694  0.1519 -0.1407
26646W        W44850   8.315   9.347  11.875 -0.1421 -0.0411  0.2344
26647W        W44851   7.894  15.635  13.682  0.2161  0.1420  0.1842
26648W        W44852  12.074  10.784   2.366 -0.0389  0.0866 -0.0320
26649W        W44853  14.980  17.297  12.895 -0.1151  0.0479  0.0498
26650W        W44854   3.357   2.101   3.632  0.1395 -0.1503  0.1953
26651W        W44855   9.373   9.895  15.404 -0.2692 -0.0213 -0.0819
26652W        W44856   9.457   0.551   2.938  0.3716 -0.1383  0.0460
26653W        W44857  14.524   6.167   1.922  0.0649 -0.5134  0.2464
26654W        W44858   6.481  13.027   0.055  0.0683  0.3145  0.2149
26655W        W44859  17.340  15.785   4.129  0.2834 -0.3125 -0.2613
26656W        W44860  18.509   3.096   3.691 -0.1953 -0.0434  0.4459
26657W        W44861  18.547   6.456  12.827  0.1867  0.1535  0.3877
26658W        W44862   2.569  15.467  12.305  0.0385  0.0423  0.0476
26659W        W44863   8.920   8.242  13.372  0.1940 -0.0014  0.1837
26660W        W44864  16.853   7.046   2.093 -0.0800 -0.0841  0.1367
26661W        W44865  12.196  10.157  11.451  0.0201  0.1368 -0.2338
26662W        W44866  13.447  13.691   1.562  0.0670  0.0682  0.1493
26663W        W44867   7.715   7.959  13.991 -0.1049  0.1231 -0.2894
26664W        W44868  14.999   8.325  10.943  0.0638 -0.0837  0.1037
26665W        W44869  11.372   5.056   5.047 -0.0488  0.2586  0.1167
26666W        W44870   8.731   6.144  10.201 -0.1939  0.4840 -0.0708
26667W        W44871   7.643   8.290  11.439 -0.3096 -0.0607  0.0962
26668W        W44872   9.622  13.127  12.787  0.1310  0.0773  0.0975
26669W        W44873   5.190   5.099  13.754 -0.1371 -0.1019  0.1208
26670W        W44874   0.266   4.902   2.321 -0.1349  0.1042  0.1410
26671W        W44875  13.525   3.284   3.230  0.0176  0.0847  0.0303
26672W        W44876   1.977  10.952   0.538 -0.0106  0.2360 -0.1776
26673W        W44877  16.125  14.578  14.981 -0.1168  0.1819 -0.2976
26674W        W44878  10.217  18.190  11.805 -0.0910  0.1992  0.0425
26675W        W44879   2.825  18.489  14.345  0.2324  0.1628  0.1491
26676W        W44880   7.831   7.932  15.041 -0.0107  0.2062 -0.0165
26677W        W44881   8.093   8.058   0.822 -0.2345 -0.1554  0.1666
26678W        W44882  15.805   3.909  13.042 -0.1108  0.0288  0.0467
26679W        W44883  11.668   0.326   1.525 -0.0257  0.2842 -0.0957
26680W        W44884   1.676   8.189  10.718  0.1179 -0.1112  0.1305
26681W        W44885  13.959  17.868   4.312 -0.0404 -0.2001 -0.3656
26682W        W44886   4.769   3.030  14.972 -0.2543  0.2567  0.0290
26683W        W44887   9.334  12.220  10.784 -0.1139 -0.2183 -0.2810
26684W        W44888   9.217  12.187   3.501  0.0892 -0.1899  0.0132
26685W        W44889   9.268   4.168   0.868 -0.0055  0.0823 -0.0714
26686W        W44890  17.140  17.522   2.835  0.0604 -0.0844 -0.0137
26687W        W44891  11.721   8.564   0.964 -0.0297 -0.0256  0.1083
26688W        W44892  16.853  12.696   0.894 -0.3409 -0.0485 -0.1191
26689W        W44893   4.093  17.757  14.013 -0.2489  0.5569  0.1283
26690W        W44894   2.451   8.051  14.276 -0.2531 -0.2335  0.0293
26691W        W44895  12.363   5.901   3.811  0.0972 -0.1656 -0.0927
26692W        W44896   3.764   6.402  11.363  0.3465  0.2781 -0.1478
26693W        W44897   0.008   3.157  13.398  0.2907 -0.2174  0.2070
26694W        W44898   5.692  17.085   3.136 -0.2518  0.0626  0.1559
26695W        W44899   8.738  10.174  12.138  0.0410  0.2636  0.0601
26696W        W44900   7.919  12.553   1.776  0.4163 -0.0835  0.1714
26697W        W44901  15.529  14.772   1.849 -0.1384 -0.3401  0.3124
26698W        W44902  18.284  17.962   3.568 -0.6078  0.0373  0.2208
26699W        W44903   9.684   5.243   3.122 -0.0100  0.0584 -0.2611
26700W        W44904   9.751   4.267   0.677  0.4052  0.4057 -0.1684
26701W        W44905   6.027  11.357   5.284 -0.3433 -0.1715 -0.0002
26702W        W44906  12.257  18.084   0.325  0.0678 -0.0874 -0.4183
26703W        W44907   1.396   3.039   0.432 -0.2159 -0.0534  0.0054
26704W        W44908   3.423  15.310   1.464 -0.0888 -0.2351 -0.2917
26705W        W44909   8.175  11.945  11.053 -0.1399 -0.2940 -0.0154
26706W        W44910   0.277   7.379  14.268 -0.0002 -0.1312  0.0938
26707W        W44911  12.649   5.084   3.877  0.1367  0.3147 -0.0777
26708W        W44912  12.801   8.581   4.122  0.2984 -0.0288  0.1117
26709W        W44913   1.722  10.495   1.500 -0.0058  0.1625 -0.0236
26710W        W44914  15.509  17.401   4.414  0.1518  0.0172  0.0961
26711W        W44915   6.153  17.464  13.130 -0.0443  0.1761  0.1114
26712W        W44916   5.892  13.189   2.431  0.1598 -0.0076 -0.3188
26713W        W44917   2.714  13.182   2.385 -0.0411 -0.0063  0.1796
26714W        W44918  16.414  15.320  13.867 -0.4126 -0.0018  0.0769
26715W        W44919  18.400   0.669  11.999  0.1078  0.2485 -0.0230
26716W        W44920  17.106  15.316   0.359  0.0940  0.0408 -0.0410
26717W        W44921   9.080   9.631   4.509 -0.2749  0.0260  0.0673
26718W        W44922  13.771  11.512   4.385  0.0523 -0.2086 -0.2442
26719W        W44923   9.070  15.660   2.256 -0.0199 -0.0894 -0.2099
26720W        W44924   8.047  16.074  10.871  0.0833  0.1882  0.0039
26721W        W44925   3.460   4.578  10.989 -0.1020  0.0351 -0.0307
26722W        W44926   2.581  17.258   1.090 -0.1699  0.0332  0.0966
26723W        W44927  10.690   3.686  12.997  0.0702  0.0538 -0.1332
26724W        W44928  13.590   4.315  14.370  0.1540 -0.1728  0.2781
26725W        W44929  17.383   7.507  15.119  0.0852 -0.0412  0.1730
26726W        W44930   0.010  15.726   0.753 -0.2208  0.0092  0.2783
26727W        W44931   8.510   4.436  12.125  0.1468  0.1281 -0.0511
26728W        W44932   9.732   6.281  14.960 -0.1314  0.0526  0.0249
26729W        W44933   0.720  15.956  10.477  0.1047  0.0334 -0.0026
26730W        W44934  13.244   0.961  13.476  0.4288 -0.3564  0.2950
26731W        W44935   7.507   5.473  13.580  0.0494 -0.0371 -0.0446
26732W        W44936   8.679   7.110   0.230  0.0170 -0.2534  0.0529
26733W        W44937  12.287  14.133   3.762  0.0641  0.1202  0.0293
26734W        W44938  10.097   9.854   4.154 -0.0294  0.1257 -0.1746
26735W        W44939  16.584   4.363  10.300 -0.1411  0.2378  0.2368
26736W        W44940   7.173   5.359  11.054  0.2377 -0.0526  0.0633
26737W        W44941   3.984  12.840  13.274 -0.2658 -0.0269 -0.0693
26738W        W44942  15.117   1.097   1.405 -0.1472 -0.3848  0.0914
26739W        W44943   4.236  13.762   3.000 -0.3467  0.1527  0.1795
26740W        W44944   2.218   1.424  11.221  0.0543 -0.0981  0.0399
26741W        W44945  16.188  13.831  11.684 -0.0784  0.0286 -0.0304
26742W        W44946   3.735  15.947   0.854 -0.1566  0.0792 -0.0438
26743W        W44947   9.254   7.388  12.860  0.0349  0.0147  0.0772
26744W        W44948  16.576   8.439   3.630 -0.0712  0.1801 -0.2439
26745W        W44949   5.572  18.172   1.556 -0.2936 -0.1344 -0.1063
26746W        W44950   7.711  18.243   4.374 -0.1419  0.0748 -0.1252
26747W        W44951   4.236   4.139  13.059 -0.0109 -0.0860  0.2181
26748W        W44952   7.641  11.956  15.424 -0.0620 -0.2064 -0.3382
26749W        W44953  15.298  15.671  14.429 -0.2198  0.4351  0.0629
26750W        W44954  16.179   0.443   3.821  0.1942 -0.0629 -0.0936
26751W        W44955   5.383  14.136  13.949 -0.0773  0.0644  0.1218
26752W        W44956  12.203   0.756  13.072  0.0107 -0.2594 -0.3467
26753W        W44957   8.138  15.036   4.659 -0.1046 -0.1786 -0.3276
26754W        W44958  11.934   2.070   0.106 -0.2047  0.1451  0.6177
26755W        W44959   6.273  12.798  11.522  0.0092  0.1562 -0.1242
26756W        W44960   5.443  13.631  11.840 -0.2437 -0.1925 -0.4267
26757W        W44961   3.466  16.981  11.190  0.0102 -0.0717 -0.2232
26758W        W44962  14.108   9.948   1.234 -0.2421  0.1758  0.4112
26759W        W44963  16.554  15.519   3.835 -0.2988 -0.2183 -0.0811
26760W        W44964  16.840   2.574  12.149  0.0396 -0.1522 -0.1457
26761W        W44965   7.474   3.525  12.886  0.0115  0.0823  0.2248
26762W        W44966   2.733   1.184   0.565 -0.1000  0.0487  0.0983
26763W        W44967   8.650   3.922   1.277  0.2100 -0.0976 -0.0102
26764W        W44968  12.266   4.554   2.659  0.1330 -0.1785  0.1797
26765W        W44969   4.790   8.688  11.099  0.0196 -0.2948  0.0310
26766W        W44970   6.000   7.644  11.142 -0.0423 -0.0487 -0.1837
26767W        W44971  14.699  10.596   1.397  0.0683 -0.0178 -0.0887
26768W        W44972   3.425   5.935  14.386  0.0308 -0.4088  0.0987
26769W        W44973   8.025   1.467  12.870  0.1497 -0.0050 -0.1792
26770W        W44974   0.674   6.774  13.792  0.1476  0.1503  0.0131
26771W        W44975  17.762   5.177  14.254  0.2950  0.0002  0.0757
26772W        W44976   7.323  17.368   3.908 -0.1437 -0.0397 -0.0844
26773W        W44977   1.296   7.153   4.181 -0.1316  0.0648 -0.1882
26774W        W44978   7.241  14.848  11.101  0.2093 -0.0948 -0.0743
26775W        W44979  13.913  12.351   4.101  0.3080  0.0002 -0.2469
26776W        W44980   8.848  10.955  13.945  0.1543 -0.0235 -0.3184
26777W        W44981  17.221  10.209  13.988 -0.3339  0.3421 -0.0761
26778W        W44982   2.218  11.682  11.096 -0.0588  0.2829 -0.2558
26779W        W44983   4.133  18.593  13.620 -0.0512  0.1918 -0.1651
26780W        W44984  15.975   5.976   1.537 -0.3007 -0.1923 -0.1104
26781W        W44985  10.115   7.076  12.512  0.0492  0.1036 -0.1731
26782W        W44986  11.758  16.602  11.296  0.0768  0.0495  0.0118
26783W        W44987   1.070   3.365  13.363  0.3007 -0.1644 -0.0306
26784W        W44988  14.957   9.726  12.248  0.0432  0.1748  0.0648
26785W        W44989   3.367  15.564   4.534  0.0836  0.0707  0.0058
26786W        W44990  17.082   3.515  11.903 -0.0235 -0.2474 -0.2023
26787W        W44991  11.601   4.970   3.492 -0.0272 -0.0501 -0.0533
26788W        W44992  10.987  12.679   1.912 -0.1624  0.0978  0.4434
26789W        W44993  11.217  10.770  13.489  0.0371 -0.2103  0.0181
26790W        W44994   1.897  16.443   3.101 -0.4814 -0.1761  0.2818
26791W        W44995   6.495  18.261  13.008  0.0930  0.1757 -0.2233
26792W        W44996  15.661   8.719  11.950  0.0044  0.3019 -0.0474
26793W        W44997   6.125   4.651  14.209 -0.0354 -0.2971 -0.0777
26794W        W44998  16.606  18.203   3.780  0.1939 -0.2490 -0.1162
26795W        W44999  11.339   4.635  14.807 -0.0214  0.1697 -0.2174
26796W        W45000   1.118  13.089  12.888  0.1448  0.0962 -0.4363
26797W        W45001  11.010   9.014  14.271 -0.2409 -0.1183 -0.1374
26798W        W45002  14.675   9.657  14.019 -0.2508  0.0468 -0.0348
26799W        W45003   0.047   5.322   2.631  0.2703  0.2533 -0.1197
26800W        W45004  10.969   5.546  13.887 -0.0233  0.1458 -0.1684
26801W        W45005   2.036  15.447  11.005  0.1602 -0.3448  0.2324
26802W        W45006  10.869   2.194   4.202  0.0721  0.1132  0.2740
26803W        W45007   3.311   0.014  14.430 -0.1781 -0.3470  0.5091
26804W        W45008  12.152  16.643   3.839 -0.0121 -0.0052 -0.2552
26805W        W45009   2.435  14.083  15.116 -0.1404 -0.1404  0.1656
26806W        W45010   0.886   0.419   0.162 -0.0124 -0.1635 -0.1878
26807W        W45011   9.045   8.439  11.914 -0.2564 -0.0202  0.1814
26808W        W45012   4.021   8.567   2.166 -0.0767 -0.0560 -0.1421
26809W        W45013  12.850  16.071  13.083 -0.1083 -0.2427  0.0624
26810W        W45014   8.689  11.435   3.055 -0.0960  0.4520  0.1744
26811W        W45015   7.304   9.476   0.764 -0.3827 -0.2174  0.0927
26812W        W45016   5.613   7.138  15.262 -0.3078 -0.0217 -0.1044
26813W        W45017   2.553   7.353  15.081 -0.0198 -0.0541 -0.1717
26814W        W45018  12.345  13.263   1.065 -0.1210 -0.2484 -0.0759
26815W        W45019  15.183   6.064  13.306  0.0034 -0.1162 -0.1853
26816W        W45020  11.295  16.353  14.566  0.2123  0.2174  0.0553
26817W        W45021  13.039  18.297  13.329  0.0707 -0.1842 -0.1603
26818W        W45022  17.160  17.888  11.106 -0.0706  0.1812  0.0735
26819W        W45023  14.273   2.517  13.652  0.0200 -0.3179 -0.2616
26820W        W45024   7.330   6.593  10.323  0.1551  0.1910  0.0342
26821W        W45025  10.922   8.115  12.343  0.1727 -0.2348 -0.0049
26822W        W45026   9.997  18.146  12.773 -0.1422  0.0004  0.0174
26823W        W45027   2.777   5.560  12.315 -0.0077  0.3723 -0.0338
26824W        W45028   3.516  11.165   1.405 -0.2681 -0.4571  0.2843
26825W        W45029   6.843  13.463  14.097 -0.1068  0.0331  0.3887
26826W        W45030   9.210   1.565  14.219 -0.1668  0.0965 -0.3491
26827W        W45031   3.290   7.805   5.064  0.3687  0.4529  0.2581
26828W        W45032   5.661   8.883   1.730 -0.2273 -0.3189  0.2722
26829W        W45033  14.592   1.835   1.436 -0.0556  0.1661 -0.0096
26830W        W45034   1.114  15.754   1.805  0.6291  0.1366 -0.2705
26831W        W45035  13.089  18.178   0.505  0.1281 -0.0684  0.0267
26832W        W45036   0.693  12.543   2.887 -0.0856  0.1318  0.2155
26833W        W45037   2.918  18.245   3.853 -0.1848 -0.1357 -0.1322
26834W        W45038   1.302  18.571   2.792  0.1792  0.2977  0.0609
26835W        W45039   8.509   8.744   0.482 -0.0858 -0.3314  0.2962
26836W        W45040   4.128   8.080   9.548 -0.1327  0.1071  0.0551
26837W        W45041   3.605  14.678   4.078 -0.2521 -0.1522 -0.1620
26838W        W45042   2.020   9.151  14.100 -0.0427  0.1077 -0.1021
26839W        W45043   6.399  12.908  14.617 -0.1363  0.1110 -0.0606
26840W        W45044   9.336  16.065   3.136  0.0244  0.2488  0.0592
26841W        W45045   4.559  14.801   2.957 -0.3070 -0.3256 -0.1053
26842W        W45046  16.384   4.306   4.703  0.1500  0.0452  0.1593
26843W        W45047   4.263  16.108  13.035 -0.2372 -0.3197 -0.0146
26844W        W45048   8.726  18.319   4.545 -0.0974 -0.2491 -0.2950
26845W        W45049   7.263  15.151  15.190  0.0111  0.0975  0.0823
26846W        W45050  13.955   7.924   0.388 -0.2149 -0.2723  0.3081
26847W        W45051   4.447  16.986   2.570  0.0413  0.2598 -0.2992
26848W        W45052  15.996   7.681   3.131 -0.1269  0.1096  0.4058
26849W        W45053  11.926  18.469   4.773 -0.0678 -0.3414  0.0996
26850W        W45054   1.918  15.559  14.900  0.0977 -0.0773  0.0219
26851W        W45055   3.987   9.337   2.532  0.0288 -0.0573 -0.1037
26852W        W45056  11.166   4.586  13.501 -0.1273  0.2267 -0.1621
26853W        W45057   2.702   3.217   1.870 -0.0012 -0.0974  0.1218
26854W        W45058  17.681   8.837   0.382  0.0004  0.1362  0.0744
26855W        W45059   3.452  10.316  11.532 -0.0061  0.2257  0.1871
26856W        W45060  11.007  16.951   4.181  0.0303 -0.0570  0.0112
26857W        W45061  18.534  12.206  14.331 -0.0203  0.4507 -0.1531
26858W        W45062  13.428   5.526   3.462  0.1306 -0.0840  0.0973
26859W        W45063   4.348  15.741  14.841 -0.2817  0.0594  0.2494
26860W        W45064  15.722   5.895  14.215 -0.1990  0.0552 -0.0653
26861W        W45065  15.080   3.374  13.376  0.0151  0.5697 -0.1119
26862W        W45066   6.026  18.092   0.379 -0.1877  0.3590  0.4549
26863W        W45067  14.170   7.561   2.998  0.1163  0.2238 -0.2046
26864W        W45068   4.414   2.164  12.683  0.0678 -0.0555  0.3578
26865W        W45069   8.121  14.569  14.268 -0.1628 -0.0232 -0.3582
26866W        W45070   6.296  13.036  11.922  0.0177  0.2001 -0.3010
26867W        W45071  17.930   2.133  13.124  0.2018 -0.4605 -0.3215
26868W        W45072   6.699  17.523   4.223  0.0816  0.2825  0.2090
26869W        W45073   0.599   1.891  14.533  0.1094  0.1984  0.0675
26870W        W45074   2.260  13.439  14.001  0.1419 -0.1307 -0.2268
26871W        W45075   8.645  12.973  13.812  0.0976  0.2751 -0.0093
26872W        W45076  18.156   6.928   1.045 -0.0397 -0.1939 -0.2675
26873W        W45077  17.338   0.286   3.702 -0.0257  0.1670 -0.0702
26874W        W45078   7.379   8.102   2.849 -0.0974  0.1528  0.1134
26875W        W45079  18.515   4.510  15.211  0.0852  0.2966 -0.2201
26876W        W45080   6.324   0.872   1.030  0.1257 -0.2910 -0.1129
26877W        W45081  10.917  18.344  14.386 -0.1521  0.0376 -0.2109
26878W        W45082   5.385   7.639   3.936 -0.3852  0.3233 -0.2242
26879W        W45083   0.269   5.651   1.304  0.2077 -0.3175  0.1700
26880W        W45084  16.707  12.095   0.055  0.0967  0.0068  0.5129
26881W        W45085   6.047   0.103   4.385 -0.1627  0.1990  0.0239
26882W        W45086   5.212   8.049   1.902 -0.0063 -0.1190  0.0850
26883W        W45087  13.023   7.779  14.889 -0.0092  0.1471 -0.0876
26884W        W45088  10.031  10.270  12.459 -0.1444 -0.0368 -0.2014
26885W        W45089   2.934  12.324   0.445 -0.1649  0.1190 -0.3852
26886W        W45090   2.099   4.322  10.281 -0.2445  0.1527 -0.1503
26887W        W45091   1.368   0.783  13.954 -0.2033  0.1998 -0.0655
26888W        W45092   8.781   3.764  15.279  0.1296 -0.1402  0.0409
26889W        W45093   3.724  13.226  11.670  0.0901 -0.1144 -0.2260
26890W        W45094  15.121   6.650   2.538  0.0795  0.0686  0.2541
26891W        W45095   1.717  17.525   3.153 -0.0041  0.0721  0.2514
26892W        W45096  10.508   6.641   1.576  0.1673 -0.1846 -0.1759
26893W        W45097   9.735  10.977  12.609 -0.0706  0.0016 -0.1768
26894W        W45098  18.466  16.254   0.215 -0.0653 -0.1070  0.2824
26895W        W45099  15.901  15.030  14.852 -0.0426 -0.0347 -0.1326
26896W        W45100   8.853  10.429  13.977 -0.2820  0.2563  0.2533
26897W        W45101   4.773   7.694   4.697  0.1494 -0.1892 -0.2471
26898W        W45102   6.044  10.668   2.572 -0.0236 -0.2061  0.3681
26899W        W45103   2.954  11.766  11.592 -0.0531  0.0304 -0.2623
26900W        W45104  12.093   3.212  14.103 -0.0582  0.1540 -0.0419
26901W        W45105  15.825  17.902  10.924 -0.0426 -0.0905  0.1969
26902W        W45106  14.234   3.495  11.027 -0.3695  0.2245 -0.5367
26903W        W45107   8.020  12.675  11.710 -0.2824 -0.1226  0.0236
26904W        W45108   0.522   1.892   1.150 -0.1210 -0.1401 -0.1977
26905W        W45109  14.837  17.984  11.976 -0.0384  0.0640 -0.1085
26906W        W45110  12.011  15.707   0.132 -0.0573  0.1213  0.0188
26907W        W45111  18.031   3.312  14.422 -0.3360 -0.0559  0.2367
26908W        W45112   0.709  18.085  10.949 -0.0964 -0.0121  0.3287
26909W        W45113   4.547  13.286  11.520  0.3733 -0.1398 -0.0454
26910W        W45114  16.564   3.812   2.326 -0.2245  0.0143  0.0910
26911W        W45115   5.907   8.481  14.514 -0.0030 -0.4452  0.0808
26912W        W45116   4.968   3.285   1.712  0.3296  0.0138  0.2062
26913W        W45117   9.407  11.308  15.049 -0.0126 -0.0343  0.0161
26914W        W45118  11.303  10.558  12.599 -0.3567 -0.0575  0.0115
26915W        W45119   7.209  14.882  11.957  0.0604  0.0906  0.0799
26916W        W45120  12.078   0.309   4.982 -0.0661  0.0406 -0.1532
26917W        W45121  10.084   3.815  11.521  0.3154 -0.1380 -0.2701
26918W        W45122   3.829  16.376  11.036 -0.0788  0.0475 -0.2982
26919W        W45123  16.733   7.936   2.954  0.1992 -0.4628  0.0058
26920W        W45124   5.556  15.999  13.308 -0.0348 -0.0270  0.1580
26921W        W45125  10.702   7.606  14.572 -0.0558  0.0863  0.2351
26922W        W45126   3.155   4.237   3.907 -0.0915  0.1404 -0.1620
26923W        W45127   2.113  16.772  12.352 -0.0007  0.0013  0.3733
26924W        W45128   7.993  13.383  12.594 -0.1716  0.0590  0.0867
26925W        W45129  11.447   9.186   1.504  0.2510 -0.0428  0.3006
26926W        W45130   1.887  16.942   1.627 -0.2628 -0.2927  0.0612
26927W        W45131   8.201  16.912  14.591  0.1608  0.0996  0.2121
26928W        W45132   6.790   7.682   3.492  0.2136  0.2137  0.0710
26929W        W45133  15.491  15.255   3.118  0.0841 -0.0590  0.0201
26930W        W45134   9.303  13.099   1.666  0.3542  0.1278 -0.0177
26931W        W45135   3.669   1.848  13.235  0.1750  0.1594 -0.1496
26932W        W45136   9.605   4.586   4.357 -0.4022 -0.0575  0.2648
26933W        W45137  17.861   2.328   1.794  0.0008 -0.3705  0.4467
26934W        W45138  16.144  16.863   1.490  0.0599  0.1533 -0.0207
26935W        W45139  15.163   1.684  12.122 -0.1294 -0.1086  0.3731
26936W        W45140  10.631  11.751   2.717  0.0614 -0.1130 -0.0869
26937W        W45141   4.875   2.351   5.215 -0.3817 -0.0865  0.0497
26938W        W45142  10.152  15.689  14.016 -0.1805  0.0829 -0.0332
26939W        W45143   2.428  18.448   3.642 -0.0713 -0.0590  0.0806
26940W        W45144   1.680  17.390  13.569  0.3148 -0.3986  0.2334
26941W        W45145   6.569  14.638  11.391  0.1723  0.1560 -0.0481
26942W        W45146   9.917  18.071   1.067 -0.0169 -0.0755  0.0664
26943W        W45147  17.979  17.277   2.756 -0.0317 -0.0641  0.0252
26944W        W45148  14.461  10.180   0.141  0.0288 -0.0961  0.1691
26945W        W45149   5.568  15.269  14.223  0.2108 -0.1688 -0.1894
26946W        W45150   6.772  12.391   2.197  0.0415 -0.0383  0.0485
26947W        W45151   5.088  13.744   1.575  0.2273 -0.2038 -0.1546
26948W        W45152  17.845   7.826   2.578  0.2321  0.0178 -0.2705
26949W        W45153   5.324  16.864   1.054 -0.2618 -0.1037 -0.2110
26950W        W45154   6.285   7.312  10.876  0.1001  0.0740  0.3944
26951W        W45155  17.937   3.632   4.041  0.2757  0.1325  0.0345
26952W        W45156   8.694   4.170  11.184 -0.2488 -0.3734  0.2038
26953W        W45157  11.138  18.280   1.613 -0.0153  0.0346  0.0986
26954W        W45158  15.484   0.477  12.962 -0.1234  0.0106  0.1141
26955W        W45159  16.240   2.310   2.089 -0.1754 -0.0242 -0.2142
26956W        W45160   9.129   7.788   3.185  0.0799 -0.0884  0.2353
26957W        W45161   7.323   0.387   2.931 -0.2494 -0.4293  0.0737
26958W        W45162   9.774  15.589  11.327 -0.1790  0.1871 -0.2198
26959W        W45163  16.192   0.095  12.000 -0.0688 -0.0758  0.0419
26960W        W45164  18.093   9.637  13.897 -0.2339  0.0774 -0.2339
26961W        W45165  10.659   3.360   1.762 -0.0010 -0.0692  0.0602
26962W        W45166   7.946   0.165  11.507  0.0416 -0.0978 -0.4126
26963W        W45167  12.745   3.260  13.455 -0.0151  0.1556 -0.0020
26964W        W45168   8.867  11.066  12.199 -0.1300  0.1925 -0.3207
26965W        W45169   1.296  15.265  15.164 -0.1646 -0.2228  0.2010
26966W        W45170   4.293  15.129  14.466 -0.1267 -0.0007 -0.1298
26967W        W45171  17.909   3.398   2.053 -0.3441 -0.1920  0.1957
26968W        W45172   5.381   6.671  14.402 -0.0417 -0.0919  0.2688
26969W        W45173  15.648   4.659  14.419 -0.0236 -0.0275 -0.3391
26970W        W45174  17.900   2.788   4.294  0.0384 -0.1798 -0.2482
26971W        W45175   5.147   5.224  14.548 -0.0975 -0.3756  0.2373
26972W        W45176  18.467   9.066   4.677 -0.0591 -0.1435 -0.0787
26973W        W45177  17.793  15.383   1.621  0.0274  0.0896  0.1394
26974W        W45178   2.365  16.417  11.661 -0.0994 -0.3642  0.2914
26975W        W45179  13.717  11.565   2.561 -0.5588 -0.0689 -0.1064
26976W        W45180   2.581  15.488   5.118 -0.0195 -0.1419  0.1029
26977W        W45181  15.188  16.867  14.362 -0.1708 -0.2070  0.1390
26978W        W45182   0.148  18.030   1.840  0.1099 -0.0017  0.1630
26979W        W45183  16.324  17.334  14.225  0.3640 -0.1607  0.1698
26980W        W45184  12.244   9.734   3.575  0.1698 -0.1263  0.1354
26981W        W45185  14.992  17.337  14.237 -0.1299 -0.1736  0.0728
26982W        W45186  10.788  15.767  11.702 -0.0214  0.1682  0.1298
26983W        W45187   9.932  10.266  11.659 -0.1779 -0.1167  0.1091
26984W        W45188   3.605  18.105  12.104 -0.0840  0.2611 -0.2260
26985W        W45189  17.560   2.354  13.467 -0.1255  0.3363 -0.1609
26986W        W45190   6.270  15.728  11.186 -0.0577 -0.0971 -0.0566
26987W        W45191   5.737  11.159  12.454 -0.1516 -0.0668 -0.3260
26988W        W45192  14.705  11.034  12.740 -0.2838  0.1178 -0.1026
26989W        W45193  11.810  15.628  12.351  0.0472  0.1104 -0.1806
26990W        W45194   7.182   3.083  13.814 -0.1460 -0.0847  0.1187
26991W        W45195   7.334   8.055   1.440  0.1397 -0.1658 -0.0112
26992W        W45196   7.385   8.644  12.678 -0.1935  0.3774  0.2609
26993W        W45197   1.812   1.293   4.669 -0.0291  0.1304 -0.1909
26994W        W45198   3.467   7.431   0.559 -0.1938  0.1421 -0.1045
26995W        W45199  12.053   1.209   1.419 -0.1584  0.0860 -0.1633
26996W        W45200  10.135   1.617   3.867 -0.0109  0.2887 -0.5241
26997W        W45201  18.085   0.844  14.956  0.4091  0.1477 -0.1926
26998W        W45202   5.013   8.780  14.025  0.1513 -0.2476  0.0114
26999W        W45203  18.581   9.479  11.949  0.2018 -0.0274  0.1754
27000W        W45204  17.144   8.972   0.350  0.0557 -0.0277  0.0629
27001W        W45205   2.051   5.160   0.996 -0.1125  0.4990  0.1269
27002W        W45206   2.415   8.450  11.223 -0.1192 -0.1144  0.0092
27003W        W45207   2.802  16.354   1.552  0.1001 -0.0892 -0.0458
27004W        W45208  14.841   3.919   3.178  0.1170 -0.0857  0.2243
27005W        W45209   9.305   5.271   0.748 -0.1318 -0.0188 -0.0316
27006W        W45210   0.460   4.539   1.030  0.0302  0.0078 -0.0780
27007W        W45211   8.173  15.789   1.204  0.0871  0.1042 -0.2044
27008W        W45212   1.228  17.959  10.295  0.1987 -0.0566  0.0606
27009W        W45213  12.589  10.026  12.016 -0.0374 -0.1186 -0.2017
27010W        W45214   8.516  14.364  11.954  0.0843  0.2913 -0.0947
27011W        W45215   7.839  13.572  11.163 -0.1927  0.4085  0.0407
27012W        W45216  16.726  10.915  15.157  0.0088 -0.2460  0.2338
27013W        W45217   4.384   0.436   1.168  0.1213  0.1108  0.0146
27014W        W45218  17.435   8.717   3.163 -0.1344  0.1149  0.2008
27015W        W45219   9.305  14.435   3.019  0.3315  0.0703  0.3080
27016W        W45220  14.731  17.278  11.406  0.2500  0.1558 -0.0195
27017W        W45221  13.319  14.220   0.524 -0.1145 -0.0830  0.1676
27018W        W45222   2.596  13.578   0.278 -0.1532 -0.0724  0.1101
27019W        W45223   7.647  14.160   1.347  0.3574 -0.0119 -0.0871
27020W        W45224  10.791  15.407  14.762  0.1345  0.0015 -0.0406
27021W        W45225   2.300   3.612  14.112 -0.2914  0.0329  0.0407
27022W        W45226   5.312   3.552   2.935  0.0547 -0.1506  0.0748
27023W        W45227   9.772  17.240   3.774 -0.1377  0.3571  0.2482
27024W        W45228   4.250  18.233   4.602 -0.1597  0.0139 -0.1912
27025W        W45229   0.419   6.530   0.919  0.1730 -0.1870  0.4422
27026W        W45230  16.200   0.844   0.328  0.3819  0.1604  0.3113
27027W        W45231  14.546   9.199   1.213  0.2799 -0.0293 -0.3714
27028W        W45232   2.872  10.326   0.562 -0.0377  0.3065 -0.2288
27029W        W45233   9.110   2.276  11.610 -0.1347 -0.0317  0.0396
27030W        W45234  18.504  12.907  11.740  0.0836 -0.0318 -0.0310
27031W        W45235   7.412   9.445  11.946  0.1912  0.1576 -0.2659
27032W        W45236  17.724   4.189  11.995  0.3792 -0.0974 -0.2297
27033W        W45237   7.829   2.587  15.398 -0.0440 -0.1044  0.0790
27034W        W45238  17.550  13.004  13.009  0.0240  0.0231 -0.1698
27035W        W45239  18.198   5.699  12.006 -0.1402  0.0404  0.0159
27036W        W45240  11.248  11.221  12.360 -0.3056  0.2762 -0.0796
27037W        W45241   9.549   9.843   1.158 -0.0786  0.0080  0.0676
27038W        W45242  10.216  16.220   4.671 -0.0173 -0.2775  0.1792
27039W        W45243  17.535  13.578   2.978 -0.0459 -0.0068 -0.2572
27040W        W45244   9.693  18.506   4.591  0.0435 -0.1037  0.2519
27041W        W45245   6.594   0.138  13.124  0.3818 -0.3355  0.1441
27042W        W45246   5.781  14.027  10.243  0.3077 -0.1691  0.2137
27043W        W45247  16.114   9.504   3.418  0.1992 -0.1849 -0.3184
27044W        W45248   1.920   1.395  13.151 -0.1067  0.0603  0.3084
27045W        W45249   3.038  17.079  12.338  0.0008  0.3533 -0.3637
27046W        W45250   8.408   9.752  15.178 -0.0586 -0.0545 -0.0221
27047W        W45251  17.305  11.557   2.829  0.3128 -0.0378  0.1123
27048W        W45252   6.782  14.675   4.620  0.1534  0.0560  0.0248
27049W        W45253  13.977  15.678  15.133  0.1821  0.0142 -0.1469
27050W        W45254  10.637   8.688  13.536 -0.1098 -0.0358 -0.0422
27051W        W45255   5.925   7.103   1.671 -0.2336  0.2185  0.2465
27052W        W45256  10.658  16.770  12.417 -0.0063 -0.0734  0.4252
27053W        W45257  14.590  14.243   4.054 -0.0222  0.0517  0.0781
27054W        W45258  16.384  15.147   3.009 -0.2114 -0.3000  0.1294
27055W        W45259  10.045   6.516  12.535 -0.0551 -0.0692  0.0749
27056W        W45260  14.693   6.737   4.293 -0.0757  0.1108 -0.1281
27057W        W45261   4.385   2.094   3.595 -0.4416 -0.1350 -0.0223
27058W        W45262   4.849   7.777  10.324 -0.0832 -0.0266  0.1039
27059W        W45263  16.819   2.701   3.777  0.0529  0.2518  0.2536
27060W        W45264   1.195  16.437  14.047  0.2273  0.0842  0.0708
27061W        W45265   5.284   2.171   1.176 -0.1749  0.2208 -0.0507
27062W        W45266  18.461  13.721   5.010 -0.0198 -0.0758 -0.0288
27063W        W45267  11.849  16.006  13.126  0.0123  0.0397  0.4471
27064W        W45268   4.594   9.911   4.124  0.1118 -0.1144 -0.1982
27065W        W45269   5.163   5.109  13.233 -0.0597 -0.1852  0.1927
27066W        W45270  18.095   3.938  13.132  0.1560 -0.1867 -0.1851
27067W        W45271  14.034  10.406  13.105  0.2331  0.0371  0.2225
27068W        W45272   6.583   0.192   2.196  0.1869  0.1201  0.1525
27069W        W45273  16.574   9.992   4.192 -0.1689  0.2857  0.0472
27070W        W45274  11.695  14.181   2.219 -0.2120  0.1211  0.2650
27071W        W45275   7.224   7.380   4.345 -0.1100 -0.2973  0.2026
27072W        W45276  14.100   3.281  14.804  0.2239  0.0498  0.0906
27073W        W45277  13.624   6.612   1.887  0.1796 -0.0152 -0.2447
27074W        W45278   1.446   9.310   2.085  0.2186 -0.3476  0.2673
27075W        W45279   7.587   4.269  11.718 -0.2631  0.0581  0.0582
27076W        W45280  10.808   7.745  11.551 -0.2624  0.1794  0.3131
27077W        W45281  12.753  17.289   2.474  0.0030  0.1639 -0.3092
27078W        W45282  10.139  17.126  14.723  0.2289 -0.1363 -0.0335
27079W        W45283   7.079  10.408   1.813 -0.2874 -0.0538  0.0111
27080W        W45284  14.908   7.305   1.154  0.2707 -0.1785  0.1828
27081W        W45285  12.585  14.779   0.506  0.2315 -0.0927 -0.2497
27082W        W45286   1.679   8.854   1.837  0.1823 -0.4133  0.4088
27083W        W45287  17.968  10.301  14.699  0.1814 -0.1290  0.1243
27084W        W45288  18.237  11.383   0.672  0.2549  0.3093  0.0455
27085W        W45289  16.600  13.830   2.947  0.2626 -0.1357 -0.0343
27086W        W45290   1.048  15.912  10.959  0.0088 -0.2222  0.1320
27087W        W45291  15.963  11.226  11.102  0.1296  0.0132 -0.1303
27088W        W45292  16.578  13.373   1.886  0.1945 -0.1834 -0.1953
27089W        W45293  10.683  17.552   5.688 -0.1829 -0.2775 -0.0619
27090W        W45294   1.217  14.083  12.944 -0.2462 -0.2706 -0.0870
27091W        W45295   4.374   1.219   2.678 -0.0767  0.1164 -0.1877
27092W        W45296  15.702   3.414  12.952  0.2333  0.1513 -0.2386
27093W        W45297  10.163   0.403   3.766  0.0574  0.0232 -0.1817
27094W        W45298   1.656   1.015   1.970 -0.2598  0.1228  0.0259
27095W        W45299   4.032  18.027  13.512  0.1277 -0.2757  0.1445
27096W        W45300  14.689  15.777   0.357 -0.0653 -0.0479 -0.2193
27097W        W45301   2.549   3.629  10.703 -0.1849 -0.1517 -0.0474
27098W        W45302   3.087   9.498  13.302 -0.1113 -0.3461  0.1020
27099W        W45303  18.184   4.953  13.209  0.0858 -0.0939  0.1283
27100W        W45304  18.140  15.404  11.367 -0.0963  0.3540  0.1415
27101W        W45305   5.749  11.165  13.707 -0.2796 -0.2060  0.2177
27102W        W45306  13.963   0.581   4.287  0.3401  0.0140 -0.2674
27103W        W45307   7.699   1.220  13.901  0.1766  0.1235 -0.2639
27104W        W45308  13.079   3.800   1.431 -0.2293 -0.1144  0.0949
27105W        W45309  14.388   3.342   2.893  0.2073 -0.0872  0.3368
27106W        W45310  18.031   9.314   4.697 -0.0247 -0.0808 -0.0502
27107W        W45311  10.102  18.115  14.915  0.0465 -0.1411  0.0179
27108W        W45312   0.994  15.816  15.204 -0.3078  0.1394  0.2558
27109W        W45313  13.169  17.684   0.631  0.0123  0.4420 -0.1417
27110W        W45314   6.759  13.318   4.104  0.1347 -0.1784  0.0107
27111W        W45315   4.858  11.984   4.636 -0.0843 -0.2562  0.0726
27112W        W45316  17.309   8.487   1.570 -0.1637 -0.1184 -0.2505
27113W        W45317   3.756  11.914   4.045  0.1237  0.2238  0.2266
27114W        W45318  10.872   8.595   1.748 -0.0440  0.1476  0.2596
27115W        W45319   0.703  11.973   2.088  0.0628  0.0721 -0.1235
27116W        W45320   7.244  15.566   2.446  0.1521  0.2638 -0.0105
27117W        W45321  11.299   7.119  15.151 -0.2020  0.1212 -0.1048
27118W        W45322   5.809  17.935  12.313 -0.1764  0.0690 -0.2264
27119W        W45323   6.963   2.132   2.843 -0.2083  0.2051 -0.0485
27120W        W45324   2.086   8.693   4.674 -0.1144 -0.0483  0.0358
27121W        W45325  15.248   8.906  10.848 -0.0876 -0.0701  0.0261
27122W        W45326   6.167   3.120   2.489 -0.1550 -0.0741 -0.0044
27123W        W45327   7.086  15.677   3.780 -0.1194 -0.1244 -0.1106
27124W        W45328  11.120   1.372   3.990  0.2914  0.1088 -0.1305
27125W        W45329   3.917   7.665   2.706 -0.1660  0.3980  0.0552
27126W        W45330   2.829   7.774  11.778 -0.2133 -0.1403 -0.1068
27127W        W45331  11.070  12.745   4.194 -0.4213  0.0095 -0.0794
27128W        W45332  12.635   7.921  13.058 -0.1498  0.1748 -0.1838
27129W        W45333   2.846  13.137  11.555 -0.2137  0.0156  0.0962
27130W        W45334   2.913   1.121  10.597  0.3493 -0.0757 -0.0404
27131W        W45335  15.443  13.311  12.644  0.0654 -0.2511  0.0236
27132W        W45336   9.763   4.399   2.594  0.2399  0.1549 -0.1937
27133W        W45337   2.578   7.112  11.912 -0.2591  0.4083 -0.1808
27134W        W45338  12.361  13.554  13.426  0.2520 -0.2898  0.2111
27135W        W45339   7.128  17.720   3.523 -0.3559 -0.2602 -0.1752
27136W        W45340  14.130  10.626   2.308 -0.1860 -0.0722 -0.2002
27137W        W45341   7.762   8.946   2.951 -0.1542  0.2033  0.0969
27138W        W45342  17.595   5.060  15.063 -0.0581 -0.3597 -0.0034
27139W        W45343  18.126   8.300   4.418  0.0388  0.0022  0.1064
27140W        W45344  13.223   8.679  13.371  0.0685 -0.2095 -0.1037
27141W        W45345  16.692   3.410   4.371  0.1497 -0.0342  0.2167
27142W        W45346  10.325   3.266   1.313 -0.1933 -0.0183  0.0477
27143W        W45347   7.915  13.745   1.714  0.1464  0.1509  0.0327
27144W        W45348  14.150  16.326   0.134  0.2303 -0.1937  0.2415
27145W        W45349   5.371  10.811  12.908  0.5205 -0.0715 -0.0081
27146W        W45350  13.682  15.256  11.222 -0.0370 -0.1860  0.1802
27147W        W45351  11.368   8.861  10.911 -0.2505  0.0751 -0.2554
27148W        W45352   6.434   7.177   1.506  0.0385  0.2208 -0.0367
27149W        W45353   5.083  13.362   5.661  0.0720  0.1054 -0.1369
27150W        W45354  15.507   2.418  12.879 -0.1084  0.0955 -0.2276
27151W        W45355   3.942  18.239   0.199  0.1616 -0.1355 -0.0933
27152W        W45356   2.867   1.975   0.533 -0.0323  0.1252 -0.2641
27153W        W45357   4.724  11.577  11.759  0.1082  0.1651  0.0292
27154W        W45358   7.593   4.055   4.739  0.1207 -0.1722 -0.1987
27155W        W45359   0.179  11.119   4.189  0.0252 -0.0617  0.0180
27156W        W45360   8.056   2.057   3.231 -0.2038  0.0637 -0.1345
27157W        W45361  13.439  13.858   0.824 -0.0598 -0.2784 -0.1757
27158W        W45362   3.179  15.122  14.914 -0.0144  0.1938  0.0018
27159W        W45363   9.871   5.675  11.252  0.1077  0.0874 -0.0360
27160W        W45364   6.952  12.025   5.791 -0.0537 -0.3164 -0.0857
27161W        W45365  16.116   1.702  10.038 -0.1792  0.3886 -0.3191
27162W        W45366  12.986   2.060  13.746  0.3174 -0.1216  0.1249
27163W        W45367  15.142   3.866   2.745  0.1234 -0.2217 -0.1408
27164W        W45368   3.227   8.438  11.800  0.0825 -0.1452 -0.3944
27165W        W45369  16.672   5.520  11.956 -0.0909  0.2649 -0.2659
27166W        W45370   2.040  14.199   1.491  0.0798 -0.0023 -0.0587
27167W        W45371   8.302  12.196   1.764 -0.2486 -0.3598 -0.0044
27168W        W45372  13.085   9.366   1.365  0.0252 -0.2503  0.2695
27169W        W45373  10.045  15.648  12.744 -0.0051 -0.0708 -0.0885
27170W        W45374  14.681   3.670   4.299 -0.0932 -0.0900 -0.2533
27171W        W45375  15.197  18.577   1.797  0.0004 -0.0668 -0.1034
27172W        W45376  12.014  11.826   0.619 -0.1613 -0.1255 -0.0581
27173W        W45377   9.785   0.364  11.314 -0.1125  0.2031 -0.1660
27174W        W45378   2.330   2.531   2.901 -0.1173  0.0248  0.2280
27175W        W45379  11.507  11.367  11.494  0.2010  0.0182 -0.2251
27176W        W45380  11.667   2.145  13.110  0.0407 -0.2881 -0.0203
27177W        W45381   8.004  18.182   3.813 -0.4067  0.1104  0.2758
27178W        W45382  10.622  18.117  15.004  0.2825  0.0516  0.1895
27179W        W45383  10.634  10.461   4.249  0.2415 -0.0730  0.1951
27180W        W45384  13.612  15.495  12.871 -0.2652 -0.1063  0.1268
27181W        W45385   2.309   4.259   1.438 -0.0063 -0.1703  0.0970
27182W        W45386  15.906   9.261  13.417 -0.0702 -0.1814 -0.0322
27183W        W45387   9.738   3.314  14.933 -0.0494 -0.0595  0.2539
27184W        W45388   6.374  16.281  12.675 -0.0302 -0.1195  0.2777
27185W        W45389  11.901  12.595  13.477  0.1380 -0.0975  0.1573
27186W        W45390  13.587   9.538  13.567  0.2729 -0.0530 -0.0622
27187W        W45391   8.660  16.630   2.468 -0.3494  0.0073 -0.2341
27188W        W45392  11.015  12.850   3.446  0.0133  0.1536 -0.2980
27189W        W45393   3.664  11.376   2.867 -0.1215 -0.0875 -0.0819
27190W        W45394   0.192   7.710   3.549 -0.4745  0.1709  0.0887
27191W        W45395   2.733  13.916  13.371 -0.1227 -0.0951 -0.0667
27192W        W45396  14.818  17.858  14.220 -0.0240 -0.3844  0.0237
27193W        W45397  10.515  17.255  12.236  0.0332 -0.0410  0.1735
27194W        W45398   1.313  13.735  13.418 -0.1020  0.2932 -0.3263
27195W        W45399   1.032   7.122  12.066 -0.3305  0.1287 -0.2873
27196W        W45400   3.983  16.828  14.151 -0.2165  0.0088  0.1810
27197W        W45401   2.044   2.328  12.164 -0.2880  0.1592  0.0155
27198W        W45402  17.459   2.072  13.051  0.1640  0.0901 -0.3485
27199W        W45403  12.913   2.437   0.284 -0.1050 -0.1094 -0.1493
27200W        W45404  12.619  10.307   0.409 -0.1416  0.0232 -0.1783
27201W        W45405   8.180  13.859  10.699  0.0671  0.0832  0.5484
27202W        W45406   5.540  17.452   2.679  0.1661  0.3112  0.2048
27203W        W45407  18.374  10.449  11.569 -0.0654 -0.4205  0.3000
27204W        W45408   0.074  16.009   3.549  0.0458  0.3949  0.1822
27205W        W45409   8.503   2.357  12.715 -0.1585  0.0437 -0.1168
27206W        W45410  15.557   7.140  13.818 -0.0821 -0.2330 -0.0772
27207W        W45411  17.086   8.928  11.130  0.2459 -0.3697  0.0588
27208W        W45412   5.285   5.212   4.503  0.0594  0.3804  0.1094
27209W        W45413   4.072   9.791   1.696 -0.0116 -0.0736  0.0105
27210W        W45414   2.393   5.102   1.750  0.0907  0.0637 -0.1098
27211W        W45415  12.004  14.590   1.287  0.2480  0.1053 -0.0130
27212W        W45416  12.780   4.947  13.484  0.2119 -0.1154 -0.1882
27213W        W45417  16.129  10.264   1.831 -0.0800  0.0368 -0.3256
27214W        W45418  12.516  11.466   2.776  0.0709  0.1217  0.1883
27215W        W45419   3.978  15.988   3.909  0.1814 -0.4184 -0.0696
27216W        W45420   6.122  17.972  13.236 -0.3331  0.2068  0.0056
27217W        W45421  12.199   0.436   1.940 -0.0180 -0.1431  0.1458
27218W        W45422  11.464   4.489  15.387 -0.2526 -0.2522 -0.1356
27219W        W45423  11.722   4.153   1.869 -0.1748 -0.1590 -0.2115
27220W        W45424  17.735   2.807  15.259 -0.0383 -0.1610 -0.0623
27221W        W45425  16.404   6.502   4.198 -0.0755  0.0999  0.1972
27222W        W45426  15.437  16.589   0.737  0.1086  0.2205 -0.2982
27223W        W45427   7.948   2.415   1.922 -0.1696 -0.1185  0.2867
27224W        W45428  16.759   4.671  12.043  0.0772  0.3461  0.2479
27225W        W45429   8.725   2.617   1.496 -0.0353  0.1885  0.0461
27226W        W45430   0.430   1.119   0.140 -0.0842  0.0177  0.0116
27227W        W45431  18.196   8.456  14.302 -0.0385 -0.0892  0.0422
27228W        W45432  13.580   0.958   4.397 -0.1575  0.1229 -0.0393
27229W        W45433  13.281   3.037   4.696 -0.0967 -0.2467 -0.1263
27230W        W45434   9.503   6.538  12.678  0.0533 -0.0759 -0.2328
27231W        W45435   8.885   5.804   2.647  0.1900  0.2437 -0.0855
27232W        W45436   8.411   3.359  11.772 -0.1178  0.1002  0.1096
27233W        W45437  15.465   7.226   3.004  0.0141 -0.2919 -0.0330
27234W        W45438  15.035   5.735   2.476  0.0058 -0.1053  0.4697
27235W        W45439  18.414   6.116  15.015  0.3749 -0.0746  0.2326
27236W        W45440   9.349  10.066   4.300 -0.0473 -0.0647 -0.1243
27237W        W45441   6.507  16.776   1.893 -0.0978  0.2001 -0.0750
27238W        W45442   2.447   4.085  14.347  0.2621  0.0966  0.0756
27239W        W45443   3.754  12.939  12.715  0.0715 -0.3626 -0.1421
27240W        W45444  14.176  15.651   2.220 -0.0642  0.0165 -0.0851
27241W        W45445   7.438  11.408   0.071 -0.0864 -0.0995 -0.1111
27242W        W45446   8.966   4.104  13.319  0.1058  0.1723  0.1994
27243W        W45447   4.809   7.118   2.271  0.0249 -0.1115 -0.2798
27244W        W45448   8.163  12.632   4.201 -0.1866  0.0720 -0.2525
27245W        W45449  14.090  17.030  14.513 -0.0125 -0.0038  0.2945
27246W        W45450   4.488   2.626  14.064  0.2478  0.1941 -0.0703
27247W        W45451   5.070   2.281  12.016  0.0104 -0.0873 -0.3373
27248W        W45452   1.261   6.490   3.220 -0.2174  0.0145 -0.0947
27249W        W45453   4.048   6.444   0.239 -0.1425 -0.3302 -0.2179
27250W        W45454  10.695   6.216  14.966  0.0142  0.0338 -0.2166
27251W        W45455   8.361   4.815   1.190  0.2941 -0.2071  0.0398
27252W        W45456  14.069   4.118   3.964  0.0247  0.1718 -0.0461
27253W        W45457  16.827   7.038  14.164 -0.0119  0.1462 -0.2903
27254W        W45458  12.022   2.878   4.454 -0.1969  0.1380  0.2014
27255W        W45459   7.928  16.501  11.181  0.1731  0.0124 -0.2775
27256W        W45460  16.782   7.017  13.614  0.1310 -0.0442 -0.0061
27257W        W45461   4.852  17.400  10.623  0.3901 -0.2331  0.2544
27258W        W45462   7.063   7.223  13.821  0.2479  0.2204  0.1236
27259W        W45463   5.215   9.162  11.159 -0.0893 -0.1346  0.1954
27260W        W45464   1.319  10.637  12.583  0.0957 -0.0999  0.2488
27261W        W45465  17.445   1.486   3.053 -0.3100 -0.2698  0.1304
27262W        W45466  15.004  12.169   0.468  0.0806 -0.1304  0.0351
27263W        W45467  13.783  14.639   2.189  0.2292 -0.1253  0.2946
27264W        W45468   7.432   5.826   0.402 -0.4807  0.2039 -0.2527
27265W        W45469   4.642   0.532   4.808  0.1533 -0.0201 -0.0310
27266W        W45470  18.054  11.247   3.189 -0.2884  0.0359 -0.0679
27267W        W45471   1.167  14.279  14.877 -0.2317  0.1057 -0.0489
27268W        W45472   4.261  13.413  14.373 -0.3171  0.1747  0.1197
27269W        W45473  18.160   9.975   3.719 -0.2023 -0.0639  0.0617
27270W        W45474  16.420  15.399  14.633  0.0253 -0.0847 -0.0183
27271W        W45475   7.309   4.464  12.091  0.0179  0.1178 -0.1108
27272W        W45476  12.708  17.466  11.574  0.0895  0.0031 -0.4213
27273W        W45477  17.147  11.295   1.360 -0.0137  0.2482 -0.0396
27274W        W45478  10.768   0.232  10.441  0.1175 -0.1345  0.2171
27275W        W45479  10.622   0.276   3.603  0.1104 -0.2071  0.0475
27276W        W45480  13.480  18.032   4.101 -0.0089 -0.0666  0.0503
27277W        W45481   1.363  18.199  14.426  0.0627 -0.1047  0.1750
27278W        W45482  17.907   5.808   3.895 -0.1499  0.1064  0.1416
27279W        W45483  17.980  12.616  13.171 -0.2033 -0.6140 -0.0072
27280W        W45484  16.686   0.180  11.825 -0.1321 -0.1450 -0.1143
27281W        W45485  18.464   3.616  12.985  0.5291  0.1126  0.0599
27282W        W45486   4.837  11.935  11.398 -0.0929 -0.0323 -0.1131
27283W        W45487   4.804   6.253   0.903 -0.1210  0.0814  0.2120
27284W        W45488  17.295  10.103   1.255  0.1631  0.0455  0.2158
27285W        W45489   6.805  12.636  12.468  0.0721  0.0097 -0.1389
27286W        W45490  10.802   4.168   1.452 -0.0024  0.1584 -0.4407
27287W        W45491   3.241  18.246   2.472  0.0450  0.4975 -0.1082
27288W        W45492   6.460   5.308  11.654 -0.2204  0.2642  0.1941
27289W        W45493  16.563  18.294  11.776  0.0556  0.1275 -0.0090
27290W        W45494   2.186  18.004   3.738  0.0850  0.1183 -0.1704
27291W        W45495  12.087   4.022   1.055 -0.1722  0.0097 -0.2173
27292W        W45496   3.558   9.011   0.415  0.2070  0.3030 -0.2161
27293W        W45497   6.209   4.698  11.001 -0.1710 -0.0841  0.1872
27294W        W45498   0.884  10.416   2.738 -0.1140 -0.0411 -0.0115
27295W        W45499   0.458  14.986   0.984  0.0940  0.2533  0.2047
27296W        W45500  16.237   9.491  10.413 -0.3778  0.0057 -0.0642
27297W        W45501   9.652   4.772   3.863 -0.2794  0.2220 -0.0280
27298W        W45502   5.371  14.720   3.025  0.0605  0.2173 -0.1144
27299W        W45503  17.652   8.528  13.789  0.0824 -0.2866 -0.1342
27300W        W45504   1.927  11.670   4.096 -0.2396  0.0150  0.0241
27301W        W45505  12.760  17.367  13.759  0.3396 -0.1656  0.0056
27302W        W45506   3.316  15.513  12.749 -0.2006  0.2341 -0.0026
27303W        W45507   5.774   3.376   1.451  0.0554  0.0581  0.0102
27304W        W45508   2.614   5.789   3.208  0.0872 -0.1360  0.2481
27305W        W45509  12.279   7.743   2.050 -0.0883 -0.1107 -0.4790
27306W        W45510  11.383   2.101   3.536  0.0380 -0.2184 -0.2198
27307W        W45511   8.613  11.465  10.121  0.1031  0.2037 -0.2109
27308W        W45512   4.318   5.649  10.178  0.0323  0.0920  0.2329
27309W        W45513   8.027   9.984   0.047  0.1193  0.4878 -0.1610
27310W        W45514   3.844   6.238   2.697  0.2259  0.1429 -0.2472
27311W        W45515   4.805   7.542   3.293 -0.1456  0.1040 -0.2296
27312W        W45516   4.811   5.089  11.364  0.1215  0.1376 -0.1204
27313W        W45517   6.404  11.989   1.804 -0.2846 -0.0545  0.2380
27314W        W45518   0.181  15.425   1.185  0.0863 -0.0533  0.0186
27315W        W45519  10.734  14.975   1.685 -0.0467 -0.2145  0.0356
27316W        W45520   4.285  10.752  13.489  0.0667 -0.1111  0.0447
27317W        W45521   1.658   6.346  10.783 -0.0044 -0.0115  0.0957
27318W        W45522  12.118  17.597  14.513 -0.0274 -0.1778  0.1384
27319W        W45523  14.581   4.991  13.499  0.1567 -0.1565 -0.0816
27320W        W45524  16.268   9.636   0.289 -0.0250 -0.2568  0.1433
27321W        W45525   0.695  14.575  14.973 -0.1735 -0.0080  0.0660
27322W        W45526  10.381  17.924   0.826  0.5637  0.2707 -0.1695
27323W        W45527  10.804   5.456   3.669 -0.4221 -0.2682  0.0928
27324W        W45528   8.604   0.094  11.080 -0.6468 -0.0055  0.1698
27325W        W45529   3.108   9.797   2.149 -0.0902  0.0436  0.2764
27326W        W45530   1.789   0.529   0.420  0.2850 -0.4742  0.0202
27327W        W45531  12.130  17.023  12.097 -0.1843 -0.0967 -0.1804
27328W        W45532  13.095  14.653   0.582  0.0609 -0.1648  0.1486
27329W        W45533   5.118  12.184  14.903  0.1319  0.0018  0.1904
27330W        W45534  15.133   6.789  11.651 -0.1571  0.3702  0.1003
27331W        W45535  17.057   2.809  11.270  0.2600 -0.0376 -0.0950
27332W        W45536   9.751  15.362  11.886 -0.2493  0.3174 -0.0607
27333W        W45537  10.817  10.939   2.354 -0.2354  0.0660 -0.0970
27334W        W45538  12.270  12.486   4.947  0.0342 -0.1137 -0.0940
27335W        W45539   6.303   9.485   3.049 -0.3309  0.0489 -0.2900
27336W        W45540   2.298  10.363   2.908  0.2783 -0.3514  0.1726
27337W        W45541   2.899   0.485  11.387 -0.4743 -0.0733  0.0071
27338W        W45542  15.035   9.512  13.710 -0.2202 -0.0902 -0.1363
27339W        W45543   8.976   4.655   3.183 -0.2106  0.0345 -0.1768
27340W        W45544  13.945   1.508   0.688  0.1679  0.1719 -0.0164
27341W        W45545  15.457   1.852   0.240  0.0446 -0.3021  0.0135
27342W        W45546  18.406   4.530   3.406  0.0198 -0.1034  0.1143
27343W        W45547   0.174   6.352  10.963  0.2213  0.1300  0.0146
27344W        W45548   5.456   5.072  11.728  0.0738 -0.1873 -0.2350
27345W        W45549   9.917   5.907   4.667 -0.1584  0.2754  0.1825
27346W        W45550  12.679  16.491  11.755  0.0502 -0.0815  0.1424
27347W        W45551   5.336  10.852   3.132 -0.1689  0.2540  0.2749
27348W        W45552   1.516   1.534  14.712 -0.2245 -0.0667  0.3503
27349W        W45553  16.922   8.463   4.322 -0.0319  0.0238  0.2082
27350W        W45554   5.494   7.180  14.703  0.1484  0.1641 -0.0333
27351W        W45555  11.378  13.191   3.310  0.2636  0.2715  0.1286
27352W        W45556   9.058   4.979   1.547  0.0371 -0.0835 -0.1840
27353W        W45557   6.827   7.076  12.879  0.0227 -0.2543 -0.2077
27354W        W45558   2.723   7.374   4.023  0.1677 -0.0123  0.1253
27355W        W45559   8.256  16.062   0.694  0.2909 -0.1634 -0.1541
27356W        W45560   8.269  17.214  13.045 -0.1005  0.2943 -0.1987
27357W        W45561  14.025   8.697   0.789 -0.0899 -0.2397  0.3025
27358W        W45562   7.232  14.455   4.539  0.0938  0.2989 -0.2443
27359W        W45563  11.264   9.170   3.716  0.0085 -0.2628  0.1511
27360W        W45564  16.420  17.068  13.291  0.0938  0.4123  0.0277
27361W        W45565  14.736   8.199   4.162 -0.3014  0.0502  0.0529
27362W        W45566   4.523  12.872  12.172  0.1036 -0.0895  0.1033
27363W        W45567  17.559   6.310  15.167 -0.0094  0.1964  0.3445
27364W        W45568  16.994   7.474   1.266  0.0618  0.0258  0.1430
27365W        W45569   6.674  17.907   2.286 -0.0873 -0.0939  0.1408
27366W        W45570   6.762  13.139  12.483 -0.1615 -0.0216  0.1465
27367W        W45571   7.233  15.348   1.448  0.0153 -0.0798 -0.1529
27368W        W45572  10.153  15.229  11.352  0.1784  0.1130  0.0066
27369W        W45573   6.112  17.549  11.683  0.1787 -0.2510  0.2347
27370W        W45574   8.814   6.535  15.074  0.0952 -0.0962  0.2165
27371W        W45575   1.119   6.176  12.478  0.1985  0.0441 -0.2779
27372W        W45576   8.272   8.353  13.159 -0.0859  0.0263  0.5165
27373W        W45577  13.353   0.518   2.565  0.4148  0.0552 -0.3934
27374W        W45578   4.509  14.147  12.614  0.0030  0.0407  0.0778
27375W        W45579  10.471   3.201   3.685  0.1784  0.1645  0.0407
27376W        W45580   0.762   1.216   2.927 -0.0250  0.0825 -0.0381
27377W        W45581   1.426   7.676   1.788 -0.0166 -0.3228 -0.3573
27378W        W45582  10.148  10.364  14.351  0.2095  0.2658 -0.0185
27379W        W45583   6.186  17.295  13.696  0.0533 -0.0906 -0.2455
27380W        W45584  18.197   7.024  12.323  0.1045  0.1642  0.1374
27381W        W45585   7.262   9.893   3.036 -0.1699 -0.0635  0.0950
27382W        W45586  14.316   6.310  14.722  0.0183  0.3406  0.1636
27383W        W45587  11.390  12.076  11.240  0.1939 -0.2572  0.2201
27384W        W45588  17.687  12.454   3.636  0.1573 -0.0054  0.0357
27385W        W45589   8.363  15.783   2.166 -0.0099  0.0675 -0.1106
27386W        W45590   9.454  17.071  13.547  0.2483  0.1135  0.0200
27387W        W45591   9.064  16.470  12.109 -0.0695 -0.2798 -0.2037
27388W        W45592   0.863  11.458  14.874  0.0614 -0.1469  0.3437
27389W        W45593   7.533  16.898   0.977  0.0229  0.0957 -0.0981
27390W        W45594   8.781   0.128  12.022 -0.0604 -0.0159  0.0325
27391W        W45595  14.652  16.071  14.797 -0.1820 -0.4921 -0.1833
27392W        W45596   0.172  10.052  11.547  0.0810 -0.1206  0.0335
27393W        W45597  13.900   4.586   3.838 -0.0546  0.1008  0.0739
27394W        W45598   7.994   6.480   4.401  0.0997 -0.0003 -0.2408
27395W        W45599   4.388  14.140  11.192  0.1942 -0.2312  0.1185
27396W        W45600   2.985  13.660   2.375  0.2701  0.0159  0.5124
27397W        W45601   9.540   2.770   3.601  0.3188  0.0414  0.1683
27398W        W45602  18.462  12.156   3.304  0.0237 -0.2989 -0.1600
27399W        W45603   9.645  16.106  14.876  0.0431  0.3610 -0.0157
27400W        W45604  14.852   9.309   4.195  0.0864 -0.3583 -0.2120
27401W        W45605   0.100   0.434   1.160 -0.0642 -0.3364  0.0592
27402W        W45606   0.292   7.504  15.072  0.1448  0.1735  0.1081
27403W        W45607   5.002   7.002  14.563 -0.0449  0.0299 -0.0739
27404W        W45608  12.947  12.366   1.219  0.0349  0.1147  0.0036
27405W        W45609   7.264  11.879  10.623 -0.0072  0.1423 -0.2198
27406W        W45610  16.876  16.138  10.607  0.0148  0.1645 -0.2334
27407W        W45611  10.529   4.538  11.718 -0.0672 -0.0145  0.1359
27408W        W45612   7.371   0.728  13.828 -0.1606  0.0103  0.0810
27409W        W45613   8.539   9.633  12.848 -0.3470 -0.0808 -0.2476
27410W        W45614   5.503   6.828  13.696 -0.0198  0.3511  0.3253
27411W        W45615   0.321   8.511  11.073 -0.3861  0.0731  0.2893
27412W        W45616   1.699  14.706   1.457 -0.2286  0.0666 -0.2238
27413W        W45617   7.843  15.960   0.923  0.0977  0.2641  0.5498
27414W        W45618  12.250   0.460  12.543 -0.2831 -0.0120 -0.0492
27415W        W45619   8.407   0.543   2.090 -0.2107  0.0906  0.1939
27416W        W45620  10.491  10.553  14.035 -0.1002  0.1140  0.2319
27417W        W45621  17.441  10.211   2.815 -0.0330  0.1178  0.1341
27418W        W45622   0.772   4.510   0.156  0.0347  0.2526  0.2298
27419W        W45623  12.678  10.884  12.202  0.2468 -0.0492  0.0045
27420W        W45624   4.583   9.381  13.876 -0.1471  0.2349  0.0250
27421W        W45625  16.630   0.040  11.204 -0.0010 -0.1615  0.0109
27422W        W45626   8.347  10.390   0.187  0.3118  0.4144  0.0843
27423W        W45627  10.931   5.311  11.676  0.1722 -0.0674  0.0043
27424W        W45628  18.041   6.848  15.378  0.3560  0.2280  0.2514
27425W        W45629   5.518  16.233  12.812  0.1988  0.0828  0.3083
27426W        W45630   4.135   6.007   3.584 -0.2645  0.1705  0.1882
27427W        W45631  16.323   5.850   4.041  0.4105 -0.0066 -0.2113
27428W        W45632  18.552  10.045  11.028  0.0966 -0.1256  0.0528
27429W        W45633   5.868  17.878   5.312 -0.0096  0.1597  0.0022
27430W        W45634  18.464  12.371  12.404 -0.2787  0.0493 -0.2178
27431W        W45635  11.475  16.779   0.236 -0.0510 -0.1790  0.2056
27432W        W45636  12.473  17.075  12.482 -0.1317  0.2205  0.2061
27433W        W45637  13.645  13.966   3.315  0.1462 -0.0098  0.0488
27434W        W45638  15.135   3.491   4.531 -0.0528  0.0453 -0.1399
27435W        W45639   6.910   9.510   5.407 -0.1816  0.0425  0.1174
27436W        W45640   5.853  14.831   3.103 -0.1865 -0.1220  0.0025
27437W        W45641  15.396  12.861  14.904 -0.0963  0.1456 -0.1177
27438W        W45642   1.143   6.331  10.735 -0.0092  0.0094 -0.0389
27439W        W45643  11.665  14.687   5.228  0.1056  0.0650 -0.0491
27440W        W45644  11.918  16.770   4.862 -0.1020  0.0011 -0.1183
27441W        W45645   4.571   2.548  15.029 -0.1948  0.0842  0.3713
27442W        W45646  10.144   6.877  13.690  0.0687 -0.0984 -0.0964
27443W        W45647   6.104  11.650   2.597 -0.5279 -0.1755  0.1627
27444W        W45648  12.087  15.986   1.035 -0.1274 -0.0373  0.4558
27445W        W45649  13.581   2.696  13.728  0.0238 -0.0199 -0.1396
27446W        W45650  11.446   7.214  14.611 -0.1507 -0.0386  0.0995
27447W        W45651   1.743   8.100   3.502 -0.1380  0.2782  0.1368
27448W        W45652  10.319   9.624  11.744 -0.4962  0.0496  0.1066
27449W        W45653   2.801   3.634  11.583  0.0154 -0.0314  0.2494
27450W        W45654   2.886   3.684  11.110 -0.1040 -0.1265  0.1998
27451W        W45655   0.957   8.463   2.580  0.5475 -0.1434  0.3601
27452W        W45656  18.096  15.274   2.315  0.0601  0.1045 -0.0891
27453W        W45657   7.861   2.409   0.790 -0.3960  0.2597  0.3601
27454W        W45658  11.012  15.277  11.894  0.1038  0.2704 -0.0523
27455W        W45659   0.406   0.936  11.991  0.0237 -0.2096 -0.0100
27456W        W45660   3.837   1.817   0.601  0.1887 -0.0536 -0.3814
27457W        W45661   7.237   3.429   4.453 -0.0554 -0.2980  0.1069
27458W        W45662   2.761  16.121  14.969  0.0820  0.1178 -0.1324
27459W        W45663   1.191   5.130   0.796  0.3315 -0.1082 -0.0765
27460W        W45664   6.934  14.104  15.293  0.1456  0.1878 -0.0768
27461W        W45665  16.182  13.277   4.016  0.1246 -0.0790  0.3677
27462W        W45666   2.203  12.670  13.816  0.2447 -0.0660  0.0127
27463W        W45667  11.032  18.370  15.256 -0.0513  0.1770 -0.0013
27464W        W45668  10.761   1.268  15.206 -0.0047 -0.2567 -0.1028
27465W        W45669   9.637  16.522  15.178  0.0979 -0.1400 -0.2400
27466W        W45670   4.594  17.663   4.073 -0.1332  0.0149  0.2430
27467W        W45671  10.694   5.216   4.537 -0.1365  0.3739 -0.1502
27468W        W45672   4.484  13.926   4.261 -0.2188  0.1177  0.0040
27469W        W45673  14.953   6.151   2.768  0.0590 -0.0143  0.0466
27470W        W45674   5.166  12.812   0.689 -0.1541  0.0458 -0.2068
27471W        W45675   1.809  17.894   2.497  0.1273  0.0986  0.2740
27472W        W45676  14.482  12.829   4.693  0.2269 -0.1272 -0.3490
27473W        W45677   3.503  17.801   4.514  0.1425 -0.0357  0.1877
27474W        W45678  18.318   6.205   0.501  0.2607  0.2940  0.0575
27475W        W45679   0.586   2.293   9.920  0.0909  0.0228 -0.0807
27476W        W45680  16.150  13.948  12.799 -0.1885  0.2748 -0.0389
27477W        W45681   3.040  13.935  14.877 -0.1686  0.2942 -0.1792
27478W        W45682  10.813  13.873  13.620  0.0338  0.1393  0.0403
27479W        W45683   0.609   9.820  11.424 -0.0863 -0.2474  0.2721
27480W        W45684  10.846   2.974  10.199  0.2791  0.0601  0.3861
27481W        W45685   2.716   6.894   1.008  0.0939  0.1715  0.3626
27482W        W45686   3.384   8.835   4.164  0.4126 -0.2706 -0.2303
27483W        W45687  11.692  11.814   2.870  0.2335  0.1706  0.2637
27484W        W45688   0.745   1.786  10.907  0.2730 -0.0879 -0.0907
27485W        W45689  13.200   1.164   3.474 -0.0454 -0.1448  0.1693
27486W        W45690   7.080  10.020   2.130  0.3328  0.1780 -0.0871
27487W        W45691   0.651  14.435  14.430  0.3990 -0.0902 -0.1468
27488W        W45692  15.186  10.777   1.953 -0.3838  0.1563 -0.0376
27489W        W45693  10.520  10.229   2.988  0.0266 -0.3577  0.0014
27490W        W45694   5.115  10.133   0.095 -0.1553  0.0003 -0.0407
27491W        W45695   9.901   6.629  14.715  0.0063 -0.1522 -0.1071
27492W        W45696  13.245  15.412   4.355  0.1131  0.0144 -0.0771
27493W        W45697   3.200   0.356   4.570  0.0823  0.3544  0.3795
27494W        W45698   9.404  15.197  13.819  0.1233  0.1519  0.2166
27495W        W45699  13.714  17.445   0.448 -0.1356 -0.5020 -0.2437
27496W        W45700   2.672   0.814   0.134  0.0763 -0.2865 -0.1394
27497W        W45701  17.264   7.340   0.818 -0.1516  0.2377  0.0380
27498W        W45702  14.605  12.306  14.043  0.1201  0.1723 -0.1174
27499W        W45703   2.579  16.455   4.015  0.1098  0.1702  0.0424
27500W        W45704   9.402   2.813  13.749 -0.2208  0.0376 -0.0995
27501W        W45705  14.759  18.276   4.878 -0.0530  0.1814  0.1082
27502W        W45706   6.989  18.473  12.989 -0.1370 -0.0166 -0.0558
27503W        W45707   0.640  13.367   3.207 -0.1340 -0.1512  0.2881
27504W        W45708  13.012   9.705   2.619  0.0083 -0.1369  0.0153
27505W        W45709  14.039   4.532   4.322 -0.0438 -0.0330  0.1320
27506W        W45710  10.325  11.122  12.507 -0.2742 -0.2059  0.1684
27507W        W45711   2.523   8.170   0.250 -0.0654 -0.1968 -0.0444
27508W        W45712   4.986   2.116  11.253  0.1089 -0.2625 -0.1040
27509W        W45713   9.961   7.975   3.442  0.1973  0.0347 -0.2250
27510W        W45714   2.781   9.462   3.697  0.1927 -0.1640 -0.1517
27511W        W45715  17.479  15.507  13.103 -0.2159 -0.0724  0.3172
27512W        W45716  16.492  10.773  14.344  0.1135  0.4371  0.1411
27513W        W45717  12.480   8.903  15.427 -0.0890 -0.3414  0.0369
27514W        W45718   8.155  12.926  12.830  0.0864 -0.3371  0.1294
27515W        W45719   8.376  16.282   1.134  0.0947 -0.2106  0.0866
27516W        W45720   2.156   3.982  13.802 -0.0044  0.3403 -0.2067
27517W        W45721  17.166   9.431   0.004  0.0991  0.1017 -0.1228
27518W        W45722   5.262  11.316  14.836  0.2993  0.2221  0.1677
27519W        W45723   4.635   8.623   4.241 -0.0704 -0.1146  0.4630
27520W        W45724   2.389  16.876  11.400 -0.0804  0.1744 -0.0402
27521W        W45725   4.551  10.453   4.061  0.1936 -0.1799  0.2376
27522W        W45726  14.247   1.684  13.063  0.1220 -0.1583 -0.2009
27523W        W45727  11.749  14.098  13.182  0.2578 -0.2090 -0.1400
27524W        W45728  16.487   8.266  14.820 -0.1172 -0.0913  0.2867
27525W        W45729  18.520   6.969  15.325  0.0611 -0.1974 -0.1816
27526W        W45730  10.391  18.401  14.538  0.1344 -0.1814 -0.3191
27527W        W45731   3.170   9.692   4.529 -0.0163  0.0150  0.0280
27528W        W45732   7.886  15.385  13.093  0.2659  0.2104 -0.0535
27529W        W45733  16.826   8.765   2.772  0.0934 -0.2506 -0.1545
27530W        W45734  15.281   4.674  14.060  0.1558  0.1548 -0.1322
27531W        W45735   9.173  11.293   1.570  0.2629  0.0178  0.0896
27532W        W45736  10.277  10.131  12.906  0.1680  0.1701  0.0003
27533W        W45737  18.600   2.917   0.166  0.1620  0.1441 -0.0104
27534W        W45738  14.476  17.412  14.409 -0.0667  0.1417  0.1605
27535W        W45739   2.371   1.912  11.787  0.0559  0.1071  0.2095
27536W        W45740   8.345  11.478  13.882  0.1232 -0.0230 -0.0567
27537W        W45741  13.146   8.136   4.757 -0.1196  0.0650  0.0647
27538W        W45742   7.167  14.874   1.276 -0.3055 -0.3429 -0.0316
27539W        W45743   1.040   2.889   4.497 -0.1175 -0.1194  0.0707
27540W        W45744   1.829   3.215  14.350 -0.0866  0.1101  0.1193
27541W        W45745  10.180  11.513   4.527  0.2315 -0.1132 -0.0618
27542W        W45746   5.101   8.893  13.166 -0.0302  0.1433 -0.3040
27543W        W45747   0.531  14.745   5.065 -0.0029 -0.5425  0.2038
27544W        W45748   5.886  13.954  14.139  0.0727 -0.0772  0.1899
27545W        W45749   2.653  12.944   1.009  0.1149 -0.2045 -0.1086
27546W        W45750   9.557   7.672  11.346  0.0425  0.1150 -0.0308
27547W        W45751   7.873  16.616   0.311 -0.1000  0.1010 -0.2550
27548W        W45752  12.023   4.982  14.397 -0.0320  0.2131 -0.3615
27549W        W45753   9.023   0.637  11.364 -0.1487  0.0740 -0.2587
27550W        W45754   8.449   2.537   0.566 -0.1354 -0.0702 -0.2671
27551W        W45755  13.689   5.851   1.557  0.0238  0.3805 -0.1565
27552W        W45756  12.646  16.492  14.285 -0.0027  0.2557 -0.0474
27553W        W45757   2.272   9.844  12.292  0.0522  0.2480 -0.0192
27554W        W45758   3.746  18.383   0.668  0.2275  0.2485  0.0573
27555W        W45759   6.680   5.288   0.377 -0.0844 -0.0026  0.0687
27556W        W45760  11.529   0.878   4.450 -0.2778  0.1093 -0.0210
27557W        W45761  13.762  15.000   4.713  0.2755  0.0248 -0.0427
27558W        W45762  16.317  15.569  12.104 -0.1201  0.0411  0.0625
27559W        W45763  10.017   0.433   2.282 -0.1633 -0.0759  0.0429
27560W        W45764   0.131  17.100  14.493 -0.1920  0.2385  0.2885
27561W        W45765  13.614   8.697   1.051  0.1371  0.1835 -0.0002
27562W        W45766   4.226  11.399  10.928  0.0394 -0.0836  0.0284
27563W        W45767  15.690   1.058   4.081 -0.1306 -0.1017  0.5047
27564W        W45768   7.198   6.768  13.998 -0.3253 -0.0233  0.2177
27565W        W45769  14.432  14.925  13.484  0.0298 -0.0041 -0.0454
27566W        W45770  13.419   2.298   0.665 -0.0105 -0.0295 -0.1792
27567W        W45771   2.723   7.564  13.482  0.0143 -0.2498 -0.0216
27568W        W45772   7.411  15.305  14.691  0.1652 -0.1361  0.1933
27569W        W45773  17.827  17.630  14.667  0.1146 -0.2054  0.0047
27570W        W45774  10.738   7.782   3.526 -0.0697  0.0555  0.1379
27571W        W45775   7.385  10.229   0.851  0.0872  0.1225 -0.2234
27572W        W45776   2.910   4.004  14.526  0.2198  0.3443 -0.2765
27573W        W45777   2.758   6.281  15.399 -0.1886  0.1149  0.0703
27574W        W45778   0.753  16.070   2.778 -0.2397  0.0445  0.0527
27575W        W45779  17.945  13.085  10.916 -0.0397  0.0036  0.1405
27576W        W45780   2.308   3.624   4.315  0.0688  0.1958 -0.0517
27577W        W45781   9.950   6.670   1.528 -0.2576  0.1674 -0.0666
27578W        W45782   6.688  16.898   1.435  0.2391  0.1415  0.2014
27579W        W45783  13.876  11.644  14.025  0.2787  0.2037  0.0443
27580W        W45784   6.282   4.322  13.681 -0.1771  0.1120 -0.3243
27581W        W45785  17.694  17.542   1.269 -0.0938 -0.4109  0.1171
27582W        W45786  14.963   3.196   1.199 -0.1825 -0.1268  0.2141
27583W        W45787   5.867   9.356   9.634 -0.3374 -0.0044 -0.0975
27584W        W45788  13.328  10.584  14.159 -0.0699  0.0562  0.0343
27585W        W45789  13.056   6.229   3.319 -0.0448 -0.0898  0.2193
27586W        W45790   9.801  14.605  13.024  0.1125  0.1077 -0.2007
27587W        W45791   4.237   0.509  15.226 -0.0568  0.1180 -0.0228
27588W        W45792  11.990   4.301   4.960  0.0120 -0.0923  0.0663
27589W        W45793  16.328  17.415  15.152  0.0179 -0.1182  0.0495
27590W        W45794   8.532  10.673  12.142 -0.2550  0.2890  0.0045
27591W        W45795   4.015   2.121  11.711  0.0237  0.0302  0.2541
27592W        W45796  11.090   1.995   1.245  0.0821 -0.0749 -0.1703
27593W        W45797   8.215   1.877  12.689  0.1682  0.0732 -0.3005
27594W        W45798  15.893  13.770   1.637  0.2437  0.1748  0.1707
27595W        W45799  10.071   3.691  12.920  0.1869 -0.0788  0.2483
27596W        W45800  16.645   8.403   2.089  0.0035  0.1205 -0.1757
27597W        W45801   3.113  13.650   3.830  0.1759 -0.0091  0.0212
27598W        W45802  15.899   8.836  15.308 -0.0682 -0.3499  0.1630
27599W        W45803  14.464  11.910   2.906 -0.1589  0.0160  0.1157
27600W        W45804  11.949   7.859   3.074 -0.2244 -0.0958 -0.1411
27601W        W45805  13.992  16.052  11.483  0.1834  0.0563  0.0125
27602W        W45806   9.018  18.355  11.229 -0.0614  0.0222  0.1051
27603W        W45807   5.065  12.810  12.313 -0.0036  0.0964 -0.2061
27604W        W45808   0.480  11.919  13.640 -0.0511 -0.2975  0.0939
27605W        W45809  17.077  13.765   0.744  0.1270 -0.2323  0.1222
27606W        W45810   4.190   1.657  11.627  0.0169  0.0635  0.3958
27607W        W45811   8.697   7.959  11.898 -0.1012  0.0685 -0.0074
27608W        W45812   7.218   0.816   2.418  0.1113 -0.2109 -0.0917
27609W        W45813   4.093  18.325   2.483 -0.2017 -0.1967  0.0518
27610W        W45814   7.791  11.359   1.752 -0.2851 -0.1492  0.0941
27611W        W45815   1.983   6.389   2.162 -0.0424 -0.4363 -0.1272
27612W        W45816  14.589   5.951  14.480 -0.1055  0.5277  0.2030
27613W        W45817  12.908  13.785  13.119  0.1003  0.1308 -0.0226
27614W        W45818  15.269  14.347  15.145 -0.1581 -0.1413  0.1226
27615W        W45819  11.688   2.930   2.648  0.2356 -0.2850  0.0437
27616W        W45820   5.057   1.175   2.602 -0.1513 -0.4122 -0.0085
27617W        W45821   1.665   9.793  14.764 -0.1640  0.1620 -0.2141
27618W        W45822   9.993  15.220   0.503  0.0747  0.0717 -0.2327
27619W        W45823  18.229  13.469  13.983  0.1702 -0.1260  0.1221
27620W        W45824  14.280  17.820   2.038  0.1354 -0.1266  0.1093
27621W        W45825   4.697  17.468   0.329  0.3556  0.0930  0.2075
27622W        W45826   0.464  15.881  15.030  0.0134 -0.2596 -0.0398
27623W        W45827   1.167   8.988   1.805  0.1423  0.0642  0.1989
27624W        W45828  16.627  13.275   4.283 -0.1020  0.1486 -0.1609
27625W        W45829   7.311  10.990  12.551 -0.0654 -0.1351 -0.0807
27626W        W45830   1.696  10.864   1.104 -0.1291 -0.0876 -0.1044
27627W        W45831   0.983  11.588  13.701 -0.0415 -0.2775  0.0311
27628W        W45832   8.708   3.383   3.803 -0.2295 -0.1162  0.4516
27629W        W45833  12.185  17.206   3.332  0.0690  0.1870  0.1174
27630W        W45834   2.481   3.671  14.675  0.2173 -0.0737  0.0164
27631W        W45835  16.434   6.249   3.687 -0.0090  0.2044 -0.1596
27632W        W45836   1.138   8.166  14.401  0.1216 -0.1440  0.1598
27633W        W45837   8.976   2.318  12.390 -0.2473  0.0844  0.0078
27634W        W45838   7.142  15.635  12.549 -0.3869 -0.2193 -0.3122
27635W        W45839  12.077   8.743  11.823 -0.1809 -0.3203  0.1391
27636W        W45840  13.189   5.353   0.717 -0.1050 -0.0008  0.0517
27637W        W45841  11.932   5.423  15.271 -0.2044  0.0149 -0.0294
27638W        W45842   7.930  12.197  13.097 -0.3302 -0.0532 -0.2513
27639W        W45843  13.497  13.085   4.628  0.0731  0.1531 -0.1174
27640W        W45844   0.890   6.650   2.235 -0.1965  0.0979 -0.3615
27641W        W45845   3.754  10.343   1.915  0.1891 -0.0960 -0.0572
27642W        W45846  12.731   6.305   1.470  0.0433 -0.1954  0.1239
27643W        W45847  13.567   5.824  13.031 -0.0162  0.2135  0.2375
27644W        W45848   6.796   5.654  11.207 -0.4564 -0.2272 -0.1186
27645W        W45849  13.295  10.296  12.621 -0.1480 -0.0555  0.1353
27646W        W45850  15.856   6.223  15.163  0.0319  0.3297  0.0673
27647W        W45851   3.930  11.511  15.064  0.0595 -0.3809 -0.0098
27648W        W45852   6.612   5.124   3.544 -0.2191  0.0969 -0.1030
27649W        W45853  12.669   2.165  15.232 -0.0899 -0.1574 -0.2932
27650W        W45854   5.631  15.750  12.738 -0.4563  0.0884  0.0235
27651W        W45855   9.553   6.141   2.796  0.0497  0.1213  0.1825
27652W        W45856   1.129  17.139   3.896  0.1378 -0.0120 -0.2246
27653W        W45857  10.831  18.512   2.063 -0.1512  0.0072 -0.0332
27654W        W45858   5.069  14.186   2.414 -0.2005 -0.1754 -0.2821
27655W        W45859   6.138   6.006   4.143  0.0207  0.0692 -0.2712
27656W        W45860  13.502  10.341  13.667 -0.1878 -0.3224 -0.1251
27657W        W45861  10.606  17.957   2.863  0.1353 -0.2493  0.1545
27658W        W45862   4.373   6.354  11.199  0.0933  0.0595 -0.0597
27659W        W45863   6.898  10.591   3.404  0.2183 -0.0702 -0.1299
27660W        W45864  12.028  18.618   4.198 -0.0412 -0.1204  0.1294
27661W        W45865   8.813  14.180  13.937 -0.0155  0.0467 -0.2450
27662W        W45866  13.919   5.531   1.958 -0.1637 -0.1133 -0.1590
27663W        W45867  10.291  13.376   2.009  0.0799  0.0678  0.1865
27664W        W45868   3.723  12.807   2.442  0.0005  0.1975  0.1150
27665W        W45869   8.231  18.221  15.343 -0.1586  0.0503  0.1828
27666W        W45870  11.013   0.891   1.947 -0.1331  0.0583  0.0440
27667W        W45871  10.130  16.693   0.592  0.0331  0.1016  0.0279
27668W        W45872   3.505  17.593  12.770  0.0249 -0.1064 -0.1998
27669W        W45873   8.291   9.747  10.758  0.2358  0.1063 -0.2087
27670W        W45874   4.743  13.755   1.204 -0.1928  0.3065 -0.0701
27671W        W45875  10.106  15.083  12.708 -0.0829  0.0304 -0.2513
27672W        W45876  11.481  15.954   3.944 -0.3387 -0.2107 -0.2403
27673W        W45877  15.530  15.730  15.278  0.1475  0.3155 -0.0476
27674W        W45878  16.262   7.000   0.772 -0.1947 -0.1581 -0.1836
27675W        W45879  12.352  16.405   4.662 -0.1144 -0.1854 -0.0868
27676W        W45880   6.982  17.848   1.301 -0.0930 -0.0095  0.3224
27677W        W45881  14.219   4.289  12.688 -0.0731 -0.2347 -0.1594
27678W        W45882  15.282   7.461  14.066 -0.1210  0.1131  0.0050
27679W        W45883  17.381   8.185   3.407 -0.0519  0.0128 -0.0452
27680W        W45884  18.207  10.326  10.697  0.3270 -0.0651 -0.1066
27681W        W45885  11.033  16.589  11.961 -0.2193  0.2477  0.3788
27682W        W45886  18.580  12.900   2.819  0.1537 -0.1348  0.2086
27683W        W45887  13.544   9.530   1.639 -0.2749 -0.1085  0.2240
27684W        W45888  15.758   1.456  12.874  0.3209 -0.1158 -0.2321
27685W        W45889   2.730  15.752   2.428  0.0227  0.4782  0.1342
27686W        W45890  16.198  12.148  11.866  0.0712 -0.2624  0.2618
27687W        W45891   6.617   1.246   3.091  0.1872  0.2154 -0.2656
27688W        W45892   3.000   5.047   3.357  0.1164  0.3294  0.1234
27689W        W45893   0.824   0.970  12.256  0.0529 -0.2007 -0.0438
27690W        W45894   2.841   1.198  14.074  0.2707 -0.2892 -0.0997
27691W        W45895   0.058  12.273  13.851 -0.0505  0.1528  0.0853
27692W        W45896   6.128   1.531  12.471 -0.5027  0.0429 -0.0300
27693W        W45897   0.180   7.260   2.274 -0.1435  0.1796 -0.2154
27694W        W45898   2.407   2.335   4.546  0.1377  0.0749 -0.1009
27695W        W45899  18.309   0.145  13.359 -0.2491  0.0129 -0.0919
27696W        W45900   4.622   6.226  11.624  0.1827  0.0082 -0.2531
27697W        W45901   2.745   3.989   2.290  0.0136 -0.0361  0.2942
27698W        W45902   6.902   3.826   2.512  0.1418 -0.1791 -0.0373
27699W        W45903  18.370   8.358   1.568  0.1636 -0.2257 -0.0699
27700W        W45904  16.032   6.098   0.769  0.1720 -0.0893 -0.1930
27701W        W45905  15.106   9.613  12.757  0.0916 -0.1087  0.1127
27702W        W45906   3.967  14.774   9.888 -0.1419 -0.1421  0.1607
27703W        W45907   9.290  17.424  13.129 -0.2163  0.0397 -0.2539
27704W        W45908   8.546  17.076  13.876  0.1745  0.1694 -0.0136
27705W        W45909  17.225   2.036   4.259  0.1246 -0.2280 -0.0965
27706W        W45910   2.574  10.223   2.544  0.1984  0.1614  0.3637
27707W        W45911  17.703  13.328   3.486  0.0551  0.0082  0.1827
27708W        W45912  17.866  18.467   2.070  0.1216 -0.0213 -0.0889
27709W        W45913  15.603   2.883   3.330  0.2283 -0.0615 -0.0445
27710W        W45914   7.748  16.285  12.087 -0.0957  0.2254 -0.2083
27711W        W45915   6.431  10.351   4.309 -0.1656 -0.0953 -0.1998
27712W        W45916  13.281  13.383  11.963  0.2382 -0.0564 -0.0807
27713W        W45917   0.792  15.346  12.908 -0.0024 -0.4328 -0.1118
27714W        W45918  17.232   8.442   1.087  0.0361  0.0994  0.0408
27715W        W45919  18.486   3.158   1.752 -0.3406 -0.2902  0.1664
27716W        W45920   8.068   4.872  12.890  0.1953  0.1386 -0.0520
27717W        W45921   3.518   9.623   2.538 -0.1026  0.1209  0.1770
27718W        W45922  15.131   7.555  11.554 -0.0245  0.0218  0.0633
27719W        W45923   3.215  11.931  13.609  0.0727 -0.3158 -0.1323
27720W        W45924  12.781  11.888  11.654 -0.0664 -0.0727  0.1488
27721W        W45925   2.673  12.384   0.028  0.1270 -0.0605  0.2608
27722W        W45926   2.241   9.787  14.636 -0.1864 -0.0785  0.2277
27723W        W45927   3.135  15.560  12.218  0.0115  0.2162 -0.4134
27724W        W45928   9.913  14.718  14.632 -0.2661  0.2788  0.1209
27725W        W45929  11.681  15.459   0.433 -0.2190  0.0676  0.3262
27726W        W45930   0.257  18.292   5.587  0.3647  0.4007  0.3185
27727W        W45931  10.987   5.471   2.702 -0.0874  0.2072  0.0269
27728W        W45932  17.290  13.684   4.963 -0.0128  0.0148 -0.3386
27729W        W45933  10.454  11.277   3.073 -0.0636 -0.1634  0.1666
27730W        W45934   9.106  18.006   4.730 -0.1203 -0.2925  0.3269
27731W        W45935  16.521   1.031   2.746  0.0958 -0.0895 -0.3245
27732W        W45936   8.004  14.613  13.530  0.2473 -0.0613 -0.1009
27733W        W45937   8.164   8.366   1.354 -0.1947 -0.0364 -0.1459
27734W        W45938   7.585  16.797   5.663 -0.2288 -0.1649 -0.1119
27735W        W45939  13.839  15.975   0.243 -0.2034  0.0504  0.1971
27736W        W45940   6.370   0.800   1.517 -0.1610  0.1444  0.0946
27737W        W45941  14.313   2.723   3.623 -0.1176  0.0779  0.0996
27738W        W45942   2.402  10.269   3.513 -0.0625  0.0154 -0.0018
27739W        W45943  16.102   5.264  12.645  0.0463 -0.2276  0.2376
27740W        W45944  13.839   3.296   4.537  0.1236 -0.0666  0.1556
27741W        W45945  13.479   9.084   0.212 -0.0603 -0.2522  0.2269
27742W        W45946  14.407   4.624   4.730 -0.0109 -0.0885 -0.2451
27743W        W45947   6.574   1.409  14.490 -0.1194  0.0488  0.0558
27744W        W45948  10.111   3.004   0.952  0.1417 -0.2153  0.0010
27745W        W45949   7.791  10.042   3.772  0.0845  0.2049  0.2010
27746W        W45950   0.992   3.376  14.003  0.0557  0.0639 -0.0865
27747W        W45951  14.925   2.210  14.961  0.4036 -0.2068 -0.3135
27748W        W45952   5.861  14.468  13.811 -0.3115  0.0799  0.0679
27749W        W45953  10.534  15.941  15.022  0.1668  0.1798  0.0082
27750W        W45954  10.943   7.525   2.148  0.1523 -0.1997 -0.2641
27751W        W45955   0.311   7.353   3.938 -0.1163 -0.3645  0.1607
27752W        W45956   6.930   3.346  12.956  0.1876  0.1584  0.0917
27753W        W45957   1.119  16.258   2.053  0.3060  0.0987  0.0643
27754W        W45958   0.025   8.733  11.755  0.0621 -0.2070 -0.1745
27755W        W45959   8.760   3.474   1.025  0.0984 -0.2138  0.0366
27756W        W45960   5.177   1.785  12.883  0.0865 -0.0817  0.1225
27757W        W45961   1.584   3.051  11.183 -0.1626  0.0283 -0.1829
27758W        W45962  11.379  12.638   3.147 -0.1443 -0.3214  0.3679
27759W        W45963   7.117   2.497  12.848 -0.1124  0.0244  0.2318
27760W        W45964   7.945   0.220   1.083  0.3043 -0.4102  0.1766
27761W        W45965  15.767  12.405  11.195  0.0736 -0.2956 -0.4278
27762W        W45966   2.757  13.373  10.068 -0.0849 -0.0502  0.0249
27763W        W45967   1.587   8.201   3.008  0.1009 -0.1171 -0.0762
27764W        W45968   5.956   1.230  12.882 -0.0557  0.3718  0.0823
27765W        W45969  15.607  12.232   2.395  0.0867  0.2654  0.3813
27766W        W45970  11.043   0.250  15.167 -0.0249  0.0620 -0.0586
27767W        W45971  12.514   1.549  12.548  0.1296  0.1344  0.1306
27768W        W45972  17.667   0.270   2.235  0.1610 -0.0571  0.2222
27769W        W45973   2.602  17.480  13.944  0.2980  0.0228  0.0041
27770W        W45974   9.036  16.218   3.483 -0.0004 -0.0919  0.0840
27771W        W45975   3.691   6.465  13.632 -0.1162 -0.0338 -0.0460
27772W        W45976   0.620   1.611  14.940  0.1170  0.0480  0.0595
27773W        W45977   7.869   7.345   4.125  0.1204  0.1556 -0.1452
27774W        W45978   9.406  14.583   1.283  0.1463 -0.3054  0.1040
27775W        W45979   5.796  11.419  15.072  0.3184 -0.0379  0.1920
27776W        W45980  11.452  12.561   1.762 -0.1104  0.1921  0.2789
27777W        W45981  13.374   1.807   3.945  0.2897 -0.0713 -0.4247
27778W        W45982   4.742  15.809   1.769 -0.2224 -0.2386  0.1455
27779W        W45983   7.669   0.543  12.627 -0.0064 -0.1108 -0.0655
27780W        W45984   6.308  12.625   0.446 -0.0761  0.2327 -0.0900
27781W        W45985  15.765  17.402  11.165 -0.1552  0.2702  0.1272
27782W        W45986   5.561   1.352  11.410  0.1000  0.0306 -0.1866
27783W        W45987  12.081   6.983   1.458  0.1300  0.1413  0.2698
27784W        W45988  13.652   2.239   2.547 -0.1927  0.0452 -0.1036
27785W        W45989  15.125  11.392  13.052  0.2428  0.0604  0.1231
27786W        W45990   2.265  13.540  10.868  0.0377 -0.1040 -0.1426
27787W        W45991  14.735  15.513   3.748 -0.1024 -0.1563  0.0152
27788W        W45992   1.174  16.207   2.501 -0.2511 -0.1317 -0.3318
27789W        W45993  11.770  11.295   3.416 -0.2859 -0.1501  0.2812
27790W        W45994  11.479   4.743   5.469  0.0440  0.1045 -0.0193
27791W        W45995   3.709   8.579  11.840  0.1917 -0.3918  0.0001
27792W        W45996   0.776  14.421  13.144  0.1154 -0.2936  0.0688
27793W        W45997  15.624   7.648  14.502  0.2730  0.3596  0.0036
27794W        W45998  17.458  13.700   5.850 -0.1757  0.0168 -0.0881
27795W        W45999  15.743  10.438   2.107  0.0752  0.1267  0.2284
27796W        W46000   7.862  12.317  14.405  0.3458 -0.1286 -0.5654
27797W        W46001  14.836  15.506  11.679  0.3712 -0.0736 -0.1292
27798W        W46002   8.370   3.203   3.430  0.1082  0.3048  0.0900
27799W        W46003   9.687  10.577  11.226  0.0870 -0.1523  0.1701
27800W        W46004  13.244   5.480  10.876 -0.0811  0.2901 -0.1417
27801W        W46005   3.411   7.638  11.911 -0.4472 -0.3607  0.1312
27802W        W46006  10.324  11.701   0.067 -0.1135  0.0111 -0.0700
27803W        W46007  15.621   0.843  12.639 -0.1000 -0.0927 -0.0211
27804W        W46008   1.888  18.016   5.527 -0.1117 -0.1356  0.1904
27805W        W46009  14.687  17.359   3.266  0.2266  0.1578  0.0204
27806W        W46010   1.568  13.330  12.775 -0.1565  0.1378  0.3299
27807W        W46011  12.099   6.301  15.316 -0.2776  0.0992 -0.0005
27808W        W46012   1.234   2.369  12.454 -0.0641  0.1432  0.1935
27809W        W46013   7.087   1.566   5.862 -0.0388 -0.0021 -0.1198
27810W        W46014  16.455   7.032   3.102  0.1240  0.0439  0.1109
27811W        W46015  10.829   7.103   1.306 -0.3038 -0.2575  0.0326
27812W        W46016   5.607   6.230  15.208 -0.1405  0.6112  0.1520
27813W        W46017  13.207   9.066  11.370 -0.0308 -0.1157  0.0051
27814W        W46018  14.029  12.406  15.211  0.0103  0.2994 -0.0028
27815W        W46019   3.567   7.704  15.127  0.1359 -0.1430 -0.0519
27816W        W46020  15.477  12.080  15.307  0.1426 -0.0416 -0.0406
27817W        W46021   3.039   7.928   3.079  0.1642  0.0866  0.3178
27818W        W46022   2.280  10.942   2.968 -0.1787  0.0669  0.3183
27819W        W46023   4.375   4.998   3.412  0.2446 -0.2336 -0.0031
27820W        W46024  10.880  13.070   1.241 -0.2968 -0.0527  0.3171
27821W        W46025   4.055   9.817  13.840  0.2575  0.3224 -0.1694
27822W        W46026   4.685  15.297  12.149  0.2074 -0.2851 -0.2502
27823W        W46027  18.392   7.384   3.629  0.0911 -0.0736  0.0215
27824W        W46028  12.332   4.918   4.375  0.1416 -0.0110  0.1432
27825W        W46029  18.378  13.793   3.388  0.1140  0.1613  0.1797
27826W        W46030  18.339   4.350   0.239  0.2153 -0.1277  0.0083
27827W        W46031  11.537   3.294  12.423 -0.0247  0.0555  0.2418
27828W        W46032   4.157   8.330   4.060 -0.0017 -0.1449 -0.2343
27829W        W46033   2.363  11.234  10.911  0.1143  0.1381 -0.0988
27830W        W46034  10.058   9.689  15.135  0.2816  0.1385  0.1845
27831W        W46035  13.982  14.914   3.879 -0.1292 -0.0679  0.3267
27832W        W46036  17.612   6.266   2.370 -0.3176  0.1103  0.0160
27833W        W46037  13.109   9.852  11.569  0.0386  0.1523  0.0154
27834W        W46038   1.979  10.896  14.225  0.0058  0.0533  0.2734
27835W        W46039  17.956   9.929   0.073 -0.1795 -0.2510  0.0859
27836W        W46040   7.862  16.785  11.997 -0.0878  0.0235  0.0449
27837W        W46041   6.305  16.158   3.985 -0.0537  0.1837  0.0170
27838W        W46042   1.026  12.490   0.999  0.0589  0.1614 -0.0069
27839W        W46043   6.133  11.805   3.910 -0.1252 -0.1513 -0.0663
27840W        W46044   7.222  14.495  11.437  0.3211 -0.1081 -0.1222
27841W        W46045  17.252   3.981  13.198 -0.2648 -0.0792 -0.1032
27842W        W46046   5.004   0.536   5.168 -0.2548  0.1718 -0.5415
27843W        W46047   3.764   5.691   2.758 -0.0951 -0.0787 -0.0726
27844W        W46048  11.920   8.312   5.100  0.1777  0.0156 -0.0012
27845W        W46049   9.518  16.957  12.396  0.1757 -0.0015  0.0256
27846W        W46050  12.621   1.809  14.858 -0.0054  0.2519 -0.1458
27847W        W46051  13.940  11.288  13.286  0.2637 -0.0827 -0.3269
27848W        W46052  14.928  10.491  11.641  0.0047  0.1626 -0.0773
27849W        W46053   6.061  17.497  14.996 -0.0022 -0.0265 -0.2457
27850W        W46054   5.276  16.587   4.464  0.1305  0.2307 -0.2627
27851W        W46055   3.410  12.451   2.041 -0.1510  0.2308  0.2209
27852W        W46056  10.178  10.722   4.198 -0.0511 -0.0403 -0.1034
27853W        W46057  15.023  18.614  14.765 -0.1470 -0.3687  0.1177
27854W        W46058  12.222   8.830  13.822  0.2373  0.1109  0.1986
27855W        W46059   6.314  13.933  11.488 -0.1663 -0.0389  0.1827
27856W        W46060   5.377   2.417  15.345 -0.0120  0.0868 -0.2671
27857W        W46061  17.343  18.006  13.392  0.2636 -0.1064 -0.1750
27858W        W46062  11.949  11.575  14.093 -0.1033 -0.1027  0.1940
27859W        W46063   0.778  15.056  14.717 -0.0847  0.2887 -0.1298
27860W        W46064  14.081   0.054   2.471  0.1191 -0.3003  0.0752
27861W        W46065  14.444   7.642   3.763  0.1684  0.1742  0.1587
27862W        W46066   3.350  13.739  13.139  0.2250  0.0056 -0.2806
27863W        W46067   4.609   3.081  14.147  0.1972  0.0399  0.0056
27864W        W46068   1.384   2.984   4.165 -0.1131  0.1681 -0.0635
27865W        W46069  10.394   1.250  14.823  0.3248  0.1569  0.1104
27866W        W46070   0.410  16.341   4.273 -0.1855  0.0724  0.5316
27867W        W46071   4.371   7.509   0.852 -0.0730  0.4092 -0.1255
27868W        W46072   4.879  13.510  14.905  0.0583 -0.3526 -0.0438
27869W        W46073   5.301   1.142  12.220 -0.3633 -0.1246  0.1506
27870W        W46074  16.549   9.483   3.814 -0.1886 -0.0065  0.3200
27871W        W46075  13.007   1.873  11.523  0.0909 -0.0289  0.1167
27872W        W46076  13.588  10.780   2.563  0.0651  0.0555  0.0039
27873W        W46077  15.593  17.866  14.332 -0.0721 -0.0113  0.1726
27874W        W46078  10.402   8.075  12.341  0.3287 -0.1547 -0.2038
27875W        W46079  14.842  13.201   4.810  0.2305  0.0049  0.1289
27876W        W46080   8.948  16.197   1.004 -0.1891  0.3792 -0.3876
27877W        W46081   2.111   2.391  11.242 -0.0378 -0.2024  0.0493
27878W        W46082  12.351   4.484  13.678 -0.0384 -0.1627  0.1742
27879W        W46083   5.250   3.005   2.810 -0.1796  0.0676  0.0806
27880W        W46084  15.326  18.531   3.272 -0.2112 -0.0482  0.0808
27881W        W46085  10.629   6.206   2.222  0.0829  0.1238  0.0959
27882W        W46086   6.809   5.903  14.116 -0.0633  0.0228  0.1281
27883W        W46087  12.331  14.997   0.923  0.0463  0.4981 -0.2132
27884W        W46088   7.545  13.273   0.890 -0.1152 -0.1804  0.0606
27885W        W46089  10.593  13.568   1.174 -0.3366 -0.1224  0.1670
27886W        W46090   8.204   6.442  10.560  0.1477  0.2289 -0.1097
27887W        W46091  11.517   5.576  11.777  0.3206 -0.1299  0.2476
27888W        W46092   8.869   4.719  11.917  0.1376  0.3113  0.0807
27889W        W46093   9.476   5.531   2.241  0.2407  0.0092  0.3465
27890W        W46094  12.050  10.747  10.961  0.0281  0.3387  0.0072
27891W        W46095  17.331   6.766   3.351  0.1700  0.2185  0.1829
27892W        W46096   5.192  14.176  12.941  0.0243  0.0576  0.2976
27893W        W46097  11.904   0.610   1.105 -0.0616  0.1267 -0.0821
27894W        W46098  15.143   7.002  12.395  0.2032 -0.0491  0.1807
27895W        W46099  16.544  15.767  13.787  0.2421  0.1033  0.1872
27896W        W46100  13.612   4.012   2.714 -0.1670  0.0741  0.0679
27897W        W46101   2.738  13.874  13.898 -0.1325 -0.1720  0.3218
27898W        W46102   4.335  16.814   3.785  0.1839 -0.2136  0.1140
27899W        W46103  10.564  10.717   0.854  0.1316  0.3224  0.0609
27900W        W46104   5.017   9.403  15.296  0.1908  0.1826  0.2881
27901W        W46105   5.193  13.536   3.119 -0.0194  0.0486  0.0061
27902W        W46106  13.137   8.171  11.698 -0.1440  0.2041 -0.2273
27903W        W46107   1.208   3.193   3.113 -0.3630  0.2282  0.1320
27904W        W46108  15.558  15.733   0.725 -0.0270  0.2774 -0.0262
27905W        W46109   7.435   6.189   1.823  0.1836  0.1141  0.0789
27906W        W46110   4.388  12.407  12.332  0.1553  0.2363 -0.1773
27907W        W46111  12.912  11.574  12.844  0.2138 -0.2171  0.0674
27908W        W46112   6.602   2.741  14.525  0.2393  0.0595  0.1594
27909W        W46113  10.897   4.012   0.184  0.1827  0.0757  0.3940
27910W        W46114   4.373   3.407   0.865 -0.1471 -0.1676  0.1575
27911W        W46115   2.895   7.707  13.048 -0.0227 -0.1062 -0.0045
27912W        W46116   2.598  12.809   2.069  0.0543 -0.1837  0.0627
27913W        W46117  10.078  16.106  13.717 -0.2383 -0.0967  0.0124
27914W        W46118   9.845   0.076   5.009  0.2649 -0.2990  0.0466
27915W        W46119  14.389   2.759  10.501  0.5036 -0.0645  0.0042
27916W        W46120   4.699   6.991  15.270  0.0510 -0.0972 -0.1706
27917W        W46121   2.532   1.842  13.553  0.1706 -0.0557  0.4281
27918W        W46122   3.567   5.081  10.736 -0.0495  0.0285 -0.1587
27919W        W46123  18.336   2.696  11.958  0.2203 -0.2070 -0.0321
27920W        W46124   9.060  12.611   0.259  0.3225  0.2108  0.0699
27921W        W46125  10.129  16.334  15.059  0.1048 -0.1353  0.1006
27922W        W46126   1.904   3.459  10.966  0.1129  0.0064 -0.0813
27923W        W46127  17.715   0.151   2.760 -0.0442  0.0373 -0.0930
27924W        W46128  16.478   5.329   3.307  0.1526 -0.0229 -0.0833
27925W        W46129  17.819   4.218   4.138  0.5060  0.0230  0.1431
27926W        W46130   0.658   3.018   0.491 -0.0589  0.1253  0.0114
27927W        W46131  13.551  16.966   2.612 -0.1306 -0.5811 -0.0124
27928W        W46132   3.496   4.770   3.370  0.0920 -0.0619 -0.1452
27929W        W46133   7.212  13.103   3.356  0.0125 -0.1450 -0.3143
27930W        W46134  11.866   0.892   5.384 -0.0826  0.0236 -0.1573
27931W        W46135  18.307   7.325  11.885 -0.1306 -0.0138  0.3740
27932W        W46136  14.891   2.551  11.054 -0.1782 -0.0341 -0.0313
27933W        W46137   6.624   6.167   1.072  0.1672 -0.2345 -0.2511
27934W        W46138  17.325   6.008   0.840  0.3582 -0.1544  0.1162
27935W        W46139  17.647   2.744  12.355 -0.1550  0.3474  0.0561
27936W        W46140   3.976  11.697  11.739 -0.1801 -0.0086 -0.0453
27937W        W46141   4.868  12.758   1.090 -0.0451 -0.2840 -0.0231
27938W        W46142   7.071  12.370  12.173  0.1655 -0.1331  0.0630
27939W        W46143  15.917  17.727  13.889  0.2767 -0.0093 -0.1865
27940W        W46144   5.540  16.760  13.625 -0.1369 -0.1997  0.2824
27941W        W46145   5.608   3.973   1.972 -0.0249  0.2399  0.0914
27942W        W46146  16.664   9.180   3.403  0.3394  0.1131 -0.0686
27943W        W46147  18.444  14.771   2.142  0.0102  0.0128 -0.1244
27944W        W46148  11.365   4.548  11.889  0.2750  0.1419 -0.4122
27945W        W46149  12.430   2.533  13.083  0.1346 -0.0433 -0.0926
27946W        W46150  16.333  16.222   0.650  0.1762 -0.1133  0.0407
27947W        W46151  15.939  13.275  11.447  0.1607 -0.0786  0.2582
27948W        W46152  16.462  17.909   5.412 -0.2174  0.0325 -0.1426
27949W        W46153   1.861   1.064   0.637 -0.0654 -0.3589 -0.2958
27950W        W46154  11.603  12.963   0.062 -0.2898 -0.0707  0.0626
27951W        W46155  18.528  12.394  11.380 -0.4688  0.4176 -0.0627
27952W        W46156  16.494   3.085   1.852 -0.0468 -0.0986 -0.1600
27953W        W46157  15.256  14.366   1.130 -0.2996  0.1410 -0.0528
27954W        W46158  10.885   1.271  11.946  0.0919  0.1611  0.1794
27955W        W46159   1.526  14.851   2.430 -0.1324 -0.1366  0.0673
27956W        W46160   5.311  16.440   2.683 -0.0223  0.0439  0.0219
27957W        W46161  17.448   6.649   1.240  0.0065  0.0071 -0.0037
27958W        W46162   5.536  18.027   2.979  0.1193  0.0844 -0.3062
27959W        W46163  11.421  17.998  15.360  0.1615 -0.0695  0.2150
27960W        W46164  13.644  13.704  13.403 -0.0650  0.1527  0.0822
27961W        W46165  16.946  10.607   0.054 -0.1795 -0.1661 -0.1601
27962W        W46166   7.069  13.794   4.846  0.0594  0.0991 -0.0496
27963W        W46167   6.816  12.290   4.520 -0.0627 -0.1845 -0.2118
27964W        W46168  16.184   7.451  12.310 -0.2773  0.1535  0.3452
27965W        W46169  16.708  16.353   0.409  0.0546  0.3799  0.2465
27966W        W46170   9.292   6.097  14.929  0.2858 -0.0725  0.1986
27967W        W46171   3.377  11.311   3.954 -0.0202  0.0188  0.2297
27968W        W46172  10.726  15.269   1.205 -0.0847  0.1831  0.3381
27969W        W46173   6.430  15.545   4.590  0.2089  0.1822  0.1842
27970W        W46174  12.978  12.584   3.248 -0.0803 -0.0347  0.0941
27971W        W46175  15.265  14.993   2.803 -0.0157 -0.1452 -0.0147
27972W        W46176  16.461   4.403   0.567  0.2967 -0.3763 -0.3893
27973W        W46177   5.342  18.307   4.462 -0.2311  0.0128  0.3015
27974W        W46178   2.872  15.825  12.644 -0.1980  0.2002 -0.0701
27975W        W46179   8.561   3.544   4.824 -0.0962  0.0069  0.1290
27976W        W46180   6.411   7.868   3.869  0.4854 -0.1379  0.0064
27977W        W46181   0.723  16.440   0.417  0.0315 -0.0994 -0.2180
27978W        W46182  15.041  11.525   4.994  0.0081  0.0762  0.0978
27979W        W46183  13.467   6.776   0.032  0.0487  0.3027 -0.1743
27980W        W46184   9.413   5.972   1.992  0.0489 -0.0678 -0.0225
27981W        W46185   3.592   1.271   4.455 -0.1199  0.1146  0.1813
27982W        W46186   4.024  14.865   4.242 -0.1594 -0.0711 -0.0041
27983W        W46187   7.585   5.303   0.422 -0.2782  0.1609 -0.1400
27984W        W46188  12.676   0.031   1.475  0.0887  0.1779 -0.0210
27985W        W46189   1.896   6.769  12.385 -0.1582 -0.0473 -0.0796
27986W        W46190  13.036   9.912  15.300  0.0463  0.1322  0.2341
27987W        W46191  18.550   8.930  13.597 -0.0469 -0.0049  0.1958
27988W        W46192   9.931   4.887   1.142  0.0214  0.1769 -0.1730
27989W        W46193  12.277   8.669  11.351 -0.0314  0.2964 -0.0105
27990W        W46194  18.505   6.256  13.902 -0.1913  0.0559 -0.0052
27991W        W46195  17.689  12.127   4.119  0.0599  0.0769  0.0076
27992W        W46196  13.338   6.615  11.635 -0.2612 -0.0842 -0.1356
27993W        W46197   1.830  12.534   1.111  0.0651  0.1785  0.0630
27994W        W46198   3.601  14.966  14.034  0.1603 -0.1671 -0.1957
27995W        W46199   7.225   0.295   2.274  0.1054 -0.1678 -0.1747
27996W        W46200  15.328  16.785   3.657 -0.2258  0.0917 -0.0428
27997W        W46201   9.770   5.087   4.456 -0.1249  0.1339 -0.0556
27998W        W46202  12.301  13.328   2.415  0.0577  0.1047 -0.1611
27999W        W46203   0.661   7.484   2.247  0.4389 -0.0356 -0.3628
28000W        W46204  12.932   3.119  10.754  0.0437  0.0446  0.0564
28001W        W46205   6.039   2.692  13.677  0.2962  0.1925 -0.0889
28002W        W46206  11.302  12.489   2.628  0.1157 -0.0354  0.1607
28003W        W46207  17.596  13.745   0.945  0.1500 -0.4666  0.1909
28004W        W46208   0.299  10.257   4.801  0.0296 -0.1177  0.1685
28005W        W46209   5.585  10.083   4.309  0.0724 -0.1994 -0.3421
28006W        W46210  10.920  12.609   1.394  0.0956 -0.1462 -0.0587
28007W        W46211  15.065   8.494  13.563  0.0129  0.1941  0.0357
28008W        W46212   4.097  15.995   3.408  0.2547  0.1989  0.2757
28009W        W46213  14.990   6.242   0.345 -0.1799  0.0730  0.0021
28010W        W46214   1.474  12.243   3.534  0.1020 -0.0435  0.2175
28011W        W46215  10.508   0.695  14.410  0.0213  0.1416 -0.0414
28012W        W46216   0.010   8.163  13.060 -0.0431 -0.2677 -0.3352
28013W        W46217   3.966   4.978  11.043 -0.2986 -0.0447 -0.0541
28014W        W46218   9.296  13.310   1.165 -0.0174 -0.0141 -0.1335
28015W        W46219   4.656  13.908   2.554  0.1780  0.1799  0.0347
28016W        W46220   0.476  14.602   1.346 -0.1616 -0.0776  0.1412
28017W        W46221   7.095   5.476   0.670  0.0582 -0.0936 -0.1279
28018W        W46222   3.272   1.225   0.673 -0.0277  0.1381 -0.1934
28019W        W46223  13.921  15.857   3.727  0.1302 -0.0792  0.0653
28020W        W46224   4.137   5.535  11.130  0.2396  0.0668  0.0913
28021W        W46225   1.775  10.304   2.932  0.1159  0.0062 -0.2275
28022W        W46226   2.550   4.070  11.069 -0.0538  0.1635 -0.1402
28023W        W46227   0.995   9.678   1.332  0.2163 -0.1543 -0.0116
28024W        W46228  15.892   8.208  11.893 -0.0019 -0.0711 -0.3236
28025W        W46229   1.631  11.871  15.010  0.0675  0.2089  0.1053
28026W        W46230  17.958   7.532   2.201 -0.0683  0.1895  0.0504
28027W        W46231   2.330  16.958  12.853 -0.1238 -0.0647  0.1230
28028W        W46232   6.321   6.978   0.636 -0.1065  0.0912 -0.0457
28029W        W46233  17.976   5.619  14.672  0.0485 -0.0263 -0.0291
28030W        W46234   2.989  16.794   0.137  0.1615  0.0093  0.0266
28031W        W46235   5.210  15.376   4.686 -0.3174  0.2550  0.0679
28032W        W46236  17.384   1.020  11.930  0.0467 -0.0621  0.2074
28033W        W46237  17.659   4.151  12.980 -0.0752 -0.0189 -0.1384
28034W        W46238  17.093  15.897  13.941  0.1887  0.2760  0.1123
28035W        W46239   6.890  13.708  13.665 -0.1245 -0.2036 -0.1047
28036W        W46240   7.176   6.180   2.356  0.0649 -0.0257  0.0569
28037W        W46241   8.696  11.055  10.896  0.0346 -0.0156  0.2227
28038W        W46242   6.085   9.580   0.447 -0.0414 -0.0431  0.1724
28039W        W46243  16.167  15.698   3.028  0.0556  0.2214  0.2527
28040W        W46244  17.726   6.817  14.964  0.0566 -0.1540 -0.2528
28041W        W46245   9.165   3.520   3.737  0.2020 -0.1250 -0.1795
28042W        W46246  15.129  10.248   4.602 -0.0834  0.2878 -0.0308
28043W        W46247  16.497   7.719   3.745  0.2519 -0.0915  0.0355
28044W        W46248   1.055  14.201   0.568 -0.1320  0.0636 -0.1687
28045W        W46249  11.979   3.332   0.393 -0.0362 -0.3722 -0.0943
28046W        W46250   6.322   6.321   3.353 -0.1013 -0.0786  0.0861
28047W        W46251  17.695   9.166  12.172 -0.0320 -0.3366  0.2858
28048W        W46252   3.932  11.004  11.031  0.0584 -0.3511 -0.1903
28049W        W46253   1.026   7.974  11.102  0.0306  0.1209 -0.0474
28050W        W46254   4.534   1.133   3.576  0.1890 -0.3495 -0.1793
28051W        W46255   0.336  15.341   0.681 -0.1215 -0.0087  0.3118
28052W        W46256  12.968  11.611  11.291  0.0337  0.0658  0.0289
28053W        W46257  12.631   4.085   0.720 -0.0362 -0.2138  0.0708
28054W        W46258  10.167   7.318  13.442  0.0621  0.1131  0.0595
28055W        W46259   6.214  15.444  13.652  0.0150 -0.0128 -0.2243
28056W        W46260  16.784   7.459   3.089  0.0081  0.0056  0.1380
28057W        W46261  15.102   2.433   3.050  0.4466 -0.0821 -0.0102
28058W        W46262  15.455  16.055   4.295 -0.1162  0.0762  0.1148
28059W        W46263  16.455   3.821   4.586  0.1939  0.1282 -0.1699
28060W        W46264   3.782   2.307   0.455 -0.0657  0.0304 -0.1674
28061W        W46265   6.508   9.881  13.961  0.2635  0.0101 -0.0475
28062W        W46266   0.837   1.644  14.114  0.1614  0.1172 -0.1876
28063W        W46267  14.637   4.546  10.863 -0.1308  0.0651 -0.1467
28064W        W46268  17.196   4.888  12.102  0.2520  0.1132  0.2030
28065W        W46269  13.790  11.714   4.839  0.4241  0.1504 -0.0804
28066W        W46270   4.379  11.744  13.630 -0.2125  0.0758  0.3426
28067W        W46271   2.440  17.792  12.349  0.2809 -0.3043  0.1969
28068W        W46272  18.604   0.293   3.316  0.1017  0.0232 -0.2088
28069W        W46273   5.130   2.194  10.368 -0.0146 -0.0452  0.2406
28070W        W46274   3.197   0.325   3.554 -0.0558 -0.1505  0.2094
28071W        W46275   6.594   7.540  13.658 -0.0403  0.3087  0.2909
28072W        W46276  17.080  13.547  12.772 -0.2908  0.0754  0.1459
28073W        W46277   8.069  17.420   3.590 -0.3867 -0.2153 -0.2295
28074W        W46278   3.608   9.132  14.870 -0.1213 -0.2971 -0.0211
28075W        W46279   7.026  11.974   4.046 -0.3310 -0.0054  0.0007
28076W        W46280  10.210   8.481  14.284 -0.1474 -0.0381 -0.0786
28077W        W46281   7.851  16.048  11.651 -0.0790 -0.0925  0.1352
28078W        W46282   7.279   0.735  11.661  0.0434 -0.0974  0.0867
28079W        W46283   2.351  15.843   2.785 -0.0324  0.0373 -0.1050
28080W        W46284  15.244  16.089  11.351 -0.5376 -0.0398  0.0715
28081W        W46285  16.467  17.004  12.775  0.2894 -0.0815  0.1046
28082W        W46286  17.185   3.524  14.125  0.0044  0.1463 -0.0211
28083W        W46287  15.958   6.576   0.582  0.3823  0.2922 -0.2283
28084W        W46288  13.068  10.383   3.252 -0.1166  0.1276  0.4117
28085W        W46289   5.756   3.200  11.922  0.0759  0.3677 -0.1216
28086W        W46290   8.177  18.154   4.745  0.0221 -0.2707  0.1209
28087W        W46291   6.792   5.197  12.049  0.0136 -0.0245 -0.2268
28088W        W46292   7.744   2.761   4.319  0.0847  0.0586  0.5247
28089W        W46293  15.400  13.836  12.839  0.1762 -0.2075  0.2113
28090W        W46294   0.284   3.055   4.047 -0.1775  0.1115  0.3228
28091W        W46295   5.125  13.317  13.312  0.0624 -0.0320 -0.4344
28092W        W46296  12.067  10.379   1.702 -0.1690  0.1581  0.1762
28093W        W46297  11.354   7.659   0.511  0.2903 -0.0515 -0.2896
28094W        W46298  16.360   2.526  12.351  0.0681  0.3633 -0.1436
28095W        W46299   4.501   3.670   4.417 -0.2649 -0.0477 -0.0922
28096W        W46300  16.907  10.775  14.719  0.3161 -0.0549  0.2596
28097W        W46301   4.258  16.858   0.268 -0.3494 -0.0581 -0.0892
28098W        W46302   6.105   9.749  10.997  0.2219 -0.0442 -0.2880
28099W        W46303  14.622   8.796  13.374 -0.0425  0.1608 -0.0618
28100W        W46304  18.261   5.788  10.625 -0.0130  0.1787 -0.2290
28101W        W46305   0.781   2.144  11.656  0.0129 -0.0609  0.1565
28102W        W46306  17.137  11.784  12.221  0.4474 -0.1420 -0.3714
28103W        W46307   8.801  10.155  13.514 -0.1389  0.1149  0.1398
28104W        W46308   1.111   6.430  14.968 -0.1886 -0.1238  0.1680
28105W        W46309   1.647  13.409  11.489  0.2046 -0.1205 -0.0253
28106W        W46310  16.222   1.062  15.268 -0.2046 -0.0562  0.0949
28107W        W46311   6.382   2.318  13.492 -0.1178  0.3929 -0.0839
28108W        W46312  16.779  10.051   2.157  0.2043  0.2610 -0.2626
28109W        W46313   9.891   6.734   1.034  0.0119  0.1372  0.0206
28110W        W46314   4.081  13.216   1.443 -0.0664 -0.0775 -0.0386
28111W        W46315  17.392   6.408  12.523  0.0632  0.2728  0.2544
28112W        W46316  16.015  15.568   3.809 -0.2004 -0.5621  0.4978
28113W        W46317  17.175  17.568   1.052 -0.2984 -0.2158  0.3964
28114W        W46318   7.086   4.126  15.294 -0.1165 -0.1739 -0.2080
28115W        W46319  16.776   4.511   2.173  0.1731 -0.0029  0.1554
28116W        W46320   9.794  17.925   5.528 -0.0511 -0.0407 -0.1215
28117W        W46321  16.469  14.174  12.416  0.1588 -0.0012 -0.2603
28118W        W46322   7.043  13.309  14.555 -0.0265  0.0554  0.1636
28119W        W46323   4.336   4.211   4.454 -0.1997 -0.1721  0.0657
28120W        W46324  10.636  15.692   0.344  0.1290  0.0283  0.0071
28121W        W46325   3.160   4.723   0.312  0.0515 -0.0729  0.1675
28122W        W46326   8.864   5.486   2.160  0.1960  0.0749 -0.1237
28123W        W46327  11.930   8.953   3.838  0.3506 -0.2192 -0.0273
28124W        W46328   1.893   8.520   1.521  0.1205  0.0737  0.0443
28125W        W46329   5.954   8.084   3.909 -0.1037 -0.0925 -0.0458
28126W        W46330  11.642  12.982  11.637 -0.1662 -0.0869  0.2827
28127W        W46331   5.959   2.000  13.398  0.1957  0.1316 -0.0860
28128W        W46332   0.720   5.334   1.349 -0.1701  0.1039 -0.0868
28129W        W46333   0.872  12.060   3.593  0.1300 -0.1216 -0.2152
28130W        W46334  12.234   6.771   1.067  0.2188 -0.1159  0.2123
28131W        W46335  15.557   8.795  13.685 -0.2930  0.0610  0.0629
28132W        W46336   1.079   8.866   3.523  0.1344  0.1663  0.1491
28133W        W46337  16.352   7.686  11.391 -0.2528 -0.0819  0.1873
28134W        W46338   0.432  18.013   0.164 -0.0215 -0.0835  0.3317
28135W        W46339  12.521  12.434   5.348  0.2152  0.0638  0.0451
28136W        W46340  11.388   9.372  14.272 -0.2341  0.0980  0.1466
28137W        W46341  16.867   2.673  15.450  0.1523  0.0323 -0.2205
28138W        W46342  16.008   6.431  13.317  0.0967 -0.0338  0.0855
28139W        W46343   8.280  18.534   1.266 -0.1472 -0.1183  0.0371
28140W        W46344   9.154  16.490   3.049  0.0687  0.1367 -0.0079
28141W        W46345  17.501   6.748   1.735 -0.0959 -0.1035  0.2637
28142W        W46346  14.202  17.656  10.704  0.2876  0.2313 -0.2755
28143W        W46347  14.253  17.386   3.672 -0.1017  0.4617 -0.0180
28144W        W46348  15.454   2.590  11.869  0.0860 -0.1225 -0.1256
28145W        W46349   3.514  13.891  12.665 -0.2063  0.0700 -0.1771
28146W        W46350   7.639   2.222  11.121 -0.2196 -0.0835  0.1133
28147W        W46351   4.477   5.162  11.009  0.0659  0.1774 -0.1554
28148W        W46352  12.880  13.178   0.490 -0.2068  0.1915 -0.2193
28149W        W46353   9.681  14.887  13.428  0.0201  0.4110  0.2648
28150W        W46354   1.880   9.651   1.416 -0.1438  0.2110  0.0044
28151W        W46355   1.497   1.876   0.793  0.2348 -0.2394  0.0047
28152W        W46356   1.222  17.880  12.063  0.0284 -0.1458 -0.3879
28153W        W46357  10.096   7.417   0.362 -0.4301 -0.3294  0.0234
28154W        W46358   3.991   6.833  11.089 -0.1354 -0.0348  0.0430
28155W        W46359   3.691  17.955  15.255  0.3901  0.3139 -0.0832
28156W        W46360  11.279   5.432  11.289 -0.0044  0.2303  0.1356
28157W        W46361   3.704  11.523  10.883 -0.0658  0.2053  0.0653
28158W        W46362   3.747   3.092   2.952  0.2833  0.1675  0.0519
28159W        W46363  12.306   3.657   2.196 -0.1487  0.1189 -0.0439
28160W        W46364  16.274   9.474  12.044 -0.2089  0.0967 -0.1451
28161W        W46365  12.164  13.797   4.245  0.0837 -0.0910 -0.0135
28162W        W46366   5.244   5.596  11.382 -0.0260  0.0798 -0.0003
28163W        W46367   7.075   1.429  14.484  0.3759  0.2059 -0.1209
28164W        W46368   5.716   5.128   4.667  0.0088 -0.2115 -0.0763
28165W        W46369   9.716  13.025  13.794 -0.0450 -0.0636 -0.0055
28166W        W46370  17.735   7.117   2.070  0.3145  0.2243  0.1595
28167W        W46371  13.848  11.998   2.843  0.4969  0.3503  0.3253
28168W        W46372   8.323  15.426  13.843 -0.0066 -0.2959  0.1253
28169W        W46373  12.534  13.389  13.848 -0.2909 -0.3250  0.1959
28170W        W46374   5.688  13.069   0.611 -0.0587 -0.1244  0.0725
28171W        W46375   4.091   5.687  15.300  0.4199 -0.2189 -0.0852
28172W        W46376  18.088  10.652  12.974  0.0036  0.2391  0.4227
28173W        W46377  16.962   2.698  13.633 -0.0121 -0.0701 -0.2110
28174W        W46378  13.216  17.001   1.847 -0.0959  0.0525 -0.0022
28175W        W46379  17.952   3.611  12.760 -0.1285  0.1011  0.0103
28176W        W46380  16.562   4.675  15.138  0.0499 -0.4232 -0.0909
28177W        W46381  15.581   5.099   2.984 -0.0763 -0.0169 -0.0913
28178W        W46382  12.012  10.741   4.117  0.0939  0.0692  0.0581
28179W        W46383   8.494   5.879  12.005 -0.0757  0.0066 -0.1317
28180W        W46384  17.537   4.047  14.934 -0.2904  0.0119  0.1540
28181W        W46385  15.951   3.096   1.891 -0.0554 -0.0949 -0.1110
28182W        W46386  10.440  17.043   1.723  0.0982  0.1388  0.0709
28183W        W46387  17.475   3.587   2.015 -0.0349 -0.0729 -0.2221
28184W        W46388   8.894  11.973  14.039  0.1963  0.0952 -0.0492
28185W        W46389   6.296   3.592   4.411  0.1096  0.1075 -0.0207
28186W        W46390  10.329   0.472   4.354  0.2480  0.1400  0.1867
28187W        W46391   1.366   3.700  15.298 -0.0287  0.0267  0.1150
28188W        W46392  15.070   8.969   2.574  0.0523  0.0848  0.1940
28189W        W46393  12.160  11.152  11.327  0.2226 -0.1198  0.0626
28190W        W46394  10.630   5.315  11.300  0.2701  0.1995  0.2484
28191W        W46395  16.012   6.327   3.368 -0.0659 -0.0151  0.1420
28192W        W46396  12.887   1.676   2.149 -0.2075  0.3429  0.0522
28193W        W46397   0.041  13.336  14.979  0.0698  0.0617  0.0609
28194W        W46398   3.904   5.295   1.425  0.0269  0.0990  0.1268
28195W        W46399  18.582  10.521  13.593  0.0426 -0.0352  0.0818
28196W        W46400   2.706  13.270   1.792 -0.0669  0.0942 -0.0426
28197W        W46401  17.624   7.913  13.277  0.0048 -0.1484 -0.0255
28198W        W46402  10.478   9.015  11.888 -0.0209 -0.0491  0.1504
28199W        W46403  13.214   2.908  11.818 -0.1845 -0.2211 -0.3185
28200W        W46404  16.930  15.892   3.362 -0.0836  0.2207  0.0317
28201W        W46405  18.492  17.019  12.800  0.1340  0.0093  0.0968
28202W        W46406  15.793  16.514   4.859  0.0143  0.0315 -0.0189
28203W        W46407   8.678  10.188  10.433  0.0143  0.0832 -0.0118
28204W        W46408   0.890  17.876   1.413  0.0931  0.1615  0.3065
28205W        W46409  13.233   4.377  11.826  0.0433  0.0285  0.2040
28206W        W46410   2.743  11.070  10.001 -0.3775 -0.3431  0.0265
28207W        W46411   8.891   2.823  12.220  0.1249  0.4310 -0.0598
28208W        W46412   3.567   6.658   0.121 -0.1441 -0.1216  0.1143
28209W        W46413  13.142  12.201   4.582 -0.2160  0.0186  0.1813
28210W        W46414   9.115  12.220   0.643 -0.2257 -0.1492 -0.0599
28211W        W46415  11.885   8.517   2.235  0.1992  0.1360 -0.1942
28212W        W46416   3.101   2.477  14.314  0.0979 -0.2201  0.1631
28213W        W46417  15.148   2.406   2.524 -0.2473  0.2919  0.0625
28214W        W46418   3.072   7.240  12.827 -0.0463 -0.0324  0.3746
28215W        W46419   9.950   9.522   3.196  0.0610  0.1450  0.3982
28216W        W46420   0.767   3.777  11.725 -0.2355 -0.0910 -0.0324
28217W        W46421  14.524  17.443  12.854  0.0048  0.0880 -0.0959
28218W        W46422   7.269  13.191  15.043  0.3295  0.1515 -0.0151
28219W        W46423   4.144   1.066   3.946  0.1736  0.1887  0.3155
28220W        W46424  14.758   6.641  11.281 -0.0604 -0.0946 -0.0453
28221W        W46425  17.305   4.444  14.526 -0.0198  0.3037  0.2199
28222W        W46426   0.138   3.037   4.590  0.1743  0.3301 -0.2360
28223W        W46427  10.877   7.508  13.149 -0.1612  0.0018  0.2104
28224W        W46428   4.410   7.501  12.850  0.2246  0.0158 -0.0947
28225W        W46429  18.450  10.771   1.469 -0.1651  0.1014 -0.0068
28226W        W46430  12.232   0.604   0.054 -0.1866  0.2223 -0.1621
28227W        W46431   4.749  10.388  13.809  0.0161  0.2296 -0.2216
28228W        W46432   8.860  15.471  12.524  0.0468 -0.1607  0.1993
28229W        W46433   1.524   9.981   3.332 -0.1199  0.2326  0.0785
28230W        W46434   1.693   7.234  15.055  0.2876  0.2979 -0.0968
28231W        W46435  12.651  12.851   2.993 -0.1204 -0.0927  0.0820
28232W        W46436  14.313  17.813  12.468  0.1249  0.1757 -0.1508
28233W        W46437   4.724   0.487   4.107  0.0263 -0.0165 -0.1299
28234W        W46438   6.320   8.412   3.552 -0.2455  0.1100  0.0994
28235W        W46439  10.317   3.324  13.093  0.1413 -0.3264  0.1072
28236W        W46440   8.210   6.308  12.113 -0.1018  0.4215  0.0230
28237W        W46441   6.816  11.943   0.421  0.0370 -0.1972 -0.0148
28238W        W46442  16.574   2.138  10.835  0.2222  0.2360 -0.2194
28239W        W46443  11.048   7.060   5.238 -0.0296 -0.1430  0.1854
28240W        W46444   8.451  11.855   3.098  0.0891  0.2091 -0.1919
28241W        W46445  11.987   3.693  13.276  0.0915  0.0383  0.2865
28242W        W46446   0.637  15.804  12.696  0.2306 -0.3482 -0.0277
28243W        W46447  17.701   0.287  11.767  0.2280 -0.0877  0.1459
28244W        W46448   4.946   7.626   0.805  0.0141  0.0387  0.0698
28245W        W46449  17.670   1.575  11.098 -0.2220  0.2869  0.2507
28246W        W46450   8.917  12.798  13.400  0.0583 -0.1240 -0.1506
28247W        W46451   5.627   3.661   1.018 -0.2366 -0.1396 -0.0370
28248W        W46452   0.264   6.534  13.665  0.1281  0.1665  0.0726
28249W        W46453   3.382  17.527   1.323  0.4367 -0.0592  0.2033
28250W        W46454   5.561   1.483  12.531  0.0595  0.0291  0.1443
28251W        W46455   0.531  13.094   0.287 -0.1270  0.0601  0.3303
28252W        W46456   4.505  14.171  13.348  0.2933  0.0094 -0.2702
28253W        W46457  18.328   0.949  10.540  0.1946 -0.0310  0.1363
28254W        W46458  13.973   0.075   4.447  0.2119 -0.0841  0.1120
28255W        W46459   6.502  16.332   1.489  0.1420 -0.0009  0.0117
28256W        W46460  12.481  13.964   1.703 -0.0138 -0.2198 -0.0990
28257W        W46461  18.281  16.916   0.801  0.3739  0.1360 -0.0798
28258W        W46462  10.516   7.560   2.556 -0.1591 -0.0598  0.0352
28259W        W46463   2.565   0.655   0.605 -0.4241 -0.1543  0.3436
28260W        W46464   7.244   2.968   3.599  0.2960  0.1345  0.0798
28261W        W46465   1.990   7.067   1.402 -0.0859  0.0422 -0.1280
28262W        W46466   9.251  13.789  14.839 -0.1610 -0.0475 -0.1525
28263W        W46467   8.399   8.178   0.415  0.0585 -0.2723 -0.3830
28264W        W46468   7.052  12.530   4.119  0.0526  0.1607 -0.3536
28265W        W46469  16.283  15.763   1.940 -0.3962  0.0435 -0.1087
28266W        W46470   2.715  14.465  12.138  0.1478  0.0137 -0.1391
28267W        W46471   2.193  17.474  13.626  0.1069  0.2322  0.1933
28268W        W46472   6.994   4.532  14.466 -0.0663 -0.2570 -0.2742
28269W        W46473   3.060   3.654   2.610  0.0112  0.0983 -0.0736
28270W        W46474  17.240   8.278  14.091  0.0566  0.0267 -0.0745
28271W        W46475   5.027   7.241   2.963  0.2036 -0.0005  0.3396
28272W        W46476   5.434  16.039   3.665  0.1103 -0.2043 -0.0382
28273W        W46477   0.815   5.431  10.760  0.0136  0.3111 -0.2429
28274W        W46478  10.832  12.613   2.378  0.2163 -0.0569 -0.2375
28275W        W46479  13.064   3.412  11.120  0.1498 -0.3204  0.3289
28276W        W46480  11.553   9.248   2.731 -0.0793  0.1017  0.1902
28277W        W46481  14.076  13.905   2.606 -0.0972 -0.0092  0.1984
28278W        W46482  14.266   8.330  12.615  0.0009 -0.1252  0.1355
28279W        W46483  11.248  10.291   2.857  0.1116  0.1562 -0.4821
28280W        W46484   1.161  11.734   3.290  0.0480  0.0362  0.0355
28281W        W46485   3.916   4.770  13.745 -0.1231  0.0485  0.1868
28282W        W46486   1.599   4.676  13.969 -0.1731  0.3056 -0.0617
28283W        W46487  17.360  11.097   0.520 -0.0264 -0.3768  0.0340
28284W        W46488  14.749   6.029  11.109 -0.0696  0.0102  0.1521
28285W        W46489   7.842   7.471   1.262  0.1309 -0.1241  0.1149
28286W        W46490   9.520   3.212   3.659  0.1558  0.2575  0.1107
28287W        W46491  18.613   8.506  12.602 -0.0594  0.0869 -0.1023
28288W        W46492   2.805  16.556  11.404  0.0208 -0.0327 -0.2468
28289W        W46493   7.319   9.143   4.434  0.1664 -0.1438 -0.1643
28290W        W46494  10.714   2.296  13.220 -0.1859  0.1923  0.1013
28291W        W46495  18.027  12.825  11.811 -0.1089  0.1527 -0.0563
28292W        W46496  13.280  17.716   3.064  0.0944  0.2320 -0.1732
28293W        W46497   0.191   8.436   0.262  0.1582  0.1956 -0.3301
28294W        W46498   0.257  15.432   1.805  0.0809 -0.0418 -0.0350
28295W        W46499   1.009   4.309  11.750 -0.1380  0.0590 -0.0714
28296W        W46500  15.366   5.024  11.516  0.0836 -0.0855  0.0708
28297W        W46501   6.107   4.044  14.859  0.0580 -0.1048  0.4517
28298W        W46502   1.146   1.131   1.378 -0.0068  0.1455  0.2650
28299W        W46503   6.480  14.271   4.503  0.1635 -0.1486  0.1197
28300W        W46504   7.141   1.436   0.689 -0.1089  0.1471  0.1894
28301W        W46505   2.371   1.530  12.214  0.3050  0.1535 -0.1767
28302W        W46506   5.420   6.816   4.210  0.0737  0.2581 -0.3450
28303W        W46507  14.883  14.391   4.462  0.3244 -0.0139 -0.3922
28304W        W46508   1.119   5.912  15.110 -0.0317  0.0140  0.3240
28305W        W46509  18.474  13.756  14.732 -0.0453 -0.0963 -0.2500
28306W        W46510   8.153  15.593  11.412 -0.0142 -0.0991 -0.2090
28307W        W46511   2.000   2.307  12.867 -0.4004 -0.0506  0.0462
28308W        W46512   3.877   5.704  11.520 -0.1789 -0.0231 -0.3255
28309W        W46513  13.762  14.039   0.428 -0.2612 -0.1413  0.1436
28310W        W46514  13.444  11.470  11.267 -0.1445 -0.3394  0.1756
28311W        W46515   7.014  11.388   3.628 -0.2296  0.1889 -0.0528
28312W        W46516  11.747  17.829  15.025 -0.1071 -0.0900  0.0101
28313W        W46517   7.987  11.242   3.803  0.1207  0.4051 -0.2811
28314W        W46518   0.811   3.181  11.697  0.1667  0.1990  0.2322
28315W        W46519  13.027  14.413  12.858  0.0466  0.2398  0.1598
28316W        W46520   5.746  12.894  11.755 -0.1741  0.1959 -0.1592
28317W        W46521   0.211   9.256   1.508 -0.1686 -0.1147  0.2094
28318W        W46522   8.963   0.389   1.272 -0.1987  0.0142 -0.2313
28319W        W46523   9.811   9.784  11.526 -0.0796  0.4298 -0.2143
28320W        W46524   2.665  14.542   2.190  0.0225  0.0605  0.0635
28321W        W46525  17.844   0.539  11.320  0.2821 -0.2755 -0.0779
28322W        W46526  16.285   0.039   0.602  0.0420 -0.1354  0.0882
28323W        W46527   5.680   0.142  14.267 -0.0207 -0.3188 -0.2670
28324W        W46528   0.424   0.628  14.321  0.2062 -0.1404 -0.3750
28325W        W46529   5.590   5.819   2.334 -0.0489  0.0284 -0.0574
28326W        W46530   0.906   2.158   3.885 -0.1458 -0.2467 -0.0304
28327W        W46531   6.886   1.103   3.966  0.3328  0.2243 -0.1221
28328W        W46532  12.833   8.988   3.265 -0.0011  0.3621  0.0837
28329W        W46533  14.768   3.046   0.654  0.0429 -0.1239  0.0429
28330W        W46534   4.575  16.038  14.456  0.1160  0.1854 -0.1314
28331W        W46535   7.442   4.134   3.890 -0.0398  0.2281 -0.1835
28332W        W46536   7.855   7.073   3.057 -0.2023 -0.1204  0.1297
28333W        W46537  16.990  15.886   0.495 -0.0567  0.3608  0.1120
28334W        W46538  15.319  17.229   0.806 -0.0347  0.4357 -0.0719
28335W        W46539   0.353  14.165  11.392  0.1600 -0.1980  0.2201
28336W        W46540  17.281   6.218  12.048  0.3098 -0.2105 -0.0342
28337W        W46541   9.513  10.210   0.761  0.0243  0.4626 -0.1686
28338W        W46542   2.150  11.352   1.927 -0.2367  0.2144 -0.2114
28339W        W46543   3.649   7.127  11.992 -0.1990  0.0630 -0.0732
28340W        W46544  11.437   5.024   2.221 -0.0880 -0.3190  0.0579
28341W        W46545   2.627   4.966   2.179 -0.0509 -0.1241 -0.0310
28342W        W46546   4.415   4.539   1.614 -0.1213 -0.0626 -0.0526
28343W        W46547   8.407  12.625   2.707 -0.2201 -0.1063  0.0187
28344W        W46548   6.309  12.442   2.019  0.0203 -0.0987  0.1240
28345W        W46549   3.824  18.392  15.117  0.1252  0.0459 -0.0739
28346W        W46550  11.133  16.208  13.575 -0.1069  0.2657 -0.4251
28347W        W46551   0.468  12.619   1.739  0.1706 -0.3341 -0.0525
28348W        W46552  13.541  13.891  12.166 -0.1070  0.0275 -0.1178
28349W        W46553  10.863  14.923  11.545  0.1638  0.0673 -0.1468
28350W        W46554   7.512   4.777   1.202 -0.0848 -0.2757  0.0936
28351W        W46555   0.932   1.514  12.228  0.1032 -0.0043  0.0032
28352W        W46556  18.262   7.266  13.644 -0.2692  0.2076  0.2151
28353W        W46557  15.515   8.553   3.415  0.0814 -0.4371  0.1911
28354W        W46558  12.777  14.234   1.375 -0.0055  0.3447  0.0326
28355W        W46559   7.879   5.130  14.576 -0.0383 -0.0587 -0.3088
28356W        W46560   4.608  16.101   2.168  0.2016  0.2925 -0.0925
28357W        W46561   8.204  18.448   2.649 -0.0411 -0.1610 -0.0144
28358W        W46562   0.579  17.197  12.007  0.1708 -0.2461 -0.2118
28359W        W46563  14.847   4.060   1.599 -0.2788 -0.1183 -0.1472
28360W        W46564  17.930   7.631   3.679  0.1898 -0.3234 -0.1364
28361W        W46565   9.859  10.799  14.261 -0.1095  0.3717 -0.2285
28362W        W46566   1.759   5.639   4.769  0.1631 -0.1103  0.0335
28363W        W46567   3.620   8.220   2.263  0.1268  0.2405  0.0838
28364W        W46568   1.546  15.325   1.563  0.0829  0.0576 -0.1970
28365W        W46569   9.095   7.895   0.728 -0.2468  0.2040  0.0093
28366W        W46570  10.585  12.561   3.356 -0.1770  0.2650  0.0462
28367W        W46571   7.784  18.264  11.101  0.0178  0.0814  0.1334
28368W        W46572   8.930  11.666   3.835  0.2961 -0.0019 -0.2302
28369W        W46573  16.007   8.521   4.784 -0.2371  0.2095  0.0553
28370W        W46574  15.449   3.717  13.362 -0.0696 -0.0363 -0.0241
28371W        W46575  16.210   9.656   4.268  0.3186  0.1692  0.4934
28372W        W46576   8.564   8.157   1.197 -0.0390 -0.2455 -0.4481
28373W        W46577  12.576   4.662   2.012 -0.2032 -0.0250 -0.2467
28374W        W46578  12.262   0.782   2.881 -0.0496 -0.2469  0.0385
28375W        W46579  14.106   5.201  12.405  0.0431  0.1013  0.0112
28376W        W46580   6.565   9.556   0.555 -0.3076 -0.1821  0.0584
28377W        W46581  11.867   2.419   2.502 -0.1034  0.2234  0.0782
28378W        W46582   6.017  10.427   3.995  0.0849 -0.0347  0.3625
28379W        W46583  14.854   3.969  11.369  0.0501  0.0159 -0.2313
28380W        W46584   1.849   6.458   0.579 -0.0376  0.1880  0.3258
28381W        W46585   7.898  13.668   4.513 -0.1502 -0.0498 -0.3269
28382W        W46586   5.154   2.013   2.250  0.1034 -0.3173 -0.1445
28383W        W46587  15.901  10.837   3.891  0.0407  0.2557 -0.1455
28384W        W46588   8.751   2.073   4.339 -0.0844 -0.1063 -0.0006
28385W        W46589   4.574   1.695  12.787 -0.3961  0.0658 -0.3470
28386W        W46590  11.964  18.292  11.911 -0.3739 -0.0449  0.2793
28387W        W46591   2.261   6.227  12.073  0.0631  0.1619 -0.1146
28388W        W46592  14.981   5.651   3.030 -0.1054 -0.2361 -0.3065
28389W        W46593   3.918  15.224   0.282  0.1515  0.1817 -0.0796
28390W        W46594  15.059   1.889  10.729 -0.3371  0.0517 -0.2421
28391W        W46595  11.612  15.465  14.962  0.0277  0.3847 -0.0326
28392W        W46596   8.761   2.264  11.155  0.0210 -0.1113 -0.0080
28393W        W46597   6.762   8.913  14.897 -0.0110  0.0509  0.0768
28394W        W46598  10.390  14.115   2.864 -0.0076  0.1185  0.2643
28395W        W46599   7.809   1.642  11.660 -0.0754 -0.1313 -0.1441
28396W        W46600   0.829   5.871  12.833  0.0520 -0.1941 -0.1498
28397W        W46601   7.205  14.060   1.911  0.1666  0.1061 -0.0847
28398W        W46602  15.788  12.958  12.525  0.2819 -0.2849 -0.1637
28399W        W46603  14.359  15.552  12.612 -0.0392  0.3218 -0.2804
28400W        W46604  12.296   6.281  13.703  0.1690 -0.2567 -0.0926
28401W        W46605  10.374  12.692  12.892  0.1764  0.0476  0.0002
28402W        W46606   8.389   6.222   1.983  0.1655  0.1033 -0.5363
28403W        W46607   0.895   4.264  13.129  0.0201 -0.1944 -0.1194
28404W        W46608  10.588   3.088  12.684  0.1229 -0.0539  0.0086
28405W        W46609   0.198  13.797   3.095  0.1262  0.0131 -0.0420
28406W        W46610   1.654  15.359  13.652  0.0210  0.2665 -0.2398
28407W        W46611  15.189  15.733   3.066  0.0121 -0.0144  0.2070
28408W        W46612   5.740  15.848  15.337  0.0111 -0.1455 -0.0319
28409W        W46613   2.938  13.036  10.948  0.1761 -0.0598  0.1668
28410W        W46614  15.118  11.570   3.931 -0.1361  0.0964  0.2882
28411W        W46615  17.757  10.123  12.160  0.1377 -0.0645  0.0152
28412W        W46616  15.046   0.390   3.511 -0.3328  0.0400  0.1032
28413W        W46617   3.191   4.039   0.980  0.1134  0.0569 -0.1895
28414W        W46618   2.607  12.691   4.021  0.2098  0.1317  0.1617
28415W        W46619  13.953   8.187  11.800  0.1873  0.1773 -0.0733
28416W        W46620  16.797   0.333   2.535  0.0967  0.0637  0.0449
28417W        W46621  15.336  12.642  14.413 -0.0059 -0.1592  0.0940
28418W        W46622   6.789  13.708   2.125  0.1950  0.0449 -0.2603
28419W        W46623   8.456   6.663   2.669  0.4809 -0.0831 -0.0491
28420W        W46624  17.870   4.844  14.711  0.0461 -0.1171  0.1474
28421W        W46625   0.860   0.534   3.414 -0.2160  0.0499 -0.2955
28422W        W46626   0.786   6.523  11.046  0.3865  0.0521 -0.2801
28423W        W46627   8.107   2.864   2.702 -0.1533  0.2097 -0.1021
28424W        W46628   6.609  16.022   0.741 -0.0875  0.0933  0.1339
28425W        W46629  11.707   9.458   1.885 -0.3152  0.4214 -0.2287
28426W        W46630   0.920   0.032  14.668 -0.0039 -0.0458  0.0176
28427W        W46631   7.585   9.593  13.052  0.0693  0.0135 -0.0280
28428W        W46632  13.882  17.202   4.888 -0.3778  0.1232 -0.0941
28429W        W46633   5.977  16.203  12.997  0.0592 -0.0263  0.0244
28430W        W46634   7.152  11.122  11.739 -0.0523  0.0256 -0.1835
28431W        W46635   5.360   7.840  13.967 -0.2155 -0.0450  0.1035
28432W        W46636   4.279  15.345   3.788 -0.0210 -0.0791  0.1766
28433W        W46637   9.466   0.706  11.176  0.2383 -0.3135  0.0633
28434W        W46638  12.463   9.525  11.875 -0.0568  0.0351 -0.0827
28435W        W46639  14.181  16.127   4.315  0.0591 -0.3728 -0.0112
28436W        W46640  13.592  10.520  11.074  0.0883  0.1801  0.0762
28437W        W46641  14.567   6.629  15.166 -0.0367  0.1154 -0.0254
28438W        W46642  14.621   1.727  14.369 -0.1538 -0.0390 -0.2996
28439W        W46643  12.413   5.027   1.050 -0.0661  0.0300 -0.2428
28440W        W46644   4.776   0.025  15.310  0.2895 -0.1866  0.1442
28441W        W46645   7.421   2.602   2.729 -0.1051  0.1104  0.0539
28442W        W46646   1.922  15.552   1.339  0.1315 -0.2224 -0.1618
28443W        W46647  15.449  10.184   1.312  0.1529 -0.1797 -0.1157
28444W        W46648   9.895   9.457   0.493 -0.2291  0.0724 -0.2044
28445W        W46649   7.807  15.653   0.552  0.0202  0.2748  0.0326
28446W        W46650   1.190   3.381  11.423 -0.0553  0.0851 -0.0499
28447W        W46651  12.881  12.584  13.409 -0.3016  0.0686 -0.1494
28448W        W46652  14.995  13.383  12.091 -0.0572 -0.0460  0.1275
28449W        W46653  14.876   4.079   2.177  0.0129  0.0900 -0.1486
28450W        W46654   3.343  10.037  10.201 -0.3029 -0.2376  0.3394
28451W        W46655  10.346   0.029  13.607 -0.2397 -0.2396 -0.1696
28452W        W46656   8.419   6.102   2.899 -0.1682 -0.0354 -0.1563
28453W        W46657   3.614  15.385  13.128 -0.4036 -0.1086  0.0985
28454W        W46658   0.309   9.281  12.200  0.1165  0.2454 -0.0871
28455W        W46659  14.481   7.205   0.803  0.4549  0.0076 -0.3190
28456W        W46660  12.557  16.651  15.324  0.1434  0.3015 -0.0594
28457W        W46661  18.524  16.526   1.235  0.0898 -0.1198 -0.0963
28458W        W46662   6.076  17.368   2.785 -0.0003 -0.3208  0.0743
28459W        W46663   4.660   8.036  10.953 -0.0936 -0.0255 -0.1790
28460W        W46664   3.682   1.753   3.461  0.1588 -0.2679 -0.1157
28461W        W46665  10.076   7.726   2.376 -0.1894  0.0161  0.0662
28462W        W46666  11.466  13.025   4.392  0.0403 -0.3524  0.0525
28463W        W46667   7.275  15.573  13.046  0.3083  0.1740  0.1003
28464W        W46668   2.041   5.478   1.993 -0.0348 -0.1030 -0.1928
28465W        W46669  17.339   2.218  14.566  0.1395 -0.0270 -0.0399
28466W        W46670   8.192   4.286  11.227  0.0649 -0.0915  0.0744
28467W        W46671  15.869   8.298  14.025  0.0289 -0.0220  0.4344
28468W        W46672  11.421  18.304   4.655 -0.2306 -0.1050  0.2597
28469W        W46673   7.255   5.707  11.386 -0.1531 -0.0171 -0.0277
28470W        W46674   6.098   3.626  11.423  0.0170 -0.2139 -0.0830
28471W        W46675   5.175  17.247  12.312  0.0913  0.1029  0.0685
28472W        W46676   2.356   7.551  11.755 -0.1476 -0.2800 -0.2976
28473W        W46677  18.280   1.202   3.690 -0.3516 -0.5055  0.2803
28474W        W46678   0.706   2.449   0.489 -0.2510  0.1525 -0.0857
28475W        W46679  10.050  12.866   1.434  0.0200 -0.0392 -0.4154
28476W        W46680  16.415   8.249  14.302  0.1200 -0.0926  0.0926
28477W        W46681   5.976   2.723   3.850 -0.1274 -0.0847  0.0702
28478W        W46682  13.276   2.338  15.250 -0.6020  0.1476 -0.0284
28479W        W46683   9.944  10.181   3.090 -0.1114 -0.0893 -0.1753
28480W        W46684   3.172   2.687  12.152  0.0571 -0.2265  0.0084
28481W        W46685  10.727  14.687   4.075 -0.2164  0.0502 -0.2316
28482W        W46686   5.662  10.295  15.314  0.0693  0.4260 -0.0760
28483W        W46687   0.379  11.953   3.812  0.1720 -0.1761  0.1682
28484W        W46688  15.583  13.356  13.127 -0.0893  0.1181 -0.1656
28485W        W46689  16.161   1.464  11.491  0.0705 -0.1479 -0.2588
28486W        W46690   1.786  14.088  13.553  0.0761 -0.0496  0.2978
28487W        W46691   3.509  15.990  12.054 -0.1664 -0.3120 -0.1376
28488W        W46692   4.272  14.108   3.770 -0.0500 -0.0563  0.1290
28489W        W46693  11.742   2.748   0.246 -0.0710  0.0500 -0.3416
28490W        W46694   8.361  12.544   0.287  0.1004  0.2628 -0.0733
28491W        W46695   8.948  14.668  15.339 -0.2335  0.0055  0.4187
28492W        W46696  18.052   8.018   9.979  0.3819  0.3767  0.1993
28493W        W46697   3.788  18.429  13.248 -0.1159 -0.1260  0.0514
28494W        W46698   5.794  15.860   1.807  0.1415 -0.0663 -0.1018
28495W        W46699  18.261  16.929   3.250  0.2134 -0.1549 -0.1921
28496W        W46700  13.650   7.786  13.325  0.1970  0.1384 -0.1356
28497W        W46701  10.354  10.592  12.577  0.1870  0.0260 -0.0637
28498W        W46702   1.122   8.531  10.442 -0.0947  0.1719 -0.0234
28499W        W46703  12.456  10.548  11.340 -0.0627 -0.0581 -0.0723
28500W        W46704   3.027   8.789   3.320  0.2200  0.2163  0.2791
28501W        W46705   9.411   9.295  11.924  0.1178  0.0083 -0.1373
28502W        W46706  14.166   8.986  10.898  0.2158  0.1853 -0.0458
28503W        W46707   8.619  16.169  14.223  0.0736  0.2069 -0.1732
28504W        W46708   7.759  11.332  14.012 -0.1428  0.0439 -0.3811
28505W        W46709  14.048  15.203  12.243 -0.1669  0.1795 -0.3055
28506W        W46710  14.443  18.455   0.128 -0.1501  0.1148 -0.0775
28507W        W46711   6.644   6.727  13.199 -0.2309 -0.1993 -0.1161
28508W        W46712  17.697   1.308  14.436 -0.0410 -0.1333  0.2088
28509W        W46713  14.277   7.545  12.513 -0.1846 -0.2665 -0.2328
28510W        W46714   6.104  10.283   2.871  0.0295  0.2398  0.0486
28511W        W46715   9.749   2.802   1.395 -0.5025  0.1150 -0.1346
28512W        W46716   5.109   6.937  14.058 -0.1260 -0.4157 -0.2697
28513W        W46717   8.172  10.130  11.958 -0.0972  0.2755  0.1030
28514W        W46718  13.215   6.071   1.574 -0.1641  0.3221  0.2628
28515W        W46719   5.470  12.855   5.873 -0.0154  0.1938  0.0368
28516W        W46720  11.730  13.041  12.182  0.0606  0.0934 -0.3586
28517W        W46721   9.083   8.819  13.425  0.1530  0.0355  0.4561
28518W        W46722   3.122   4.451   1.607  0.1557 -0.0615  0.1186
28519W        W46723   3.486   3.986   3.047 -0.0242 -0.2817  0.1297
28520W        W46724   2.400   1.841  14.424  0.0394  0.0724 -0.0092
28521W        W46725   6.197   4.219   4.481 -0.0417  0.1682  0.0399
28522W        W46726   2.003  12.031   4.551  0.3875 -0.3680 -0.0506
28523W        W46727   1.393   0.162   1.196  0.0732  0.1022 -0.0807
28524W        W46728  17.617  17.992  14.884  0.0378 -0.1589 -0.1082
28525W        W46729   6.875  13.429  12.885 -0.0344  0.3292  0.1553
28526W        W46730   8.467   4.517   2.020 -0.1283  0.1353  0.2390
28527W        W46731   9.352  13.206  14.156  0.0092  0.0130  0.3335
28528W        W46732   6.716  13.922   5.227  0.2419  0.2657 -0.0131
28529W        W46733  14.817   7.657  12.502 -0.8395 -0.1941  0.1534
28530W        W46734  11.903  15.814   1.825  0.2867  0.2794 -0.1381
28531W        W46735  10.046  15.317  13.413  0.1468 -0.0686  0.1609
28532W        W46736  10.288  15.650   4.670 -0.1518 -0.1763 -0.0363
28533W        W46737  10.373  17.919   1.332  0.1359  0.1752  0.2927
28534W        W46738   3.496   2.217   0.851  0.3798  0.0911 -0.0963
28535W        W46739   5.976   5.288   5.066 -0.0623 -0.3257 -0.0539
28536W        W46740  16.839  11.979   1.078  0.0967  0.0887  0.1693
28537W        W46741   4.270   7.487  14.573 -0.0700 -0.4087 -0.1398
28538W        W46742  13.213  17.191  14.320 -0.2382  0.1440 -0.0602
28539W        W46743   5.521   1.021   0.462  0.2608 -0.0429 -0.0194
28540W        W46744  16.911  12.538   3.869 -0.0988  0.1914 -0.4463
28541W        W46745  16.126   4.558   5.089  0.0094  0.1845  0.3652
28542W        W46746   4.409  17.096  14.449 -0.1194  0.0287 -0.2941
28543W        W46747  11.943   6.615   4.050  0.1157  0.0854 -0.1920
28544W        W46748   2.411  15.221   4.719 -0.1535 -0.1069  0.0222
28545W        W46749  12.696  17.070  11.986  0.4701  0.0983 -0.0020
28546W        W46750   9.344  14.517  12.742  0.0985  0.1028 -0.2323
28547W        W46751   7.702  17.283   2.818 -0.4189  0.0086  0.1549
28548W        W46752   3.406  16.828  14.108 -0.4003 -0.2477  0.2077
28549W        W46753  12.602   3.208  14.349 -0.0137 -0.0468 -0.2076
28550W        W46754   0.194  12.894  14.636  0.1654 -0.3301 -0.0541
28551W        W46755  10.793   1.174  11.168  0.0972  0.0384  0.0886
28552W        W46756   0.272  14.924  14.721 -0.0999  0.1607 -0.0947
28553W        W46757   7.773  18.419   0.906 -0.1484 -0.0648  0.2007
28554W        W46758  13.354   9.441  11.803 -0.0712 -0.0024 -0.0618
28555W        W46759   6.383  14.815   4.310 -0.2111  0.2852  0.1314
28556W        W46760   9.815   7.002  13.335 -0.1269  0.0347 -0.2687
28557W        W46761   9.894  11.387  12.253  0.2331 -0.1148  0.0843
28558W        W46762   6.398   2.225   4.351  0.3110 -0.0321 -0.0045
28559W        W46763   2.982  16.891  10.923  0.0305  0.1272 -0.1295
28560W        W46764   3.996  18.154  11.115 -0.1383  0.3647  0.3011
28561W        W46765  14.942   7.590   5.955 -0.1581  0.1777  0.2670
28562W        W46766   8.715  15.800  14.994 -0.0371  0.0637  0.0944
28563W        W46767  13.046   0.265  14.496 -0.0169 -0.1012  0.2087
28564W        W46768  11.908   9.448  10.708  0.3238  0.1375 -0.0156
28565W        W46769   0.096  13.692   2.036 -0.1128 -0.0533  0.0098
28566W        W46770  15.541  13.578  14.149  0.0712 -0.1453  0.2755
28567W        W46771  11.008   7.196  14.029 -0.2416 -0.3248  0.0548
28568W        W46772  13.344  11.657   0.665  0.0279  0.0945 -0.0133
28569W        W46773  14.573   2.841   1.534  0.1343  0.0805  0.0523
28570W        W46774  11.881  11.954   9.825  0.0424 -0.0571  0.0465
28571W        W46775   6.419   1.892   1.903  0.0576  0.1900 -0.0242
28572W        W46776   6.770  17.837   2.935  0.0402 -0.0132 -0.2008
28573W        W46777   6.457  17.518   2.516 -0.0807 -0.0328  0.0745
28574W        W46778  17.094  13.287  15.049  0.3792 -0.1760 -0.2052
28575W        W46779   5.076   1.476   1.068 -0.3704 -0.1324  0.2288
28576W        W46780  11.674   6.149  12.375 -0.1216 -0.3081  0.0309
28577W        W46781   6.912   9.117  14.239  0.0699 -0.5295  0.0399
28578W        W46782  10.886  14.061  12.183 -0.0166  0.3590  0.3369
28579W        W46783   7.393   1.884   4.137 -0.0196 -0.0835  0.1013
28580W        W46784  16.453   8.325   4.618  0.0432  0.1454  0.1932
28581W        W46785   6.697   2.905   2.283  0.0401 -0.0240  0.1745
28582W        W46786  11.256   6.768  14.788  0.2477  0.0100  0.2111
28583W        W46787   9.502   5.819   1.502 -0.2991 -0.0188 -0.0437
28584W        W46788  10.771   1.828  12.800 -0.2818 -0.3991  0.0925
28585W        W46789   7.733  13.172  13.808  0.2720  0.2938 -0.1554
28586W        W46790   0.557  11.572   0.804 -0.0211 -0.2233  0.0856
28587W        W46791  14.759   6.959   2.525  0.0491  0.0485 -0.0165
28588W        W46792   7.667  10.550  10.505 -0.2622 -0.3034  0.1483
28589W        W46793   9.235   4.272  11.227  0.1025  0.0733 -0.0025
28590W        W46794   8.901   6.009   2.139 -0.0306 -0.0153  0.1442
28591W        W46795  13.929  13.313   2.532 -0.1288  0.0393  0.0006
28592W        W46796  12.877  11.739   4.469  0.0092  0.1227  0.0904
28593W        W46797   1.680   5.034   0.686  0.0506 -0.0490 -0.0863
28594W        W46798   3.504   5.058   1.843  0.2235  0.1270  0.1022
28595W        W46799   8.797   1.773   2.496  0.1301 -0.0801 -0.0899
28596W        W46800  15.511   3.738   4.189 -0.1603  0.3042 -0.1095
28597W        W46801  13.356  17.938  13.444  0.0502  0.2403 -0.0281
28598W        W46802  10.995  16.697  10.591 -0.0717 -0.0673  0.1416
28599W        W46803  10.280  10.000  13.944  0.2590  0.3459 -0.1379
28600W        W46804   1.287   4.012   3.858 -0.1270 -0.0558  0.0108
28601W        W46805  11.544   3.007  10.799  0.0502 -0.2598  0.0533
28602W        W46806  12.616  18.544   4.191  0.1641  0.0351  0.0347
28603W        W46807   3.406  11.012  13.243  0.4446  0.0580  0.1306
28604W        W46808   3.697   4.729  12.811 -0.0781  0.0053  0.0880
28605W        W46809   9.649   1.524  15.424  0.0265 -0.0354 -0.0148
28606W        W46810   9.546  17.193  10.015 -0.0442 -0.0614  0.1089
28607W        W46811  14.245   7.204  11.232 -0.1124  0.0150  0.1668
28608W        W46812  18.199  18.015  12.564  0.0608 -0.1435 -0.1062
28609W        W46813  11.906  12.001  11.864  0.1884  0.2381 -0.1754
28610W        W46814   4.494   6.974   1.682 -0.2456 -0.1217 -0.0148
28611W        W46815  10.577   7.294  12.732  0.0332 -0.0728  0.1472
28612W        W46816   1.484  10.135  12.648 -0.2140 -0.0351 -0.2700
28613W        W46817  14.455  10.864   3.565 -0.0902 -0.5014 -0.1264
28614W        W46818   1.051  12.247   3.125 -0.2533 -0.1125  0.1562
28615W        W46819   6.492   3.869   0.470 -0.0406  0.1170 -0.3184
28616W        W46820   4.246  13.834  14.981  0.1379  0.1470  0.1592
28617W        W46821  15.001  15.035   0.320  0.0221 -0.0321  0.2968
28618W        W46822   6.326  17.993   1.698 -0.0160  0.0372  0.0506
28619W        W46823   2.199  17.645   0.300  0.1620 -0.0878 -0.3544
28620W        W46824   2.250   1.382   0.794 -0.1630  0.0073 -0.1354
28621W        W46825   4.046  16.316   2.089  0.2752  0.3889 -0.1355
28622W        W46826  13.782  12.204  11.433  0.0253  0.0211 -0.1161
28623W        W46827  15.115  16.966   1.609 -0.1249  0.0313 -0.1692
28624W        W46828   4.658  16.881   4.455  0.1683 -0.2804 -0.2662
28625W        W46829   9.236   1.139   4.376 -0.1097  0.1035 -0.0100
28626W        W46830  17.636   2.548   3.186  0.1106  0.1411  0.1820
28627W        W46831  16.506  11.340   4.476  0.1776  0.1337 -0.0050
28628W        W46832   1.408   6.558  12.731  0.2248 -0.0869  0.0443
28629W        W46833   9.916  13.560   4.277  0.1269 -0.2272  0.2590
28630W        W46834   7.004   3.109   0.923 -0.1679  0.0039  0.3011
28631W        W46835  10.820   7.198   0.008 -0.1273  0.0368 -0.2177
28632W        W46836  15.037   3.357   5.435  0.2218 -0.1375  0.0900
28633W        W46837   2.799   4.218   1.280 -0.1181  0.0729 -0.0283
28634W        W46838  14.613   0.042  12.843 -0.0075 -0.0015 -0.2148
28635W        W46839   6.219  15.531   2.271  0.0089 -0.0710  0.0507
28636W        W46840   4.749  15.835  14.013  0.1381  0.0149  0.2416
28637W        W46841  11.870   3.315   3.993 -0.1298 -0.0744 -0.0236
28638W        W46842  16.477   6.513  13.077 -0.3945  0.0130 -0.2257
28639W        W46843   4.913   7.522   2.585  0.0635  0.0233  0.0072
28640W        W46844   4.992  12.585  15.234  0.3212  0.2237 -0.3335
28641W        W46845   2.747  11.433  12.034 -0.0002  0.0853 -0.3038
28642W        W46846   8.113  11.707  13.021 -0.0484  0.0634 -0.0189
28643W        W46847  10.831  13.679   4.048  0.0400 -0.0537  0.0269
28644W        W46848   9.457  14.673  14.746  0.2345 -0.1130 -0.0027
28645W        W46849   8.484  11.702   2.582  0.3821 -0.2630  0.1583
28646W        W46850  16.738   6.234   2.882 -0.0675 -0.0136 -0.0233
28647W        W46851  13.555  14.691  14.090  0.0249 -0.1043 -0.0345
28648W        W46852  18.133   7.894   1.803 -0.0219  0.0408  0.1360
28649W        W46853   3.272  10.225  12.344  0.3029 -0.2346 -0.1149
28650W        W46854  18.231   6.618  10.756 -0.3585 -0.0659 -0.0997
28651W        W46855   4.657  15.441   2.094 -0.2230 -0.0413 -0.2248
28652W        W46856   3.483  12.364  13.360 -0.1890  0.0971  0.2919
28653W        W46857   0.009   0.106   2.752  0.0355 -0.0568  0.1381
28654W        W46858  17.628  17.922   4.866  0.2183  0.3080  0.2211
28655W        W46859  14.636   2.271  13.005 -0.0104  0.0957 -0.3482
28656W        W46860  15.243  13.730  13.301 -0.2154 -0.2719 -0.1712
28657W        W46861   5.701   7.971  12.012 -0.0270 -0.0338 -0.1018
28658W        W46862   1.601   8.171  11.262 -0.0056 -0.0262  0.3872
28659W        W46863  17.814   0.113   3.935  0.1323 -0.0585  0.1616
28660W        W46864   3.908   3.875   2.006 -0.3626  0.0716  0.0377
28661W        W46865  11.008   6.386   3.914  0.0917 -0.0303  0.1509
28662W        W46866   0.210   2.034   3.299 -0.1347  0.2813 -0.1678
28663W        W46867   3.135  16.630   1.353  0.0005 -0.2221 -0.3195
28664W        W46868   0.041  12.838   1.454 -0.2226  0.0887 -0.2214
28665W        W46869   5.561   3.458  13.603  0.0943  0.0538 -0.2745
28666W        W46870  10.658  14.614   9.954  0.1034 -0.0423  0.1136
28667W        W46871  10.935  14.540   2.172 -0.1901 -0.1704  0.1740
28668W        W46872  12.920  18.199   3.910  0.1101 -0.1148  0.1933
28669W        W46873   9.361   4.974  14.774 -0.2597  0.2243 -0.3361
28670W        W46874   1.219  18.025  15.091  0.1765 -0.1605  0.0907
28671W        W46875   4.709   1.897   4.503 -0.1206 -0.2098 -0.0206
28672W        W46876   8.466  10.501   0.727 -0.0046  0.0256 -0.0411
28673W        W46877  11.470   2.522  10.812  0.0054  0.0333  0.1252
28674W        W46878   5.492  13.718   1.885 -0.1328 -0.0541 -0.4047
28675W        W46879   7.835  10.583   3.457 -0.0027  0.2974 -0.1922
28676W        W46880   9.016  10.488   0.938 -0.1138  0.0591 -0.0849
28677W        W46881   2.347  16.106  10.163  0.0203 -0.1684 -0.0326
28678W        W46882   3.962   3.782   2.683 -0.1333 -0.1831 -0.4062
28679W        W46883   9.061  10.606  12.326 -0.0543  0.1627  0.1170
28680W        W46884   4.464  12.335  11.304 -0.0006  0.1512  0.3137
28681W        W46885   9.701   6.730  12.221  0.3001  0.1254 -0.2435
28682W        W46886  18.514   5.740  14.022 -0.3073 -0.4517  0.0419
28683W        W46887   3.074   8.891   0.219 -0.2088  0.0447 -0.1916
28684W        W46888  14.336   2.811   0.456  0.0204  0.0395 -0.2063
28685W        W46889   6.015  13.960   0.347 -0.2287 -0.2516  0.0348
28686W        W46890   3.940  17.467  15.226 -0.1318  0.4409  0.0283
28687W        W46891   7.575  14.731   2.577 -0.0710  0.4344 -0.0047
28688W        W46892   1.603   7.924  14.763  0.1855 -0.0268 -0.1166
28689W        W46893  15.664   1.961  11.677 -0.0121  0.3600 -0.0655
28690W        W46894  15.807  14.667  12.921 -0.1675  0.1754 -0.1082
28691W        W46895   3.025   8.098  14.390  0.0648 -0.1655  0.3359
28692W        W46896   6.458  12.590  14.165 -0.1966 -0.0588  0.0710
28693W        W46897  13.695  17.401  14.591  0.0872  0.0234 -0.1688
28694W        W46898  16.057   8.490  14.528  0.0708  0.4468 -0.0972
28695W        W46899   6.308  12.073   2.878  0.5795  0.1607  0.1091
28696W        W46900   1.178  14.561  15.312  0.2018 -0.1935  0.0698
28697W        W46901  16.482   8.252   4.089  0.1654 -0.3305  0.0844
28698W        W46902  17.390   5.206   0.972  0.1329 -0.4335 -0.0864
28699W        W46903  13.880   9.457  13.189 -0.0148  0.1327 -0.0757
28700W        W46904  16.876  15.992   1.381 -0.0369  0.1748 -0.1312
28701W        W46905   3.966   8.037  12.203  0.0090  0.0648  0.3229
28702W        W46906   1.076   6.025   3.108  0.1207  0.0145 -0.3388
28703W        W46907   8.883  16.995  13.437 -0.2859 -0.0733 -0.3295
28704W        W46908   9.042  16.890  13.923  0.1192  0.1820 -0.3513
28705W        W46909   3.530   2.956  15.246 -0.0217 -0.1268  0.3271
28706W        W46910  16.638  11.181   3.679  0.0742  0.2841 -0.1999
28707W        W46911   6.083  18.568  14.764  0.0362 -0.1877  0.2164
28708W        W46912  12.239  15.443  11.374  0.2051 -0.1328 -0.4182
28709W        W46913  10.636   7.056  13.220 -0.2602  0.1796 -0.0391
28710W        W46914   4.019  17.789   4.438  0.0445 -0.1198  0.2375
28711W        W46915  17.877  12.959   0.897 -0.1155 -0.0749 -0.0823
28712W        W46916   0.197   5.848  10.829 -0.0067 -0.1064  0.0602
28713W        W46917   8.364  16.801   4.386  0.0167 -0.1130 -0.0969
28714W        W46918  15.401   9.280   3.840  0.0759  0.1057  0.2164
28715W        W46919  13.269  13.415   1.166 -0.2026 -0.0261  0.0451
28716W        W46920   7.311   7.546  12.022  0.2703 -0.0190 -0.3124
28717W        W46921  10.763  11.938  12.148  0.2408 -0.3323 -0.2775
28718W        W46922   5.807   9.082   1.256 -0.1089 -0.2044 -0.2036
28719W        W46923   5.679   3.874  15.153 -0.1821 -0.0140 -0.2506
28720W        W46924   2.733   0.240   2.643 -0.1160 -0.0578  0.1857
28721W        W46925  12.481  13.779   1.014 -0.2933 -0.0437  0.2232
28722W        W46926   9.157  16.085  13.567 -0.0011  0.0128 -0.0158
28723W        W46927  17.164   3.633   3.370  0.2168  0.2205 -0.3875
28724W        W46928   7.058  16.609   4.349 -0.1659 -0.0031  0.3681
28725W        W46929  17.488   0.730  10.276  0.0888  0.3357  0.1297
28726W        W46930  15.567   3.080  10.993  0.1321  0.0816 -0.0414
28727W        W46931  13.889   1.836  11.138  0.1586 -0.2649  0.1390
28728W        W46932  15.957  15.804  13.883 -0.2410  0.1536 -0.2011
28729W        W46933  18.369  16.173   3.241  0.0920  0.2594  0.1414
28730W        W46934  18.591   0.607  14.607  0.2074 -0.1945  0.0165
28731W        W46935  11.666  16.727   3.838 -0.1999  0.1713  0.1244
28732W        W46936  18.438   3.738  13.875  0.1840 -0.1451 -0.0634
28733W        W46937  13.457   1.785  11.868 -0.3637  0.0134 -0.0465
28734W        W46938  11.231   9.306  12.448 -0.2917 -0.0632  0.0074
28735W        W46939  11.024  16.008   1.782 -0.0809 -0.0436 -0.1981
28736W        W46940  11.830  16.221   0.122 -0.0358  0.3345 -0.1315
28737W        W46941  17.213   4.194  11.780 -0.1054 -0.0202  0.0484
28738W        W46942   3.519   9.963  15.292 -0.3412  0.1071 -0.3371
28739W        W46943   4.119   3.474   4.857 -0.2287 -0.2083  0.4138
28740W        W46944   3.518  16.462   2.941 -0.0669  0.0135 -0.0240
28741W        W46945  16.869   8.446   0.058  0.3044  0.2790  0.1008
28742W        W46946  12.245   1.040   4.367 -0.0068 -0.0292 -0.0589
28743W        W46947   5.848  12.990  12.313 -0.1145  0.0046 -0.3892
28744W        W46948   4.233   1.690  12.406 -0.0877 -0.0312 -0.2691
28745W        W46949   3.547   7.544   4.634 -0.0943  0.3163 -0.0773
28746W        W46950  10.709   6.209   1.703 -0.0993  0.2349 -0.1610
28747W        W46951  15.089   5.734   0.610 -0.2775 -0.0890  0.1103
28748W        W46952  17.684   1.219   2.624  0.0561  0.0979 -0.1588
28749W        W46953  10.100   0.345  11.676  0.0095  0.1683 -0.1166
28750W        W46954   9.559  10.904   1.554 -0.0078  0.3031  0.3240
28751W        W46955  15.409  11.352  14.664  0.0765  0.0719 -0.2346
28752W        W46956  15.515   0.110   5.196 -0.1310  0.1304 -0.2456
28753W        W46957   4.223  18.564  15.325 -0.0821 -0.0216  0.1153
28754W        W46958   3.131  16.278  11.684  0.1926 -0.1930  0.0691
28755W        W46959   5.821   2.803   1.796 -0.0472  0.1943  0.1635
28756W        W46960   5.497  17.870  13.929 -0.2961  0.0542  0.2398
28757W        W46961  13.787  13.487  11.976  0.0770 -0.3034 -0.1059
28758W        W46962   6.390   4.907   0.981  0.2035  0.2399 -0.3171
28759W        W46963   2.920   5.487   3.487  0.1003  0.0733  0.0780
28760W        W46964   5.428  17.128  14.841 -0.0997  0.2756 -0.1052
28761W        W46965  16.757  15.584  14.199 -0.0260  0.2044 -0.1704
28762W        W46966   1.502   4.187  15.363 -0.2860  0.0933  0.0607
28763W        W46967   6.717   4.434   4.313  0.0502  0.0121  0.1731
28764W        W46968  13.241  11.710  11.816 -0.3548 -0.4238 -0.0199
28765W        W46969   7.664   2.871   2.408  0.1641  0.1627 -0.0109
28766W        W46970   5.725  13.521   3.256  0.1297 -0.2562 -0.5778
28767W        W46971  11.915   3.190  10.441  0.2048  0.1605 -0.1383
28768W        W46972  18.450   0.036  15.131 -0.3276 -0.0993 -0.1006
28769W        W46973  11.621   0.572   0.583  0.1540  0.1045  0.0932
28770W        W46974  10.469   7.990  14.331  0.1001 -0.1623  0.1417
28771W        W46975   6.921   9.570  11.820  0.0515  0.1256 -0.3399
28772W        W46976   9.884   1.160   5.081 -0.0997  0.1388  0.0468
28773W        W46977  13.199   4.913   4.515  0.0892  0.3305 -0.0121
28774W        W46978  10.035   0.562  12.161 -0.1895  0.1011  0.1703
28775W        W46979   7.957  17.820   0.085 -0.1719  0.0593  0.1375
28776W        W46980   2.315   2.672   3.454  0.2451 -0.0896 -0.2635
28777W        W46981   5.214  12.000   4.314  0.0515 -0.1105 -0.2334
28778W        W46982  16.442   8.824   2.424  0.1346 -0.1961 -0.0469
28779W        W46983   5.234  12.713  11.801  0.0831  0.1100 -0.1281
28780W        W46984  14.823  11.944   5.187  0.0259 -0.1156  0.2018
28781W        W46985  13.460  12.535  11.838  0.1217  0.0639  0.1057
28782W        W46986   3.635  10.909  15.059 -0.1680  0.2077 -0.2594
28783W        W46987   4.065   5.890  10.600  0.0969 -0.2807  0.0457
28784W        W46988  12.414   4.120  14.672 -0.0311  0.0283  0.1993
28785W        W46989  14.495   7.645  14.786  0.0914 -0.3355 -0.2770
28786W        W46990   0.232  12.784  13.716  0.3242  0.2440  0.0949
28787W        W46991  18.346  14.047   1.433 -0.0560  0.0825 -0.0593
28788W        W46992   5.109   1.547  11.243 -0.0814 -0.0340  0.0845
28789W        W46993  14.261   8.102   1.812  0.2403  0.4974  0.0054
28790W        W46994   2.338   1.008  13.794  0.0521  0.1526 -0.0544
28791W        W46995  16.661  15.465   2.179  0.3057 -0.0572  0.3309
28792W        W46996  12.539  15.992   0.869 -0.3107 -0.1196 -0.0672
28793W        W46997   5.971   1.462   1.186 -0.1275 -0.0536  0.1545
28794W        W46998  14.506  11.467   1.401  0.1423  0.1077  0.0337
28795W        W46999   9.925   4.607  12.034 -0.0285 -0.3413  0.3165
28796W        W47000  13.341  10.326  11.673  0.2511 -0.0989  0.1086
28797W        W47001  10.364  11.890   3.139  0.3141  0.0549 -0.2782
28798W        W47002   1.442  17.886  13.670  0.3041 -0.0776 -0.4983
28799W        W47003  18.588   8.653  14.599  0.0622  0.2533  0.0337
28800W        W47004   8.706   0.820   1.127 -0.3057  0.0439 -0.0656
28801W        W47005   7.388   2.404  11.583 -0.2502 -0.1092 -0.0152
28802W        W47006   1.988  17.219   3.449  0.0658  0.0218 -0.1576
28803W        W47007   6.527   5.508  15.413  0.1861 -0.0868 -0.1437
28804W        W47008  12.454   9.637  12.343  0.1603  0.0242 -0.1048
28805W        W47009   3.489   9.067  12.673  0.0514  0.0466 -0.1163
28806W        W47010   3.933  16.955   5.531  0.1091  0.1215  0.5501
28807W        W47011   2.569  10.748  11.137  0.0135  0.2516  0.1899
28808W        W47012   9.363  11.244   2.427  0.1932  0.1708  0.1227
28809W        W47013   6.109  13.476  13.189 -0.1599 -0.1923  0.1782
28810W        W47014  16.779  14.717   2.882 -0.1143 -0.0953 -0.0411
28811W        W47015  10.010  10.705   1.314 -0.1312  0.0148 -0.1378
28812W        W47016   4.025  12.883  15.314 -0.0104  0.2071  0.2673
28813W        W47017  18.352  18.599  14.625  0.0096  0.3563 -0.0388
28814W        W47018  13.313   8.409   3.315 -0.1826 -0.2729  0.0267
28815W        W47019   0.452  18.420   2.762 -0.0173 -0.0312  0.1109
28816W        W47020   0.676   9.006   3.264 -0.1007  0.0975  0.0775
28817W        W47021  16.102  11.813   3.364 -0.1229 -0.2424 -0.1254
28818W        W47022  13.690  15.551   2.212  0.0860 -0.2024 -0.0943
28819W        W47023  16.541  14.869   4.949 -0.2547 -0.2689  0.0606
28820W        W47024   4.035   6.954   0.095  0.0296 -0.1190  0.1457
28821W        W47025  16.558  16.021   3.042 -0.0117 -0.2551  0.0144
28822W        W47026  12.082   9.631  14.865  0.3088 -0.1187 -0.0966
28823W        W47027   5.759  13.367  14.184 -0.1847 -0.0121  0.0746
28824W        W47028  17.853   3.661   4.780 -0.0046  0.1352 -0.1487
28825W        W47029   9.865  13.072  10.835 -0.0171  0.0855  0.0106
28826W        W47030   0.955   6.833  12.606  0.1506  0.0338 -0.1494
28827W        W47031   1.119   2.048   2.372 -0.1065  0.0755 -0.0879
28828W        W47032  10.423  11.648   1.029  0.2684 -0.1272 -0.1638
28829W        W47033   7.185   7.110  11.287 -0.3399  0.1725  0.5456
28830W        W47034   5.851  11.023   2.107  0.3408 -0.3212  0.0383
28831W        W47035  16.967   9.058  13.352 -0.0948  0.2384 -0.0390
28832W        W47036  10.212  17.688   3.828  0.1145 -0.0475  0.2107
28833W        W47037   6.955   8.920  12.627 -0.0609 -0.0047 -0.0436
28834W        W47038   4.981  15.041   2.889 -0.3206  0.0822 -0.0912
28835W        W47039   9.364  16.823  11.380  0.4053 -0.2628 -0.1543
28836W        W47040   8.156   1.046   4.305  0.0007 -0.0082 -0.0236
28837W        W47041  16.068   8.190   4.345 -0.5948 -0.5767 -0.2023
28838W        W47042  15.023   4.012  12.480 -0.6667 -0.1350 -0.3860
28839W        W47043  10.374  11.505   9.677 -0.0802 -0.0323 -0.0797
28840W        W47044  17.806   9.750   1.971  0.0484  0.0658 -0.0450
28841W        W47045  12.618   7.932  15.079  0.1944  0.0112 -0.0322
28842W        W47046   4.908   2.692   0.022  0.0465  0.2336  0.0454
28843W        W47047  13.580   9.125   3.599  0.0882  0.0136  0.1088
28844W        W47048  17.838  17.296  11.634  0.1690 -0.0240 -0.1341
28845W        W47049   9.598   0.916  14.127 -0.2623  0.0736  0.0436
28846W        W47050   9.600   9.911  13.447 -0.3638  0.0653 -0.3550
28847W        W47051  15.948  12.635  15.136  0.1292 -0.4050  0.0881
28848W        W47052  14.956   2.198   3.534 -0.2004 -0.1790 -0.3793
28849W        W47053  17.427  15.799  14.726  0.0553  0.0288 -0.1759
28850W        W47054   9.716   2.024   0.866 -0.0724 -0.0127 -0.0560
28851W        W47055  11.934  18.471  11.006  0.0502  0.0096  0.1113
28852W        W47056  10.504  14.638   3.657  0.1106  0.2143  0.0165
28853W        W47057  10.962   8.958   1.442  0.2998  0.0045  0.1997
28854W        W47058   0.655  16.973   0.499  0.0363  0.1821  0.0524
28855W        W47059  15.348  11.999  13.398 -0.1086 -0.1756  0.1980
28856W        W47060  13.139   7.222   3.588  0.2151  0.1963  0.2451
28857W        W47061   1.141   5.054  10.955  0.1060 -0.0080  0.0593
28858W        W47062   2.572  15.402   2.979 -0.0635  0.0118 -0.0348
28859W        W47063   0.033   1.353   2.303 -0.1787  0.2926 -0.1166
28860W        W47064   1.047   7.410   2.558  0.2353 -0.1735 -0.0905
28861W        W47065  13.654   8.421   2.942  0.1895 -0.0430 -0.1973
28862W        W47066  12.019   9.865  12.390 -0.2070  0.1046  0.0631
28863W        W47067  12.300   5.466   3.609  0.0592 -0.1475 -0.0141
28864W        W47068   0.242  15.864   1.467  0.2694 -0.3233 -0.0627
28865W        W47069   7.534  17.380  15.355 -0.1457  0.2633 -0.2090
28866W        W47070  17.935  13.928  12.422  0.0065  0.3170 -0.0261
28867W        W47071   8.983   4.388   0.523  0.2033  0.1518  0.2762
28868W        W47072   2.917  11.485   0.769 -0.0255  0.0549 -0.3271
28869W        W47073  16.761   8.214  12.970 -0.1572 -0.1329 -0.1657
28870W        W47074   8.080   9.314   2.649 -0.1717  0.1685  0.0459
28871W        W47075   2.232  15.713   3.210 -0.2029  0.1975 -0.0763
28872W        W47076   2.167   9.161   4.760 -0.1665 -0.1690 -0.0667
28873W        W47077  10.378   5.795   0.971  0.1289  0.0876 -0.3581
28874W        W47078   0.462  10.481  13.124 -0.1636 -0.1376  0.2190
28875W        W47079   1.017  12.082   4.444 -0.1529 -0.1745 -0.0517
28876W        W47080   5.344  11.275  14.340 -0.0043  0.1226  0.0594
28877W        W47081   9.610  16.847   2.949 -0.1879 -0.1422  0.2908
28878W        W47082  14.250   9.303   1.609 -0.0721  0.1788 -0.1099
28879W        W47083  17.979  11.126  12.078  0.1454 -0.2086  0.0740
28880W        W47084   4.151  12.633   2.204  0.1338  0.0296 -0.3565
28881W        W47085  11.597   5.353  13.194  0.1226  0.0386  0.1803
28882W        W47086  14.659   0.301   2.633  0.3680  0.3480 -0.0834
28883W        W47087   4.746   6.824   2.698  0.0733 -0.0331 -0.4012
28884W        W47088  15.407  10.658  11.309 -0.2206 -0.5690 -0.0317
28885W        W47089   5.536   4.483   1.138 -0.0044 -0.1231  0.1303
28886W        W47090  12.978  12.121   1.667  0.3007  0.2178 -0.1368
28887W        W47091   0.768   8.363  11.301 -0.1386  0.1647 -0.2085
28888W        W47092   4.715  11.178   5.330 -0.1030 -0.3541 -0.0978
28889W        W47093  14.350   4.089  13.164 -0.0728  0.0791 -0.1515
28890W        W47094   8.523  15.392   1.323 -0.1710 -0.3430  0.2113
28891W        W47095   1.988  16.068  12.079 -0.1806 -0.1757  0.0739
28892W        W47096   9.178   8.651  11.065 -0.0473  0.0236  0.1661
28893W        W47097  10.757   2.026  11.655  0.3123 -0.0832 -0.0589
28894W        W47098  10.089   9.782  12.586 -0.1825 -0.2610  0.0951
28895W        W47099  14.004   7.332  13.359  0.0189 -0.1662 -0.0633
28896W        W47100  10.308  13.852  13.850  0.1197  0.3003 -0.1978
28897W        W47101  18.226   0.260  12.885  0.2888  0.5002  0.1926
28898W        W47102  13.754   2.648   1.826  0.1853  0.1598  0.2144
28899W        W47103   7.523   2.136  15.445 -0.2336 -0.1865  0.3508
28900W        W47104  13.863   1.036   2.984  0.2392  0.1086 -0.1764
28901W        W47105   5.497   8.339  11.681  0.0462  0.0796 -0.0644
28902W        W47106  17.750   2.443   3.948  0.1312 -0.0435 -0.1763
28903W        W47107   6.953   5.950  12.910 -0.1644 -0.3083  0.1580
28904W        W47108  16.417  13.068   0.928  0.0452 -0.3461 -0.0280
28905W        W47109  14.848  15.301  15.087  0.0210 -0.1963 -0.0151
28906W        W47110  18.485   8.553  11.174  0.1791  0.1114 -0.0036
28907W        W47111   5.537   1.176  13.993  0.0643 -0.2714 -0.2138
28908W        W47112   5.318   7.692   2.864  0.0143  0.1533 -0.1445
28909W        W47113  10.979   2.511  13.896  0.0574 -0.0984 -0.0267
28910W        W47114   6.303  14.875   1.631 -0.1766 -0.3184 -0.2891
28911W        W47115   8.306  10.578  14.034  0.0395  0.0352 -0.3047
28912W        W47116  18.474   2.418  10.902  0.1735  0.1574  0.2188
28913W        W47117  17.026  13.555   4.203  0.2784  0.1737  0.2317
28914W        W47118   4.969  13.047  14.825  0.2066 -0.0928 -0.0735
28915W        W47119   1.280   1.608  13.635  0.2984  0.2396  0.2636
28916W        W47120  14.174   1.913   2.049 -0.1558  0.4719  0.4726
28917W        W47121   6.263  13.437  14.101  0.0645 -0.2762 -0.0225
28918W        W47122   5.102   0.395  12.015  0.1583 -0.0197 -0.1717
28919W        W47123   7.138  14.191  14.783 -0.3262 -0.0937  0.2241
28920W        W47124   5.959   4.327  12.481  0.0314  0.1875  0.1555
28921W        W47125   2.344   7.392   4.472 -0.1244  0.3745 -0.2558
28922W        W47126  11.541   8.665   4.884 -0.1713  0.1096 -0.0532
28923W        W47127  10.986   0.727   2.407 -0.1843  0.0809 -0.0870
28924W        W47128   8.725   2.219   1.157  0.2613  0.2217 -0.2398
28925W        W47129   2.732   2.594   3.225  0.0059  0.2446  0.0038
28926W        W47130  12.185  13.847  15.134 -0.2539  0.0659  0.0645
28927W        W47131   6.475   2.364   0.874 -0.1127 -0.3273  0.1562
28928W        W47132  13.595   0.439   0.247  0.1207 -0.1608  0.0576
28929W        W47133  16.584   5.658  12.461  0.1363  0.0454 -0.0975
28930W        W47134  16.868  16.454   4.133  0.0341 -0.0754  0.3277
28931W        W47135  12.210  17.212  13.964 -0.5679  0.0272  0.1048
28932W        W47136   8.022   1.874   1.607  0.0012  0.6491 -0.2305
28933W        W47137  17.975   1.452   1.176  0.3572 -0.1206  0.2951
28934W        W47138  14.064   2.753   4.068 -0.1281 -0.1630 -0.1159
28935W        W47139   9.575   9.508   2.482 -0.0138 -0.1038  0.1607
28936W        W47140   4.245  18.511   0.592 -0.0991 -0.3310  0.0656
28937W        W47141  18.211  13.571  12.918  0.1464  0.0867  0.3735
28938W        W47142   7.721  18.529   3.593 -0.0810 -0.0837 -0.2898
28939W        W47143   3.385   3.070   3.372 -0.2391 -0.0674 -0.0350
28940W        W47144   4.195   5.340   0.310 -0.2771  0.1201 -0.1015
28941W        W47145  14.585   4.938  11.644 -0.0036 -0.1533 -0.0711
28942W        W47146  12.721   5.690  14.562 -0.1192 -0.1286  0.0390
28943W        W47147   4.899   0.864   3.810  0.0458 -0.1865  0.0505
28944W        W47148  11.588   3.624  13.487  0.2541 -0.0480  0.0439
28945W        W47149   9.881  12.019   0.020  0.1908  0.1028  0.1267
28946W        W47150   2.710   9.732   2.440  0.0130  0.3562  0.0889
28947W        W47151   5.636  11.284   4.756  0.1351  0.2122  0.0808
28948W        W47152   4.081   6.383  12.318 -0.1554  0.0563 -0.0197
28949W        W47153  14.688   9.203  12.981 -0.0055  0.2686  0.2169
28950W        W47154   1.522   9.295   0.111  0.0274  0.0968  0.1180
28951W        W47155   7.848  17.148  12.742  0.0705  0.3738 -0.0226
28952W        W47156   2.111   8.148   5.853 -0.1923  0.0335  0.1193
28953W        W47157   7.926   0.145  12.934  0.2823 -0.1083 -0.0069
28954W        W47158   3.883  10.607  13.278  0.1937  0.0163  0.3429
28955W        W47159  14.721  13.167   1.813 -0.1020 -0.2275  0.2137
28956W        W47160   3.005   5.116   1.669  0.2726 -0.0555  0.0681
28957W        W47161  18.024  17.798  11.709 -0.0707 -0.1863  0.0622
28958W        W47162   2.138  16.653  14.817 -0.1533 -0.2015 -0.1988
28959W        W47163   9.846   3.338   2.510 -0.0062  0.1458  0.1007
28960W        W47164  13.605   8.005  11.555 -0.2036  0.0853  0.1353
28961W        W47165   7.774  11.374   0.969 -0.0310 -0.4441 -0.1224
28962W        W47166   8.744  16.328  12.700  0.0291 -0.0563 -0.0408
28963W        W47167  13.277  16.617   2.875 -0.0314  0.2190  0.0367
28964W        W47168  16.870  15.600  11.777 -0.0260  0.0003 -0.3105
28965W        W47169  10.556  15.919   4.318  0.2930 -0.1644  0.1671
28966W        W47170  13.901   4.580  15.136 -0.0655 -0.0599  0.4201
28967W        W47171   9.376   3.068   2.384 -0.0875 -0.0993  0.3316
28968W        W47172   9.532   1.004  11.626  0.0533  0.0887 -0.2045
28969W        W47173  10.926  17.133  15.053  0.0567 -0.1825 -0.0413
28970W        W47174   7.168   3.411  12.541 -0.1523  0.1997  0.1513
28971W        W47175   7.757   1.906   0.917 -0.0785 -0.3353  0.1595
28972W        W47176  13.452   5.056  14.928 -0.0109  0.0298 -0.1171
28973W        W47177   3.310   5.053  13.720  0.3271  0.1680 -0.2451
28974W        W47178   6.881   8.454  11.301  0.0222  0.0317 -0.0874
28975W        W47179   3.596   5.974  13.797  0.1237  0.1025 -0.1719
28976W        W47180  11.065  11.726   4.224 -0.0003 -0.2034 -0.3613
28977W        W47181  15.938   2.057   3.854  0.0658 -0.0066  0.2806
28978W        W47182   3.906   4.451   1.311  0.1342  0.0811  0.2597
28979W        W47183  16.569   7.921   0.113  0.1182  0.0273 -0.2156
28980W        W47184   0.180  17.457   1.212 -0.2835  0.0818  0.0791
28981W        W47185   4.806  17.964   0.378  0.3352 -0.1157 -0.1671
28982W        W47186   6.549   8.208  14.190 -0.0874  0.1190  0.0998
28983W        W47187   9.128   1.080  10.919 -0.0534 -0.4932 -0.1398
28984W        W47188   8.702  10.529   3.884  0.1310  0.2553  0.1402
28985W        W47189   3.707  14.036  13.411  0.1581 -0.2009  0.0401
28986W        W47190  15.499  17.785  11.237  0.2108  0.0340 -0.1547
28987W        W47191   4.307   5.305  12.687 -0.4610 -0.0474 -0.1981
28988W        W47192   4.325  17.382   2.078 -0.1275  0.4231 -0.1788
28989W        W47193   0.785   8.576   1.647  0.2471  0.2176  0.1232
28990W        W47194  13.033  14.314   2.576  0.0880  0.0384  0.1182
28991W        W47195   2.505   3.220  14.882  0.1247  0.0679  0.1352
28992W        W47196  16.962  12.569  12.861 -0.3501 -0.2020 -0.0475
28993W        W47197   8.659   4.513  14.877 -0.4197 -0.4829  0.3099
28994W        W47198  11.197  17.323   4.476 -0.1555 -0.2430 -0.2005
28995W        W47199   2.494  18.548  14.744  0.2345  0.2706 -0.1193
28996W        W47200   7.437   1.243   4.921 -0.2183  0.1114  0.2422
28997W        W47201  14.646  18.246  12.427 -0.1636  0.0001  0.4556
28998W        W47202   0.971   7.727   1.171  0.0150 -0.3254  0.1177
28999W        W47203   6.005   9.546   4.066 -0.2400  0.0543  0.2804
29000W        W47204  15.668  18.337   3.706 -0.0827  0.0391  0.1804
29001W        W47205   4.945   2.550   2.877  0.2668  0.0606  0.4622
29002W        W47206   1.773  13.314   1.738  0.3212  0.1599  0.0916
29003W        W47207  14.279  10.384  14.472 -0.1106 -0.1554 -0.1433
29004W        W47208   3.984  10.822  12.019  0.2493 -0.4436 -0.2274
29005W        W47209  11.305   1.193   3.507  0.0472  0.1816 -0.1733
29006W        W47210   9.300  15.338  12.585 -0.1759  0.0612 -0.1830
29007W        W47211  17.141  14.369   2.107  0.2060  0.1427  0.0967
29008W        W47212  10.612   2.288  12.692 -0.0290  0.0777  0.1541
29009W        W47213  17.469   0.333  15.435  0.2436  0.3533  0.4933
29010W        W47214  10.960   4.715   4.261 -0.1474  0.0998  0.0815
29011W        W47215  13.805  17.871   5.871  0.1035 -0.1780  0.0059
29012W        W47216   5.427   7.629  15.247  0.2965 -0.0821  0.1913
29013W        W47217  13.237   9.843   4.471 -0.3290  0.1111  0.2448
29014W        W47218   8.648  18.148   1.390  0.0290 -0.0232  0.1716
29015W        W47219   8.685   1.677  15.422 -0.1684  0.0302 -0.2374
29016W        W47220  12.762  15.287  14.055  0.0767  0.1246 -0.0744
29017W        W47221  12.484  17.031  10.973  0.0600  0.1487 -0.1194
29018W        W47222  10.244   3.631  11.956  0.1266  0.3221  0.2182
29019W        W47223   5.513  17.794   0.170 -0.0323  0.0502 -0.1552
29020W        W47224  17.297  14.625  14.406  0.1021 -0.0144  0.0216
29021W        W47225   0.934   4.462  14.537 -0.0695  0.2142 -0.4020
29022W        W47226   0.330   8.443   2.743 -0.1245 -0.1569  0.1267
29023W        W47227  18.526   9.590   3.369  0.0538 -0.4234 -0.2932
29024W        W47228   5.753  10.510   0.373 -0.2723  0.1252  0.3456
29025W        W47229  14.326   9.068   0.760 -0.0554  0.3752 -0.1479
29026W        W47230  16.915   6.417  14.669  0.1224  0.1756 -0.0330
29027W        W47231   3.650   2.778  12.473 -0.2152  0.0724 -0.0123
29028W        W47232   4.072   1.716  12.968 -0.0050  0.1275  0.0462
29029W        W47233   9.856   7.676  14.631 -0.1847  0.0345 -0.0438
29030W        W47234   6.953  11.264   1.442  0.1431 -0.0146 -0.0473
29031W        W47235   9.999   1.196  10.829 -0.0191 -0.2584 -0.1911
29032W        W47236   5.999   4.108  11.645 -0.2935 -0.0483  0.3164
29033W        W47237  17.339  15.222   3.489  0.0804  0.0995  0.1596
29034W        W47238  17.577  11.756  10.873  0.0488  0.0673 -0.2506
29035W        W47239   1.409   7.026  13.869  0.3782  0.3082 -0.2313
29036W        W47240   9.752   5.971   2.356 -0.2723  0.0717  0.1059
29037W        W47241   2.483  10.498  12.701 -0.1677  0.1166  0.0833
29038W        W47242  17.579  11.174  15.390 -0.0917  0.0849  0.0260
29039W        W47243   3.844   6.483   3.141  0.0910  0.3938 -0.2783
29040W        W47244  14.633  11.586  15.126  0.1264 -0.0422  0.0740
29041W        W47245   5.620  11.413   1.310 -0.0161 -0.0384 -0.1835
29042W        W47246  13.355  13.450  13.046  0.4830 -0.4249 -0.1174
29043W        W47247   3.959   5.469   3.952 -0.1248 -0.0104  0.0722
29044W        W47248   4.043   3.777  13.954  0.0168 -0.0999  0.2108
29045W        W47249  11.093  17.565   3.446 -0.1713 -0.2843  0.4157
29046W        W47250  18.585  18.414  11.578  0.2599 -0.2269  0.1408
29047W        W47251  14.066  15.695   3.246  0.1017 -0.0397 -0.0422
29048W        W47252   8.601  13.668   3.876  0.0785  0.3999  0.0682
29049W        W47253   0.519  11.301  12.879 -0.3527 -0.0635 -0.4599
29050W        W47254  16.566  10.357  15.205 -0.1490 -0.0894  0.0444
29051W        W47255   2.995   0.767   4.383 -0.1251 -0.0187 -0.4110
29052W        W47256  17.136   5.304  11.838 -0.2846 -0.2424  0.2059
29053W        W47257  18.493   6.576   4.147  0.2163  0.0370  0.3773
29054W        W47258   8.805   8.547  15.062 -0.0670  0.0389  0.2830
29055W        W47259  10.121  11.007   3.354  0.2578 -0.0227  0.2044
29056W        W47260  17.620  15.505  11.352 -0.0474  0.1724  0.2160
29057W        W47261   3.784  16.195   1.585 -0.2985 -0.1873 -0.0258
29058W        W47262   0.080   1.846  14.279 -0.0803  0.1110  0.0980
29059W        W47263   9.596   1.887  14.511  0.2020 -0.1740  0.1371
29060W        W47264   6.490   8.439  14.646  0.0231 -0.1586  0.2690
29061W        W47265  15.118   3.783  14.512  0.1342  0.0433 -0.0955
29062W        W47266   7.106  12.321   5.386 -0.0616  0.0300 -0.1935
29063W        W47267   9.086  12.522   1.447  0.3230 -0.2674  0.1824
29064W        W47268  17.962   7.973   0.363 -0.0694 -0.1049 -0.0723
29065W        W47269   8.459   2.774  14.423 -0.0516 -0.0981 -0.3103
29066W        W47270   2.879   0.430  13.568 -0.0769 -0.0147 -0.1221
29067W        W47271   5.813  11.044  11.349 -0.0943  0.0972 -0.0007
29068W        W47272  18.608  12.693  14.216  0.0595  0.0074 -0.2228
29069W        W47273   7.153   3.572   0.808 -0.3258 -0.1258  0.2197
29070W        W47274   3.165   8.292   4.034  0.1868 -0.4423 -0.1235
29071W        W47275   7.084   2.410  13.802  0.2194 -0.0962 -0.1868
29072W        W47276   7.316   9.984   3.510  0.1609 -0.2274 -0.4287
29073W        W47277  11.770  10.095   1.167  0.2557  0.0031  0.0984
29074W        W47278  16.985  10.517  11.255  0.3095  0.0430  0.2435
29075W        W47279   1.950   5.806  12.319  0.1971 -0.2437  0.0859
29076W        W47280   1.247   5.468   1.532 -0.0545  0.2496 -0.0730
29077W        W47281  14.115  11.840  15.155 -0.2187  0.1922 -0.2190
29078W        W47282   5.350   6.779   1.574  0.4337  0.1632 -0.0003
29079W        W47283   8.230   7.322  11.310 -0.0285 -0.0599 -0.0067
29080W        W47284   3.409  13.496   1.128 -0.1354  0.1174 -0.3748
29081W        W47285  14.599   6.597   0.654 -0.1960  0.3665 -0.2438
29082W        W47286  17.652   9.219   3.016  0.0393 -0.1421 -0.0108
29083W        W47287  15.532   9.620  13.092  0.0026  0.1144  0.2230
29084W        W47288  13.585   2.307   1.494 -0.2686 -0.2901  0.1459
29085W        W47289   3.941   9.906   2.601  0.2509  0.0213 -0.0850
29086W        W47290   8.833  17.764  13.381 -0.0169  0.0032 -0.2187
29087W        W47291  16.252   8.482  12.168 -0.0678  0.1490 -0.3476
29088W        W47292   3.642   2.358  13.210  0.0624  0.2754  0.2713
29089W        W47293  15.316   2.769   2.190  0.2238  0.0884 -0.0789
29090W        W47294   6.768   0.617   0.331 -0.0745 -0.0446 -0.2632
29091W        W47295  15.947  10.821  11.984  0.2881 -0.2923  0.1311
29092W        W47296   1.598  12.859  14.962 -0.1087  0.3286  0.1058
29093W        W47297   9.087   1.618  10.978 -0.2169 -0.1548 -0.0091
29094W        W47298   3.919   2.789   0.270  0.3072  0.0604  0.0793
29095W        W47299  11.161   2.813  11.087  0.2027  0.0480  0.1348
29096W        W47300   5.139   1.801   0.179  0.5547  0.4599  0.0437
29097W        W47301   6.585   1.341   5.860 -0.2549  0.1758  0.1930
29098W        W47302  15.655   8.003  10.352  0.5055 -0.2322  0.0196
29099W        W47303   7.743   7.623   2.046  0.0659 -0.1801 -0.0190
29100W        W47304  15.147   1.274  15.013  0.1174 -0.1704 -0.1717
29101W        W47305  11.956   0.754   1.602 -0.2175  0.1820  0.4042
29102W        W47306  18.453   2.076  11.270 -0.3033  0.1712 -0.0237
29103W        W47307  13.529  14.187  11.168 -0.2894  0.0878 -0.3985
29104W        W47308   5.469   9.291   0.995 -0.1412 -0.0910  0.4197
29105W        W47309   1.925   0.489  13.019  0.0665 -0.0827 -0.2766
29106W        W47310   1.937  16.091   2.078  0.0390  0.0541 -0.3091
29107W        W47311   2.339   8.621   0.680 -0.0273  0.2017 -0.0988
29108W        W47312  14.892   1.914   2.744 -0.0162  0.0405 -0.0475
29109W        W47313  17.732  11.907   1.617 -0.0786  0.0512  0.0491
29110W        W47314  10.157   8.368   0.141 -0.1865 -0.0648 -0.2680
29111W        W47315   9.918   3.242   4.029 -0.0218  0.0351  0.4147
29112W        W47316   6.764  15.774  14.044 -0.0925 -0.1036  0.3084
29113W        W47317  16.723   1.448   2.164 -0.1021 -0.1636  0.3879
29114W        W47318   1.927  14.534   2.590 -0.0597 -0.1328  0.0694
29115W        W47319   6.883   4.042   1.677 -0.1154 -0.3398  0.1236
29116W        W47320   3.425  18.587   4.893 -0.1481 -0.1436 -0.2528
29117W        W47321  13.337  17.466   1.691 -0.4766 -0.0894 -0.2458
29118W        W47322   0.624   4.747  13.231  0.0988  0.0049  0.0747
29119W        W47323  11.196   6.767  14.249  0.0480 -0.0197 -0.0489
29120W        W47324  12.508  12.206   1.864 -0.1406  0.0757 -0.0524
29121W        W47325  13.698  14.304   0.844  0.0653 -0.0295  0.1702
29122W        W47326   0.645  10.804   1.900 -0.0568 -0.2811 -0.3046
29123W        W47327  15.382  18.285  13.457 -0.2293  0.1616 -0.0811
29124W        W47328   0.507  10.882  14.770  0.3818 -0.1269  0.0771
29125W        W47329   2.292   9.522   2.581 -0.1780  0.0426  0.2206
29126W        W47330   4.245   7.324   1.908 -0.1398  0.1258 -0.1047
29127W        W47331   8.209   6.810  12.227  0.2244  0.0806 -0.0951
29128W        W47332  12.721   3.429   1.328 -0.0083  0.0952  0.0710
29129W        W47333   3.742  16.303  12.352 -0.1905  0.3197 -0.1420
29130W        W47334  14.726   6.066  13.681  0.1562 -0.1371 -0.1325
29131W        W47335   1.845   5.406  14.562 -0.0109  0.0537  0.1081
29132W        W47336  12.718   0.405   4.142 -0.0729 -0.3769  0.1101
29133W        W47337  17.956  11.521  13.740  0.0593 -0.2832 -0.1246
29134W        W47338  11.182  18.042  14.838  0.1692 -0.0852 -0.1209
29135W        W47339  16.724   0.864  14.399 -0.2453 -0.3080 -0.2741
29136W        W47340  18.471   1.605   1.369  0.1789 -0.1051 -0.1344
29137W        W47341   3.336   5.188  14.935 -0.0654 -0.3018  0.2365
29138W        W47342  15.411   6.779  11.041  0.0948  0.1679 -0.1702
29139W        W47343  18.543   9.851  15.280  0.1254 -0.3274 -0.0171
29140W        W47344   9.896  17.266  12.450 -0.3599  0.0513  0.1499
29141W        W47345   3.908   0.062   5.013 -0.1934  0.1493 -0.0978
29142W        W47346   5.090   3.103  13.673  0.1576  0.0229 -0.2774
29143W        W47347  10.495   5.576   5.255 -0.0457  0.2749 -0.0192
29144W        W47348  15.515   8.234   2.160 -0.1928  0.1714  0.1074
29145W        W47349   8.554   4.957   1.644  0.2718 -0.2003  0.0590
29146W        W47350  17.634   1.906   0.385 -0.0970 -0.0253 -0.2497
29147W        W47351  18.194   3.323   4.398  0.1516 -0.0828 -0.5585
29148W        W47352   4.039  15.415  15.017 -0.1396 -0.0048 -0.2620
29149W        W47353  13.509   6.856  13.237 -0.0284  0.1103 -0.2756
29150W        W47354   0.271   7.888  14.190  0.1552  0.0605 -0.0686
29151W        W47355  18.307   9.995   2.009  0.1984 -0.1313 -0.0913
29152W        W47356   6.598   9.162  11.856 -0.2311  0.1015  0.1678
29153W        W47357   4.906  10.231   2.607 -0.2999  0.0125  0.0834
29154W        W47358  10.163  11.533   2.713 -0.0419  0.0432 -0.0556
29155W        W47359   7.509  12.823  11.925  0.1073 -0.1259 -0.1930
29156W        W47360   4.060   2.037   2.632  0.1319 -0.2164 -0.0821
29157W        W47361   6.774  12.141  12.606 -0.0325  0.2808  0.3051
29158W        W47362  12.124   2.157   1.467  0.2018 -0.0742 -0.0675
29159W        W47363  13.859   0.583   3.725  0.0877 -0.3725 -0.1488
29160W        W47364   2.387   0.650   2.484 -0.0023  0.1053 -0.0549
29161W        W47365  10.080   6.040   4.050 -0.0674  0.2217  0.0116
29162W        W47366  11.250  13.595  14.509 -0.0504 -0.0549  0.2298
29163W        W47367  14.150   6.839   0.859 -0.0095  0.0199  0.0696
29164W        W47368   1.257  17.761   0.706 -0.2183 -0.3409  0.0684
29165W        W47369  15.867  17.517   3.674 -0.3077  0.2183  0.0944
29166W        W47370  18.032   8.184  12.028 -0.1349 -0.1249 -0.1435
29167W        W47371   2.214  13.670   1.622 -0.0709 -0.3942 -0.1115
29168W        W47372   3.540  17.545   0.018 -0.1291  0.1341 -0.0643
29169W        W47373   2.102  17.414   1.267 -0.1003  0.1499  0.1175
29170W        W47374   8.325   7.322   1.392 -0.2107  0.0911 -0.0368
29171W        W47375  14.158   2.360   3.232  0.1784  0.1276 -0.1766
29172W        W47376  16.856  10.609   4.597  0.3516 -0.0066 -0.0348
29173W        W47377   5.605  11.812   4.605 -0.1010 -0.1236  0.0301
29174W        W47378   0.850   0.330  12.469 -0.0810  0.1017  0.0361
29175W        W47379   0.839  10.043  10.981  0.1479 -0.1450 -0.0343
29176W        W47380  17.907  15.265  14.579 -0.0866 -0.0345  0.2082
29177W        W47381  15.333   8.314  14.006  0.0805 -0.2638 -0.2290
29178W        W47382  17.127  18.340  14.147 -0.0569 -0.3854  0.0996
29179W        W47383   5.127   3.934   3.229  0.2506  0.1830  0.2251
29180W        W47384  10.410   9.201   5.656  0.2757  0.0256  0.0976
29181W        W47385  12.169  15.536   1.223 -0.1665  0.0607 -0.0692
29182W        W47386   6.003  14.225  10.659 -0.0354  0.2134  0.1834
29183W        W47387   5.786   4.876  11.146 -0.0055  0.2239  0.1226
29184W        W47388   9.966  11.059  13.265  0.1103  0.0707  0.1006
29185W        W47389   7.501  17.036   0.310 -0.1208 -0.0187 -0.1843
29186W        W47390   3.971  17.009  13.648 -0.0618  0.3307  0.1231
29187W        W47391  13.701   2.731  11.040  0.0991  0.1313 -0.0851
29188W        W47392   7.414   1.896  14.474  0.0360  0.2928 -0.2884
29189W        W47393   8.526   2.588  10.855 -0.0086 -0.0818 -0.0980
29190W        W47394  15.675   7.637   1.272  0.0867  0.1587  0.0911
29191W        W47395  17.927  10.841  14.632  0.1442 -0.0958  0.0976
29192W        W47396  10.347   5.236  12.454 -0.1119 -0.1376 -0.1595
29193W        W47397   1.048   4.408   4.171  0.1604  0.0185 -0.0134
29194W        W47398  11.693  13.860  15.352 -0.0197 -0.2012  0.0268
29195W        W47399  13.102   3.146   2.928 -0.2111  0.0305  0.2042
29196W        W47400   6.927   6.336   1.947  0.3425 -0.0608  0.0968
29197W        W47401   7.770   0.463   0.650  0.2674 -0.0088 -0.2509
29198W        W47402   3.177   4.177  11.010 -0.0591  0.3601 -0.0668
29199W        W47403   2.007  12.185  13.548  0.1716 -0.1658 -0.0749
29200W        W47404   6.506  15.857  10.754 -0.2053  0.0325  0.0020
29201W        W47405  12.930  15.107  10.804  0.0866 -0.2885 -0.0754
29202W        W47406  17.366  12.117  14.888 -0.0180 -0.0022 -0.4139
29203W        W47407  16.845   4.889  14.483 -0.2394  0.0371  0.2963
29204W        W47408  16.126   9.280  15.430 -0.1439  0.2961  0.0660
29205W        W47409  18.309   3.242  11.356 -0.1542  0.0855 -0.0578
29206W        W47410   0.238   5.196  11.553 -0.0338  0.0059  0.1032
29207W        W47411  14.838  13.372   3.404  0.0080 -0.1120  0.1788
29208W        W47412   4.412   3.866  12.579 -0.3264 -0.1589  0.0355
29209W        W47413  10.635   8.549  12.130 -0.1176 -0.2154 -0.2053
29210W        W47414  17.011   3.863  12.296 -0.0280  0.1879  0.0431
29211W        W47415   3.840  16.222   4.969  0.0155 -0.1474 -0.0888
29212W        W47416   8.413   8.609  15.388  0.2149 -0.0029  0.3067
29213W        W47417   3.621  12.605   3.984 -0.0183  0.2686  0.1224
29214W        W47418   9.322  14.792   3.401 -0.1453 -0.0494 -0.0796
29215W        W47419  11.240   6.852   0.567 -0.2579  0.0060 -0.0961
29216W        W47420  10.631   0.727   1.035 -0.0248  0.0606  0.1217
29217W        W47421  17.197   4.863   1.263 -0.2010  0.0352  0.2540
29218W        W47422  15.761   3.908   1.996  0.0599 -0.1651 -0.2608
29219W        W47423   9.897  17.903   2.238  0.2392 -0.0871 -0.2434
29220W        W47424  10.467   7.051   0.353  0.0299  0.1271  0.0782
29221W        W47425   8.298   7.919  14.798 -0.0161  0.0736  0.1409
29222W        W47426  16.509  15.017   4.081 -0.2243  0.1244  0.1530
29223W        W47427   7.337  16.196   5.887 -0.0899  0.1035  0.3853
29224W        W47428   2.750   0.312  10.874  0.0094 -0.3759 -0.0741
29225W        W47429  13.301   9.193   0.802 -0.4016  0.3269 -0.2373
29226W        W47430   2.216  16.062  13.660 -0.1543 -0.4617 -0.3246
29227W        W47431  14.326  17.970   0.254 -0.0160 -0.1775  0.1050
29228W        W47432  15.626  12.450   1.373  0.0538  0.0648 -0.2595
29229W        W47433   3.714   5.382   5.210  0.4348  0.2389  0.1187
29230W        W47434  13.185   8.154   2.606 -0.0330  0.1872 -0.0821
29231W        W47435  17.646  18.432  13.562  0.0551  0.2405 -0.1715
29232W        W47436  17.473  11.789   1.173  0.1886  0.1523 -0.2268
29233W        W47437  17.108   9.111   1.993  0.1812  0.0339 -0.0076
29234W        W47438   5.734   4.815  13.790  0.1417  0.0193 -0.0016
29235W        W47439  15.802   4.358  11.844 -0.0673  0.0201  0.0852
29236W        W47440  17.519   4.320  10.959  0.0345 -0.3535  0.2920
29237W        W47441  13.900   7.166  15.424  0.1189  0.1816 -0.0277
29238W        W47442  15.676  16.111  11.692 -0.1127  0.0067  0.1909
29239W        W47443  18.307   6.831   2.965 -0.1096  0.0079  0.2985
29240W        W47444   7.940  13.698  15.370  0.0585  0.0920  0.1872
29241W        W47445  12.863   0.894   3.133  0.2522 -0.1505 -0.3519
29242W        W47446   8.176   5.617   0.987 -0.0985  0.1913  0.2281
29243W        W47447  10.885   7.150  14.527 -0.0293 -0.1217  0.2212
29244W        W47448   6.410  14.318   1.054 -0.0974 -0.4315  0.4611
29245W        W47449   1.849   1.271  10.797 -0.0537  0.1437  0.2270
29246W        W47450   3.031  12.668  11.439 -0.0715 -0.1082 -0.0410
29247W        W47451  10.594  12.994   2.131 -0.0956  0.1145 -0.2741
29248W        W47452   2.446   2.649   1.665  0.1368  0.0352 -0.1722
29249W        W47453  14.285   3.561  15.188 -0.2770 -0.2202  0.3975
29250W        W47454   2.576   3.639  12.907  0.2693 -0.1333 -0.1739
29251W        W47455   0.545  12.031  11.135 -0.0682  0.3317  0.1191
29252W        W47456  14.055   7.702  11.658  0.1134  0.2715  0.3270
29253W        W47457   0.613  14.766  12.253 -0.0976  0.2539 -0.0017
29254W        W47458  15.152  10.066   0.928  0.1708  0.0081 -0.1482
29255W        W47459  15.310  12.417   4.254  0.2254  0.2152 -0.5696
29256W        W47460   0.386  10.175  11.129  0.0608  0.2355 -0.2385
29257W        W47461  12.098  13.519  14.795 -0.0338  0.0402  0.1280
29258W        W47462   2.307   0.407  14.961  0.0791 -0.0882  0.1674
29259W        W47463  15.361   7.005   0.246 -0.1058  0.0107  0.0529
29260W        W47464  13.235   5.660  11.394  0.3137  0.0945  0.2821
29261W        W47465  16.579   3.234   3.706  0.1508 -0.4055  0.2304
29262W        W47466  15.229  11.585   2.494 -0.3116 -0.3505  0.0462
29263W        W47467   9.479   8.850   4.176  0.2724  0.0211 -0.0344
29264W        W47468   8.213   3.797  14.641  0.0982 -0.0855 -0.0655
29265W        W47469  12.919   4.171  12.711  0.3042  0.1578 -0.2064
29266W        W47470  10.181  17.115   9.826 -0.0851 -0.2952 -0.2278
29267W        W47471  14.420   8.474  12.068  0.1074  0.0825 -0.5551
29268W        W47472  17.776  13.709  14.230  0.0063  0.0537 -0.1916
29269W        W47473  10.447   8.123   3.300  0.0740  0.3579  0.1955
29270W        W47474  11.994  11.663  15.191 -0.2935  0.0276 -0.1517
29271W        W47475  15.871   1.233   1.073 -0.0387  0.0212  0.0772
29272W        W47476   6.915   5.704   3.061  0.3374  0.0724  0.2117
29273W        W47477  11.846  17.395   1.051  0.0396  0.2699 -0.1014
29274W        W47478   8.636  17.386   2.006 -0.0129 -0.0799  0.1543
29275W        W47479  14.709   6.180   4.149  0.0648  0.1488  0.1627
29276W        W47480  15.083  12.649   2.767  0.0714 -0.1096  0.2314
29277W        W47481   4.309   0.442  14.576 -0.1969 -0.1196 -0.1999
29278W        W47482  12.400  15.811  13.182  0.0217 -0.1678 -0.3617
29279W        W47483   6.635  16.724   0.025 -0.4228 -0.3067  0.1250
29280W        W47484  14.853  13.877  12.956  0.2521  0.0671  0.1141
29281W        W47485   2.210   7.542   3.987  0.1931 -0.0342 -0.0301
29282W        W47486  15.022   4.782   4.112 -0.2226 -0.1031  0.0512
29283W        W47487  10.450  10.965   2.647 -0.1107  0.1894  0.0293
29284W        W47488   6.244   4.760  12.436  0.2177  0.0092  0.3037
29285W        W47489  15.080  12.883  11.203  0.1955  0.0951  0.1445
29286W        W47490   8.768  10.891   1.696 -0.1999  0.1212 -0.2033
29287W        W47491  15.898   6.686   0.123 -0.1891 -0.2017 -0.3336
29288W        W47492  15.531  11.267   1.029  0.1205 -0.0768  0.0835
29289W        W47493   2.463  13.051  11.886 -0.1611 -0.0809  0.0329
29290W        W47494  11.252  15.278  14.694  0.0896  0.1976  0.0068
29291W        W47495   3.695   1.357  13.074 -0.0325  0.0387 -0.1406
29292W        W47496  17.319   3.066   0.642  0.0956 -0.1729  0.1261
29293W        W47497  16.320  16.098   4.584  0.2039 -0.0454 -0.1299
29294W        W47498   7.084  18.232   3.538  0.1561  0.0189 -0.2506
29295W        W47499   7.501  17.015   1.847  0.4160 -0.0552  0.0141
29296W        W47500  11.457   2.754   0.698 -0.2021 -0.0029  0.0232
29297W        W47501   9.147   3.229  13.709 -0.2714  0.2440 -0.3201
29298W        W47502   1.054   1.876   1.043  0.0553 -0.0077  0.1058
29299W        W47503  11.945  18.598  11.528  0.0475  0.1403  0.0858
29300W        W47504  12.796   5.600   0.979 -0.0809  0.0440  0.3583
29301W        W47505   0.875  16.351  14.545 -0.0648 -0.0527  0.0560
29302W        W47506   7.766  13.781   5.016  0.1007  0.0100  0.1669
29303W        W47507   4.831   1.238  11.529  0.1763  0.2334 -0.2591
29304W        W47508   7.712  17.869  15.113 -0.2490 -0.0312 -0.0158
29305W        W47509  15.273  18.101   0.650  0.1327  0.1775  0.1461
29306W        W47510   3.699  11.399  11.355 -0.0459 -0.2343 -0.1050
29307W        W47511  11.729   9.924   3.495 -0.1520 -0.0426 -0.0764
29308W        W47512   6.111   3.704   0.845 -0.1469  0.0339 -0.0351
29309W        W47513   5.780   8.046   2.173  0.1447  0.2802  0.1031
29310W        W47514  16.750  11.619  14.504  0.0315 -0.2289  0.0045
29311W        W47515   9.530   1.334  13.842  0.2279 -0.1843 -0.0316
29312W        W47516   0.153   9.237   5.624 -0.0483 -0.2438 -0.2378
29313W        W47517  14.963  13.864   2.710 -0.0080 -0.1542 -0.1307
29314W        W47518   8.816  13.272   1.866  0.0175  0.0451  0.2235
29315W        W47519   6.086  11.501   2.053 -0.1328  0.3357  0.3647
29316W        W47520   6.027   9.274  14.474 -0.0184 -0.1876  0.1023
29317W        W47521   3.552  12.727  13.971 -0.2088  0.0793 -0.1408
29318W        W47522  12.411  11.589   5.325 -0.3386 -0.1222  0.0690
29319W        W47523  12.951  11.479   2.501 -0.1531 -0.3036  0.0417
29320W        W47524   4.087  15.688  13.266 -0.0001 -0.1344 -0.3932
29321W        W47525   6.484   2.072   2.743 -0.0463 -0.2521  0.0123
29322W        W47526  12.694   9.207   4.421  0.2173 -0.1682  0.2349
29323W        W47527  17.126   0.484  13.521  0.1404  0.3682  0.1932
29324W        W47528  16.160   9.146   5.777 -0.1043  0.3658  0.1844
29325W        W47529  14.159  15.888  13.593 -0.0088  0.0831 -0.2265
29326W        W47530   2.641  12.748   0.515  0.0926  0.0359 -0.1664
29327W        W47531   9.578  16.079   1.817 -0.0165  0.2024  0.0858
29328W        W47532   2.759  13.351  14.010 -0.0892 -0.1551  0.0281
29329W        W47533  16.937   6.667   4.412 -0.1169  0.0426  0.0821
29330W        W47534   3.307  16.694   3.349 -0.1260 -0.2904  0.1034
29331W        W47535  17.503  12.688   2.488 -0.2462 -0.0273 -0.2419
29332W        W47536   4.969  18.401   5.250 -0.1972  0.1000  0.3768
29333W        W47537  11.146   2.993  12.538  0.0372  0.2826  0.2797
29334W        W47538   9.746   1.418   1.789  0.3400  0.1888  0.0302
29335W        W47539   3.828   3.436   1.505 -0.1182 -0.0369 -0.2442
29336W        W47540   3.756   7.131   5.465  0.0750 -0.1880  0.0664
29337W        W47541  18.296   8.093  13.765 -0.1214  0.2332 -0.4174
29338W        W47542   3.714   1.804  12.110  0.2926 -0.3219 -0.1801
29339W        W47543  10.196   6.387   2.074  0.1327 -0.0518  0.0936
29340W        W47544   1.933   8.756   1.046  0.3694 -0.0249  0.0650
29341W        W47545  14.779  16.249   0.440  0.0129 -0.1994 -0.0870
29342W        W47546  14.676   5.832   4.653  0.2810  0.1404  0.0885
29343W        W47547   2.444  16.047   2.083  0.0359  0.2345 -0.1323
29344W        W47548  18.125   2.862  14.342  0.0067  0.2343 -0.2694
29345W        W47549  18.215  10.669  12.093 -0.1595 -0.1210  0.0145
29346W        W47550  13.783  11.729  11.576 -0.0280 -0.1166  0.1316
29347W        W47551  14.903   9.490   2.365 -0.2773  0.3966  0.0809
29348W        W47552  17.610   0.502  14.828  0.1252  0.0307  0.2917
29349W        W47553   0.569  14.640   2.885  0.1396  0.3582 -0.2158
29350W        W47554   8.167  11.723  12.131 -0.1123 -0.1652  0.1135
29351W        W47555   9.564   5.428  13.255 -0.3325 -0.0091 -0.0713
29352W        W47556  17.285   9.330   1.549  0.0253  0.0275  0.1123
29353W        W47557  12.736  16.501   0.848 -0.2121  0.1927 -0.1578
29354W        W47558  17.155  13.573   5.447 -0.2122 -0.1192 -0.0237
29355W        W47559   5.664  14.829  13.425  0.0485 -0.0319 -0.1256
29356W        W47560   7.099  15.860   1.266  0.2674 -0.1380  0.2006
29357W        W47561   5.716   9.858  13.105 -0.0005  0.1106 -0.0813
29358W        W47562  13.885   3.345  12.102 -0.1780 -0.0879  0.0768
29359W        W47563  14.422  17.680  15.251  0.1132 -0.1584 -0.4299
29360W        W47564  16.026   7.702  11.853 -0.1565 -0.0170 -0.0982
29361W        W47565   7.248  11.813  15.176 -0.0358  0.1100  0.1806
29362W        W47566  11.419  15.617   2.685  0.3764  0.1094 -0.1241
29363W        W47567   5.870   5.735  10.948  0.0940 -0.1272 -0.0148
29364W        W47568   5.073   6.689   2.307  0.0978 -0.0383  0.5444
29365W        W47569   5.150   2.676  13.439  0.1855 -0.4087 -0.1834
29366W        W47570  13.640  16.950  11.963  0.0762 -0.0664 -0.3606
29367W        W47571   5.409  12.386   2.616 -0.0552 -0.2841 -0.2337
29368W        W47572   2.365   3.530   2.132  0.0523  0.2086  0.0359
29369W        W47573  17.644   2.752  13.849 -0.0203  0.3705 -0.3715
29370W        W47574   6.623   7.904   0.896 -0.0977 -0.0358 -0.0796
29371W        W47575  12.999  10.868   1.182  0.3186  0.1342  0.2774
29372W        W47576   4.488   8.787   1.364  0.2253 -0.0730  0.1101
29373W        W47577  11.925   0.391  11.015  0.0549  0.2018  0.1555
29374W        W47578   6.442   8.957  13.291 -0.1768  0.1000  0.3114
29375W        W47579  17.533  12.690  11.840 -0.1220  0.1502 -0.3347
29376W        W47580   2.484  16.215   1.192  0.2074 -0.2746 -0.0403
29377W        W47581   3.513   3.803   4.241  0.0476  0.1578  0.2359
29378W        W47582   4.446   4.285   3.691 -0.0389 -0.0792  0.0955
29379W        W47583  10.088   2.030   3.590  0.2979 -0.1784  0.0599
29380W        W47584   0.624   9.372  11.765  0.0648  0.3025 -0.0344
29381W        W47585   2.184  12.508  11.609 -0.2884  0.0085  0.3072
29382W        W47586   2.015   4.860  11.144 -0.0374 -0.0766  0.0514
29383W        W47587   7.722  15.035   3.734  0.1279 -0.1445 -0.1923
29384W        W47588  14.322  11.630   0.132  0.3308  0.0847 -0.1334
29385W        W47589   2.406   3.882   1.051  0.1239  0.2639 -0.0542
29386W        W47590  17.607  12.123  13.157  0.1905  0.1048  0.4656
29387W        W47591  18.132   7.213   0.655  0.3488 -0.0001  0.0211
29388W        W47592   7.037   2.396   0.065  0.0102  0.0183 -0.1934
29389W        W47593  12.805   7.474  15.357  0.0844 -0.1204  0.1087
29390W        W47594   6.730  11.835   2.933  0.2096 -0.1697 -0.0600
29391W        W47595  17.970  17.682  11.186  0.2032  0.1336 -0.1167
29392W        W47596   5.598  14.500  12.933  0.0794 -0.2400 -0.2292
29393W        W47597   5.796  11.409  14.264  0.0319  0.1005 -0.0436
29394W        W47598   3.274   9.043   1.734 -0.1120 -0.0207 -0.1677
29395W        W47599   2.256  14.627  12.046  0.1643  0.0677 -0.0800
29396W        W47600  10.178   4.058   3.351 -0.0459 -0.1078 -0.2429
29397W        W47601   1.302  15.901  10.524 -0.1218 -0.0650  0.0918
29398W        W47602   5.338  18.522  14.510  0.1753 -0.0540 -0.1364
29399W        W47603   9.773  11.324   1.400  0.1746 -0.1601 -0.2949
29400W        W47604  10.791   7.083   1.829 -0.1171 -0.1010  0.2379
29401W        W47605   0.564  11.442  13.896 -0.1146 -0.0886 -0.1227
29402W        W47606   3.078  15.332   3.658  0.4954 -0.0165  0.0552
29403W        W47607  10.498   8.957   1.187  0.1257  0.4259  0.1750
29404W        W47608  13.484   5.627  11.843 -0.0509  0.0104 -0.1222
29405W        W47609   8.228  10.744  12.800  0.1251 -0.2509  0.3055
29406W        W47610   2.552   8.464   1.788  0.1530  0.2573  0.0714
29407W        W47611   9.504   8.045   4.423  0.3320  0.1139 -0.1994
29408W        W47612   5.180   5.950   0.936 -0.0343  0.2965 -0.1551
29409W        W47613  14.847   7.587  13.050  0.0880  0.2786  0.2332
29410W        W47614  14.072   1.783  13.556 -0.4356  0.1636  0.1647
29411W        W47615   1.494   7.217   3.704  0.1384  0.3523  0.0746
29412W        W47616  11.888  11.015   1.115 -0.0987 -0.1946  0.2203
29413W        W47617  15.286   6.166   2.333 -0.2104  0.1716 -0.0359
29414W        W47618   4.162   2.665   3.434 -0.4519  0.0687 -0.0388
29415W        W47619  15.182  14.655  12.007  0.2074 -0.1261 -0.2461
29416W        W47620   7.504   3.758   0.560 -0.4102 -0.1902  0.0682
29417W        W47621  11.038   0.109  11.012 -0.1182  0.0703  0.0497
29418W        W47622   4.903  17.621  12.536  0.0472  0.1276 -0.2025
29419W        W47623  18.457  15.324  13.986 -0.0171 -0.1512  0.0353
29420W        W47624   7.464   2.537   2.022 -0.1367 -0.2491 -0.4840
29421W        W47625   5.819   1.533   2.633 -0.1435  0.2375 -0.3316
29422W        W47626  15.382   3.111   4.254  0.1121  0.3099  0.0111
29423W        W47627   1.670  14.649  12.169 -0.0159  0.1709 -0.1201
29424W        W47628   8.438   9.638   2.420  0.3164 -0.0609  0.2382
29425W        W47629  18.238   9.085   4.189 -0.1334  0.0444  0.3370
29426W        W47630  17.531   7.013  15.366 -0.0351 -0.0876  0.0551
29427W        W47631   0.094  15.593  14.892  0.1975 -0.2573 -0.1653
29428W        W47632  17.336  18.508  13.202 -0.1934  0.0089  0.2933
29429W        W47633   3.835   4.123  12.496 -0.0440  0.1187 -0.0329
29430W        W47634   0.197  18.566  12.238 -0.0993  0.0157  0.0886
29431W        W47635   1.176   1.911  14.547 -0.0048 -0.0339 -0.0782
29432W        W47636   1.208   7.480  11.005 -0.0491 -0.1502 -0.2366
29433W        W47637   9.732  16.506  12.260  0.0557 -0.1932 -0.2735
29434W        W47638  15.803   9.261  12.084  0.1317  0.0996 -0.0611
29435W        W47639  13.638  12.631   2.127 -0.4395  0.1429 -0.1006
29436W        W47640   6.381   3.423  14.245 -0.1190 -0.0911 -0.1319
29437W        W47641   6.131  11.476  12.747  0.2734 -0.0618 -0.0279
29438W        W47642  13.045  15.665  13.773 -0.0003  0.3769 -0.0759
29439W        W47643  18.599  14.153   4.118  0.1420 -0.4026  0.1320
29440W        W47644   3.848   6.802  14.398  0.0335 -0.0705  0.1445
29441W        W47645   8.864   1.521  12.393 -0.2720  0.4675 -0.1368
29442W        W47646  12.825  14.137   0.835  0.3071  0.1293 -0.2413
29443W        W47647   9.220  13.460   2.186 -0.1164  0.0730 -0.0698
29444W        W47648   0.951   6.637   0.843  0.1013 -0.3902 -0.0687
29445W        W47649  13.224   3.972   2.390 -0.1016  0.2079  0.1879
29446W        W47650   3.518   0.085  12.752  0.0354  0.1892 -0.0283
29447W        W47651  15.666  18.346   1.719 -0.0533  0.1623 -0.1781
29448W        W47652   7.189   7.387   0.040  0.0117  0.0711 -0.1273
29449W        W47653  16.336  16.783  11.828  0.0471  0.1701  0.1809
29450W        W47654   3.495  16.905   2.605  0.2017 -0.0680 -0.0612
29451W        W47655  10.467   7.397   3.680 -0.0256 -0.1535 -0.1765
29452W        W47656  14.109   8.824  11.820  0.5283 -0.3357  0.1809
29453W        W47657   4.697   4.368  11.889 -0.1289 -0.1190  0.0729
29454W        W47658  18.554   9.999  13.399  0.1055  0.1054  0.1016
29455W        W47659   1.997  16.260  12.594  0.1326  0.0256 -0.2436
29456W        W47660   1.503  12.265   0.809 -0.0204  0.1943  0.0958
29457W        W47661   7.353   9.622  14.448  0.0397  0.2201  0.2943
29458W        W47662  13.767   9.579   0.672  0.1957  0.1219  0.1126
29459W        W47663   3.027  12.143  12.586  0.0724  0.1474 -0.0272
29460W        W47664  14.482   4.043   1.187 -0.2539 -0.1662  0.1721
29461W        W47665   3.883   5.707  14.476  0.1574  0.0845  0.0818
29462W        W47666   8.361  13.604   0.539  0.0367  0.4388  0.2874
29463W        W47667   8.980   4.912   0.347  0.1297 -0.3246  0.1007
29464W        W47668   4.681   7.091  10.673  0.2413 -0.0572  0.4119
29465W        W47669  18.324  16.755   4.372 -0.2330  0.5998  0.2678
29466W        W47670   6.818  12.732   5.392 -0.0540  0.0292 -0.0245
29467W        W47671  14.443   2.361  11.426  0.1794 -0.0758 -0.3089
29468W        W47672  16.254  16.301  12.046 -0.0639 -0.1013  0.2521
29469W        W47673  16.737  12.800   4.423 -0.0611  0.1006  0.0444
29470W        W47674  18.470  18.277   9.703  0.2228 -0.0205 -0.3690
29471W        W47675   6.109  17.026   4.785  0.0162  0.5318 -0.0556
29472W        W47676   6.414   5.028  10.682 -0.1466  0.1748  0.0384
29473W        W47677   8.525   8.439  11.841 -0.1780  0.3074 -0.0327
29474W        W47678  15.246   0.747  11.493 -0.2088 -0.1142 -0.0516
29475W        W47679  18.042   4.488   2.580 -0.1573  0.0184  0.1409
29476W        W47680   5.671   2.003  14.661 -0.0933  0.1440  0.0638
29477W        W47681   3.587  12.207  11.892 -0.1784 -0.0758 -0.1578
29478W        W47682   5.716  10.103  11.911 -0.2723  0.0870  0.2142
29479W        W47683  17.043  15.964  14.445  0.1769  0.0803  0.0720
29480W        W47684   4.051  11.106  13.125 -0.0495 -0.0769 -0.2656
29481W        W47685  11.567  10.423   2.023  0.0615  0.1813  0.0059
29482W        W47686   9.526   0.872  10.731 -0.1341 -0.2568  0.3443
29483W        W47687   2.280   6.315  11.546 -0.1077 -0.0542  0.1558
29484W        W47688  11.832   7.726  12.443  0.0650 -0.1125 -0.0887
29485W        W47689   8.265   0.950   1.154  0.2299 -0.1068  0.1529
29486W        W47690   5.098  15.908   4.545  0.5892  0.2663 -0.1649
29487W        W47691   8.270   3.616   3.175  0.0666  0.1673  0.3982
29488W        W47692   0.608   1.669  11.360 -0.0438 -0.0165 -0.2380
29489W        W47693   4.900   6.286   2.802 -0.2323  0.2261 -0.0359
29490W        W47694  16.758  15.574   0.063 -0.1696  0.0212  0.1898
29491W        W47695   1.244  11.730  10.791 -0.0565 -0.3796  0.3883
29492W        W47696  13.944  12.140  14.817 -0.2126  0.0928  0.0350
29493W        W47697  16.192  16.697   4.718  0.0067 -0.0282  0.2030
29494W        W47698   9.836   6.827  15.192  0.1617 -0.1672 -0.0741
29495W        W47699  11.279   3.748   0.550  0.1337  0.0020 -0.1014
29496W        W47700  12.471   9.452   2.428 -0.1585  0.0999 -0.2271
29497W        W47701   5.220   2.751   0.509 -0.0997 -0.1973  0.5310
29498W        W47702   1.688  13.273   1.274 -0.2890  0.1918 -0.1695
29499W        W47703   1.897   5.721   4.220 -0.1794 -0.0358 -0.0747
29500W        W47704  10.463  15.877  10.611  0.0015  0.3470 -0.0143
29501W        W47705  13.105  18.130   2.208  0.2913 -0.3390 -0.3293
29502W        W47706   0.717  15.548   0.037  0.1380 -0.0396 -0.0913
29503W        W47707   5.215   3.911  12.934  0.0824 -0.2887 -0.3130
29504W        W47708   1.389   0.090  12.459 -0.1757  0.1491  0.2147
29505ION     NA47709  15.210  17.943   2.523  0.0074  0.0595 -0.0422
29506ION     NA47710  10.480   4.982  10.247 -0.1269  0.0647 -0.0263
29507ION     NA47711  11.784  10.365  11.248  0.2921  0.0660  0.0101
29508ION     NA47712  18.168  18.068  10.030  0.0276  0.1907  0.1706
29509ION     NA47713   1.852  14.488   5.423 -0.1028  0.1795 -0.0611
29510ION     NA47714  16.380   8.080   5.551  0.1156 -0.2896  0.1954
29511ION     NA47715  12.594   9.308   3.586 -0.0916 -0.0767 -0.2318
29512ION     NA47716   5.168   5.640  12.736  0.1535  0.0019  0.0273
29513ION     NA47717   6.608  17.744  10.802  0.2631 -0.1862 -0.4098
29514ION     NA47718   8.899  14.243  10.091  0.0006  0.1392  0.0199
29515ION     NA47719   3.513   0.755  14.474  0.0506 -0.2660  0.1741
29516ION     NA47720   8.081   5.539  10.048 -0.0544  0.2471  0.1644
29517ION     NA47721   8.415   7.390   9.870  0.1574 -0.0455  0.2821
29518ION     NA47722  13.573   3.931  11.784 -0.2100 -0.0434  0.2211
29519ION     NA47723   8.690   3.918  14.385  0.3303  0.2376 -0.0842
29520ION     NA47724  17.143  10.114   5.733  0.1532  0.3746 -0.2096
29521ION     NA47725   8.619  17.727   0.709  0.0437 -0.0975 -0.0467
29522ION     NA47726   4.454   6.980  11.363 -0.0407  0.1053  0.0031
29523ION     NA47727   6.998   4.081   0.721 -0.1560 -0.0541  0.1916
29524ION     NA47728   5.770   0.260   0.885  0.1361 -0.1614 -0.0071
29525ION     NA47729  10.943   9.673  14.542  0.3186  0.1117  0.2662
29526ION     NA47730  16.268   5.393   4.253 -0.2860  0.0437 -0.0067
29527ION     NA47731  17.723   7.289  10.385 -0.4007 -0.2591 -0.1946
29528ION     NA47732  14.143  16.138   5.508 -0.3863 -0.5646  0.2760
29529ION     NA47733   1.313   3.943   5.254 -0.1840  0.4122  0.0051
29530ION     NA47734  10.398  17.910  10.266  0.0888 -0.3685  0.0645
29531ION     NA47735  12.150   5.377  13.155  0.0579  0.2353  0.0775
29532ION     NA47736   8.052  18.309   5.495 -0.4632  0.0231  0.0991
29533ION     NA47737   9.022  13.834   1.171  0.1426  0.1761  0.2660
29534ION     NA47738  16.996   9.768   4.090 -0.3033  0.1331  0.0480
29535ION     NA47739  16.352  13.755   1.429  0.1922 -0.1633 -0.0069
29536ION     NA47740  16.771  17.960  10.824  0.0838  0.3193  0.0614
29537ION     NA47741  16.714  17.399   4.769  0.0205  0.3298  0.0004
29538ION     NA47742   3.652  13.163  12.215 -0.0374  0.1487 -0.4108
29539ION     NA47743  13.674   2.037   5.428  0.0201  0.1751 -0.0313
29540ION     NA47744  13.856   7.166   5.209  0.1218  0.2610 -0.2276
29541ION     NA47745   8.487   2.700  10.385 -0.1944 -0.0131  0.1167
29542ION     NA47746   0.086  18.020  12.996 -0.0295 -0.0920 -0.4132
29543ION     NA47747   1.655   7.481  14.620 -0.1087  0.1128  0.1742
29544ION     NA47748   6.710  13.683  12.388  0.2270  0.0301  0.0756
29545ION     NA47749   4.389   4.791   5.062  0.2224  0.2213  0.2564
29546ION     NA47750  11.698   4.802  10.353  0.1403  0.0420  0.2517
29547ION     NA47751  17.143  13.649  10.567  0.0364 -0.0506  0.1675
29548ION     NA47752   5.084  13.725  10.183  0.2819 -0.3033  0.3854
29549ION     NA47753  10.483   7.067   5.356 -0.0397  0.1957 -0.2440
29550ION     NA47754  16.644  12.497   2.240  0.0819  0.1205 -0.1987
29551ION     NA47755  14.737  12.816   3.520 -0.1712  0.1616  0.1833
29552ION     NA47756  16.990   6.047  12.581 -0.0488 -0.0802  0.2684
29553ION     NA47757   1.493  10.507  10.285  0.3161  0.2009  0.0314
29554ION     NA47758   3.402   5.707   3.628  0.0116  0.1588 -0.0269
29555ION     NA47759  16.943   8.782   5.612 -0.0044  0.1851  0.2294
29556ION     NA47760  14.590  14.549  13.172  0.0182  0.0795 -0.2638
29557ION     NA47761  12.971  14.644  10.158 -0.0407 -0.1472 -0.0863
29558ION     NA47762  14.884  15.070  10.190 -0.0058  0.3801 -0.2574
29559ION     NA47763  13.379  12.362   4.078 -0.1782  0.1748  0.1074
29560ION     NA47764  17.002  11.102   2.693 -0.1587 -0.4500 -0.1433
29561ION     NA47765   5.224   8.576  10.789 -0.0036  0.1880  0.1629
29562ION     NA47766   2.260   4.910  12.759 -0.0447  0.3433 -0.0769
29563ION     NA47767   0.799   8.275  14.891 -0.0017  0.1636 -0.0324
29564ION     NA47768  11.071   0.791  11.869  0.1058  0.2961  0.1320
29565ION     NA47769   9.559  14.289   5.345  0.0551  0.0042  0.2988
29566ION     NA47770  18.140   4.679   5.210  0.0260  0.1831  0.0518
29567ION     NA47771   2.085   6.515   9.865  0.2672  0.1889  0.2049
29568ION     NA47772   2.986   0.091  14.764  0.1804  0.1673  0.1183
29569ION     NA47773   7.446  16.941   3.097 -0.2901  0.1602  0.0247
29570ION     NA47774   4.985  15.984  11.895 -0.1288 -0.0348 -0.2568
29571ION     NA47775   7.535   6.430   3.687  0.0721  0.1909  0.2427
29572ION     NA47776  11.114   5.874  14.287 -0.0433 -0.1842  0.0138
29573ION     NA47777   9.690  16.376   4.207  0.1652  0.1719  0.0721
29574ION     NA47778   8.255  13.846  13.869  0.1127 -0.1344  0.0810
29575ION     NA47779   9.064   9.747  14.993 -0.0478  0.1377 -0.3779
29576ION     NA47780   3.206   1.745   5.315 -0.1109  0.0288  0.0622
29577ION     NA47781  17.282   5.428  10.300 -0.4634 -0.1571 -0.2398
29578ION     NA47782   2.473   7.261   1.424  0.0125 -0.0745 -0.0442
29579ION     NA47783   3.409  15.608  10.002  0.3877  0.0900  0.1486
29580ION     NA47784  13.931   0.195   5.110  0.0405  0.2252  0.3133
29581ION     NA47785  13.827   7.869   9.809 -0.0766 -0.1187 -0.1541
29582ION     NA47786  14.175  15.238   5.450 -0.1201  0.0055 -0.1961
29583ION     NA47787   0.451   1.050   5.270  0.1793 -0.1402 -0.2878
29584ION     NA47788  10.855  14.085   3.104 -0.2070  0.1644  0.2568
29585ION     NA47789   6.803   5.920   2.569 -0.1420  0.0317  0.0865
29586ION     NA47790   6.419   2.854   3.082  0.2185  0.0776 -0.0874
29587ION     NA47791  13.380  10.932  11.386  0.2971  0.3323 -0.1734
29588ION     NA47792   2.759  15.590   5.630  0.0493  0.1003 -0.2818
29589ION     NA47793  16.376  12.954  14.985 -0.2842 -0.1191 -0.0602
29590ION     NA47794   4.652  16.501  11.118 -0.1332 -0.1015 -0.0675
29591ION     NA47795   9.851   0.523  10.398 -0.0348  0.0013  0.3767
29592ION     NA47796   4.309   9.446   9.920 -0.2384 -0.0384  0.5297
29593ION     NA47797  14.090   6.248   5.376 -0.4433  0.0775  0.0725
29594ION     NA47798   9.744  12.282   4.731 -0.1149 -0.0320 -0.1183
29595ION     NA47799  14.382   1.015  10.247  0.0768 -0.2044 -0.1200
29596ION     NA47800   5.710   0.757  14.709  0.1011  0.0159  0.3339
29597ION     NA47801  14.488   6.551   9.892  0.1320 -0.0652  0.0408
29598ION     NA47802  10.351  14.856   0.539  0.1099  0.2323  0.1894
29599ION     NA47803   0.964   4.904   1.278 -0.0801 -0.1236  0.1292
29600ION     NA47804   9.609   4.225  10.222  0.0533  0.0714 -0.1960
29601ION     NA47805  15.718  11.925  14.834 -0.1322  0.0855 -0.0433
29602ION     NA47806  16.151  11.218   4.809  0.3919  0.1276  0.2036
29603ION     NA47807   5.923  13.610   5.597 -0.0187  0.0183 -0.0164
29604ION     NA47808   8.242   0.378  14.888  0.2274  0.0095 -0.2512
29605ION     NA47809  15.313  15.991  10.384  0.1721  0.4139  0.1026
29606ION     NA47810   4.229   1.429   1.488  0.1298 -0.1844  0.0543
29607ION     NA47811  12.712   5.231   0.529  0.1005 -0.1600  0.3133
29608ION     NA47812   9.039  12.926  10.254 -0.1306 -0.3550 -0.2360
29609ION     NA47813   0.112  12.257  10.248  0.1033  0.1166 -0.2735
29610ION     NA47814   1.787  15.867  14.515  0.0801  0.0430 -0.0389
29611ION     NA47815   3.168   1.794  10.172 -0.1707  0.1113  0.0591
29612ION     NA47816  13.602   3.809  10.322 -0.2472  0.0244  0.4161
29613ION     NA47817  18.008   5.158   0.048  0.1107  0.1412  0.1706
29614ION     NA47818   1.391  17.503  10.562 -0.1256 -0.2233  0.0165
29615ION     NA47819  13.916  11.146  10.222 -0.1972 -0.1605 -0.0988
29616ION     NA47820  16.902   2.350   9.734  0.0304 -0.0512 -0.3986
29617ION     NA47821  16.344  13.057   5.674  0.1022 -0.0722 -0.2918
29618ION     NA47822   1.033  12.571  10.462  0.2723  0.2997 -0.0308
29619ION     NA47823   6.413   0.293   0.330  0.1350  0.0641 -0.0511
29620ION     NA47824  15.552  11.303   4.014  0.1040 -0.2160 -0.0059
29621ION     NA47825  15.186  10.113   5.528 -0.1467 -0.1762 -0.0137
29622ION     NA47826   1.391  12.729   5.205 -0.2731  0.1107  0.1042
29623ION     NA47827   9.740  17.444  10.414  0.1360  0.1028 -0.0916
29624ION     NA47828  11.594  13.660   2.109  0.0097  0.2071  0.1075
29625ION     NA47829  12.518   5.163   9.866  0.0336 -0.1105  0.0759
29626ION     NA47830   4.413  17.729   5.799  0.0198 -0.0252 -0.0790
29627ION     NA47831  14.535   9.354   5.406  0.2021 -0.2461  0.2934
29628ION     NA47832   9.921   8.186   9.955 -0.1408 -0.0629  0.0748
29629ION     NA47833   3.414  15.161  10.252  0.3453 -0.1197  0.1620
29630ION     NA47834   6.679  11.906   5.435  0.0663 -0.0880 -0.0710
29631ION     NA47835   1.924  12.369  10.352 -0.2009  0.0031 -0.0978
29632ION     NA47836   1.315   1.462   4.392 -0.0871  0.1081 -0.0330
29633ION     NA47837  13.568   8.951   2.209  0.0873 -0.1012  0.2639
29634ION     NA47838  17.521  15.788  10.407 -0.3305 -0.0741 -0.2778
29635ION     NA47839  13.688  16.641   3.832  0.2330 -0.2118 -0.0589
29636ION     NA47840   1.406  11.864   5.358  0.2543  0.2111 -0.0268
29637ION     NA47841  12.406   8.304   5.258  0.0958  0.3810  0.1119
29638ION     NA47842  11.948  15.865  14.033 -0.2881 -0.3163  0.0989
29639ION     NA47843   0.992   2.819   0.154  0.0711 -0.3267 -0.2085
29640ION     NA47844  12.347   2.469  10.629 -0.1654 -0.1415  0.0346
29641ION     NA47845  10.109  18.351  10.407  0.1461 -0.0685 -0.2261
29642ION     NA47846   1.121   6.083  13.428  0.0297  0.3703  0.1605
29643ION     NA47847  14.726  12.256  10.357  0.1436  0.3590 -0.0832
29644ION     NA47848   6.285   5.887   0.253  0.2229  0.3263  0.1300
29645ION     NA47849   3.875   6.619  10.044 -0.1113 -0.0391 -0.1220
29646ION     NA47850   9.626  18.394   5.378 -0.0686  0.0526  0.0134
29647ION     NA47851  10.286  12.475  15.237  0.1072  0.0257 -0.0502
29648ION     NA47852   7.416  11.965   5.150 -0.4646 -0.0138  0.1235
29649ION     NA47853   1.494   9.164  10.376 -0.1883 -0.0614  0.0150
29650ION     NA47854   8.821   0.164   5.523 -0.1754 -0.0331  0.1089
29651ION     NA47855  16.684  13.451   3.286 -0.3478 -0.0485 -0.2122
29652ION     NA47856  12.426  10.149   4.904 -0.0343  0.2152  0.0031
29653ION     NA47857  17.353  11.848  10.432 -0.0598  0.1204 -0.2540
29654ION     NA47858  13.958   7.023   3.397  0.1222 -0.3256 -0.0355
29655ION     NA47859   6.915   4.969   5.134  0.2182  0.1997  0.1080
29656ION     NA47860  13.421   1.443   5.363 -0.3081  0.1743  0.0782
29657ION     NA47861   7.107   7.592   9.669 -0.1623 -0.0293  0.0297
29658ION     NA47862  10.320  16.675  10.204 -0.0196  0.0349  0.0070
29659ION     NA47863   9.061   9.209   0.898  0.0453 -0.3088 -0.1809
29660ION     NA47864  13.181   7.555  13.266  0.1953 -0.2482 -0.0796
29661ION     NA47865   1.276   4.901   5.068 -0.0665 -0.1812  0.0707
29662ION     NA47866  12.600  11.055  10.163  0.1334 -0.2928  0.1288
29663ION     NA47867  13.034  14.486   5.188 -0.1887 -0.3170 -0.2014
29664ION     NA47868   4.842  10.721   1.004 -0.1552  0.0444 -0.2035
29665ION     NA47869   6.241   2.106  14.019  0.0543  0.1847  0.0644
29666ION     NA47870  13.252  17.092   1.312  0.2164  0.0399  0.0660
29667ION     NA47871  12.269   1.157  10.215  0.0045  0.1580 -0.1140
29668ION     NA47872   1.835   4.485  13.138 -0.1651 -0.1322 -0.0955
29669ION     NA47873   2.349  12.192  13.931 -0.0537 -0.0821 -0.0995
29670ION     NA47874   5.364   3.030   5.325 -0.0736  0.0526  0.0877
29671ION     NA47875   3.035  15.438   2.730  0.0965  0.2153 -0.1788
29672ION     NA47876   3.889   4.573   9.880 -0.3762  0.1326 -0.4236
29673ION     NA47877   6.722   9.346   4.455 -0.1346 -0.0818 -0.1225
29674ION     NA47878  15.370  15.037  10.178  0.0335 -0.3745 -0.1935
29675ION     NA47879   2.919   4.345  10.286 -0.0379 -0.0810 -0.2344
29676ION     NA47880   3.051   4.040   4.371 -0.0694 -0.0147  0.0175
29677ION     NA47881  16.758   0.389  10.831 -0.0510 -0.1979  0.0625
29678ION     NA47882   9.657  11.203  10.208  0.0119  0.1101 -0.0516
29679ION     NA47883   1.315  15.398  10.327 -0.3024 -0.1679  0.0321
29680ION     NA47884   4.478   0.208   5.825 -0.0237 -0.0884  0.1073
29681ION     NA47885   5.283   1.989  15.049 -0.0154  0.1047  0.3201
29682ION     NA47886  15.732  13.887  10.259 -0.0786 -0.0834  0.1153
29683ION     NA47887   9.540   9.263   2.930 -0.1681 -0.0881 -0.2833
29684ION     NA47888  12.038   0.416   5.502  0.0108 -0.0338  0.1198
29685ION     NA47889  13.039   7.173   5.510  0.0019  0.0217  0.1504
29686ION     NA47890   5.849   9.388  10.109  0.0889 -0.0329 -0.1358
29687ION     NA47891   3.180   8.050   0.082  0.1841  0.0633  0.1640
29688ION     NA47892   7.858  18.129  10.530  0.0227  0.2343  0.1857
29689ION     NA47893  16.500  16.773   3.827  0.3410 -0.1118 -0.0023
29690ION     NA47894   9.326   8.026   5.222  0.1369  0.4509  0.3206
29691ION     NA47895   0.105  16.221  14.680  0.2601 -0.1190 -0.1808
29692ION     NA47896  16.712  17.074  10.161 -0.2141 -0.0025 -0.0690
29693ION     NA47897  18.566  17.332  10.390  0.1297 -0.0451  0.2748
29694ION     NA47898   6.136   8.595   0.515  0.4526  0.1951 -0.0266
29695ION     NA47899   1.158  13.104  13.431  0.0718  0.1362 -0.1444
29696ION     NA47900  13.097   8.323   1.603  0.0656  0.0650 -0.0207
29697ION     NA47901   7.652   9.955  10.161 -0.0969  0.2003  0.0228
29698ION     NA47902  15.097  17.640  15.130  0.2042  0.1955 -0.2164
29699ION     NA47903   5.155   2.017   5.488 -0.2110  0.0885  0.0895
29700ION     NA47904   1.332   5.264  14.608 -0.0243  0.1523 -0.0634
29701ION     NA47905   7.490   4.404   9.985 -0.0933 -0.2619 -0.2072
29702ION     NA47906  14.136   6.792   0.320  0.0301  0.0263  0.1006
29703ION     NA47907  13.963   1.896  10.249 -0.0312 -0.2597 -0.0934
29704ION     NA47908  18.563  11.749   5.503  0.2779 -0.0410  0.0879
29705ION     NA47909  12.178   7.287  10.084 -0.0266  0.0779 -0.0375
29706ION     NA47910  17.292  14.264  12.642 -0.0180 -0.4412  0.0860
29707ION     NA47911  16.796   4.923   5.311 -0.1335 -0.1885  0.1627
29708ION     NA47912   3.360   6.411  14.035  0.0181  0.0114  0.1230
29709ION     NA47913   4.570  18.592  12.846 -0.0754 -0.2126 -0.3240
29710ION     NA47914  13.993  14.153  10.491  0.1488  0.1573  0.4051
29711ION     NA47915   0.179  15.663   0.149  0.1083  0.0287 -0.0155
29712ION     NA47916  10.404   0.734   4.825  0.0204  0.1928 -0.0804
29713ION     NA47917   0.505   8.909   5.463  0.0870 -0.0152 -0.1169
29714ION     NA47918   2.663  10.287   1.529 -0.3339  0.0548 -0.0218
29715ION     NA47919  12.134   5.909   3.349 -0.2196  0.0770  0.0473
29716ION     NA47920   6.216   0.986   3.205  0.0486 -0.0192 -0.0702
29717ION     NA47921   6.040  14.839   5.573  0.0995  0.0452  0.2580
29718ION     NA47922  18.078   5.057  11.259  0.1338 -0.1734 -0.1478
29719ION     NA47923  17.435  16.904  12.588 -0.3027  0.3242 -0.0823
29720ION     NA47924  12.918   4.226  10.008  0.0350  0.2445 -0.1958
29721ION     NA47925  11.772   6.514   5.351 -0.0062  0.2695  0.2168
29722ION     NA47926  13.496   3.185   2.533  0.1842  0.0679  0.1071
29723ION     NA47927  16.486  14.290  14.754 -0.0193 -0.0039 -0.2076
29724ION     NA47928   1.276  15.217   5.678  0.0501 -0.0072  0.1197
29725ION     NA47929  13.673  11.234   0.846  0.1174  0.1995 -0.0098
29726ION     NA47930   4.758  18.320  10.408 -0.0987 -0.2646 -0.1136
29727ION     NA47931   7.090   9.461  12.644  0.0541  0.0288  0.2480
29728ION     NA47932  13.574   7.888  15.003 -0.0561  0.2209 -0.3476
29729ION     NA47933   0.094   7.922  10.314 -0.2807  0.1163 -0.0703
29730ION     NA47934   6.761   3.942  10.147 -0.0170  0.1408  0.3034
29731ION     NA47935   1.530  16.647   1.325 -0.0442  0.0195  0.1637
29732ION     NA47936  11.104   3.920   5.395  0.1271 -0.0812  0.0230
29733ION     NA47937  15.745   3.935   3.270  0.1023 -0.0863  0.2240
29734ION     NA47938  11.107  10.806  10.650 -0.0033  0.2699 -0.2703
29735ION     NA47939  12.689   8.076  12.490 -0.1041  0.2999 -0.0508
29736ION     NA47940   6.105   2.333   0.193 -0.1589  0.4799  0.3713
29737ION     NA47941   8.141  12.720  10.173  0.1635 -0.0989  0.5143
29738ION     NA47942  16.966   1.916  13.923  0.0413  0.2109 -0.1698
29739ION     NA47943   0.098  13.993   5.388  0.3290  0.2423 -0.0096
29740ION     NA47944   7.444   0.304  10.675  0.3122  0.2332  0.1114
29741ION     NA47945  11.302  16.095   0.917 -0.1602 -0.1702  0.0013
29742ION     NA47946   7.506  17.258  10.604  0.0441 -0.1883 -0.1998
29743ION     NA47947   2.289   9.199  10.226 -0.2814 -0.0015 -0.0232
29744ION     NA47948   8.469   9.239   9.917 -0.0370  0.0466 -0.2412
29745ION     NA47949  16.908  14.759   4.353  0.1411 -0.1539  0.0119
29746ION     NA47950  14.087  17.933  10.227 -0.0971  0.1830  0.1904
29747ION     NA47951   7.285  15.638   0.479  0.1494 -0.1838  0.0365
29748ION     NA47952   9.532  10.308  10.153  0.1023 -0.0082  0.1231
29749ION     NA47953  17.125   1.620  12.961 -0.0973 -0.0969  0.4677
29750ION     NA47954  12.826  13.185   1.095  0.0215 -0.3277 -0.1143
29751ION     NA47955   1.343  10.608   2.906 -0.0228  0.1429  0.2221
29752ION     NA47956   1.154   0.455   0.740  0.1370 -0.1451  0.0989
29753ION     NA47957  14.050   5.454  11.879  0.4225  0.1029  0.0017
29754ION     NA47958   3.647  14.529  14.746  0.3085 -0.0899  0.1260
29755ION     NA47959  14.431   3.127   1.116 -0.0803  0.0097  0.2022
29756ION     NA47960  15.338  18.405  10.263  0.2924  0.3327  0.0499
29757ION     NA47961  15.833   9.720  14.726 -0.1962 -0.1494  0.1017
29758ION     NA47962  11.195  16.345  10.281 -0.0441 -0.2883 -0.1179
29759ION     NA47963   2.821   5.706   5.131  0.0433 -0.3025 -0.0328
29760ION     NA47964  16.076   8.787   2.048 -0.3265  0.2283  0.4909
29761ION     NA47965  11.209  17.541  15.316  0.0695 -0.2225 -0.1262
29762ION     NA47966  15.775  14.410  10.301 -0.0507  0.0433 -0.1375
29763ION     NA47967   0.584   2.633   5.305 -0.3581  0.2223  0.5684
29764ION     NA47968  12.982  12.501  14.580 -0.1812 -0.0332 -0.0794
29765ION     NA47969   2.931   5.199  10.003 -0.1799  0.0868 -0.0277
29766ION     NA47970  10.720  15.036   5.599  0.0673  0.1473 -0.0451
29767ION     NA47971   7.778   5.271   5.140  0.0939 -0.3219  0.0208
29768ION     NA47972   8.919  10.516   5.417 -0.0448 -0.2485  0.3349
29769ION     NA47973  12.737  16.345  10.288 -0.1102  0.0719 -0.0279
29770ION     NA47974   1.557  11.982  13.684 -0.4341 -0.0139 -0.2060
29771ION     NA47975   5.997  16.622  12.601 -0.1559 -0.1660 -0.3493
29772ION     NA47976   6.378   2.695   5.415 -0.0713  0.1118 -0.5298
29773ION     NA47977   0.591  12.377   5.171  0.2559 -0.2039 -0.0409
29774ION     NA47978   6.733  12.978  10.119 -0.2518 -0.2980  0.0347
29775ION     NA47979   6.758  10.282  10.890 -0.1903 -0.1363  0.3009
29776ION     NA47980  14.284  12.039   4.965  0.2250  0.0853  0.0210
29777ION     NA47981  11.054  18.401   5.612 -0.2928 -0.2051 -0.2384
29778ION     NA47982   1.282   0.861   9.981  0.1896  0.2298  0.0754
29779ION     NA47983   0.355  17.640  12.229  0.0183  0.2747 -0.0501
29780ION     NA47984   2.159  16.442   3.598 -0.1697 -0.0723  0.4675
29781ION     NA47985   9.232   9.307  13.252  0.0259  0.2060  0.0684
29782ION     NA47986   8.046  16.727   5.472  0.0630 -0.1198 -0.1189
29783ION     NA47987  14.679  15.027   4.687 -0.0895 -0.0733  0.3157
29784ION     NA47988  17.519   3.146   9.881  0.5031  0.0701 -0.0782
29785ION     NA47989   8.656   4.289   3.180 -0.0991  0.1422  0.0976
29786ION     NA47990   6.205  15.064   0.485  0.0088  0.0711 -0.1558
29787ION     NA47991   3.296  13.108  14.941  0.0743 -0.2348  0.0686
29788ION     NA47992  14.865   2.926   5.557 -0.2494  0.3582 -0.0860
29789ION     NA47993  14.362   2.682  10.029  0.3249 -0.0867  0.1104
29790ION     NA47994   8.036   6.683   4.872 -0.1367 -0.1578 -0.0438
29791ION     NA47995  17.510   2.806  12.840  0.0360 -0.4905 -0.0442
29792ION     NA47996   8.322   0.748   5.342  0.2565 -0.3340  0.1016
29793ION     NA47997  10.783  11.048  14.149  0.0858 -0.0055  0.0502
29794ION     NA47998   0.680  14.509   5.518  0.0151 -0.2411  0.0449
29795ION     NA47999   8.308   6.667  11.736 -0.0565  0.0262  0.1713
29796ION     NA48000   4.642   6.381  12.322 -0.2256  0.0762 -0.0126
29797ION     NA48001   9.710  12.746  11.182 -0.5158 -0.1498 -0.5336
29798ION     NA48002   8.166  10.358  13.442  0.0281 -0.0332 -0.1833
29799ION     NA48003  18.135  11.831  10.945  0.2500 -0.0996 -0.2240
29800ION     NA48004   3.913  13.156   5.126 -0.0491 -0.4319  0.0661
29801ION     NA48005  10.509  11.729   5.002  0.3713 -0.3162  0.3019
29802ION     NA48006   7.857  16.948  10.959 -0.1293 -0.0837  0.2745
29803ION     NA48007  10.930   4.887   4.805  0.1320 -0.0730  0.1908
29804ION     NA48008   7.038   8.485   0.050 -0.0916 -0.1664  0.0044
29805ION     NA48009   2.136   1.741   5.438 -0.1848 -0.0321  0.0733
29806ION     NA48010   2.236  12.541   1.733 -0.1084  0.0140  0.0543
29807ION     NA48011  18.324  17.113  14.141 -0.0760  0.2486  0.1066
29808ION     NA48012  16.554  15.686  10.482 -0.3266 -0.0909  0.1434
29809ION     NA48013  14.678   0.436  15.057 -0.1047  0.0832  0.0941
29810ION     NA48014   3.070   6.818   4.843  0.0584  0.2716  0.0019
29811ION     NA48015   1.375   6.636   9.852 -0.1923 -0.2608 -0.0247
29812ION     NA48016  13.035  18.237   4.430 -0.0125  0.1295 -0.1833
29813ION     NA48017   5.312   6.480  13.176  0.2568  0.2095 -0.2959
29814ION     NA48018  12.403   8.873   9.896  0.3000 -0.0654 -0.0474
29815ION     NA48019  10.272   5.669  13.048  0.3259  0.1816 -0.2217
29816ION     NA48020  17.413  17.543   9.951  0.0758  0.3586  0.1514
29817ION     NA48021   6.404   6.778   9.760 -0.3755 -0.0845 -0.1004
29818ION     NA48022  17.628   2.375   0.494 -0.0579 -0.1503 -0.0244
29819ION     NA48023  10.721  17.751   5.230  0.3337  0.3693  0.0749
29820ION     NA48024  10.453   6.377   4.253 -0.0038  0.1721  0.2555
29821ION     NA48025  16.656   9.689  10.748 -0.0121  0.1071 -0.1120
29822ION     NA48026   0.035  15.023   5.111  0.1475 -0.1580  0.0083
29823ION     NA48027  14.726   6.639   5.472  0.0570  0.0924  0.1460
29824ION     NA48028   1.573  14.250   1.321  0.3934  0.0951  0.1292
29825ION     NA48029   2.140   4.411  10.911  0.2481 -0.1129 -0.3458
29826ION     NA48030   5.599  13.910   2.901  0.0248  0.1233  0.0042
29827ION     NA48031   6.923  15.701   4.882  0.1844  0.0177 -0.1193
29828ION     NA48032   6.756   7.648   0.291 -0.2464  0.3053  0.0689
29829ION     NA48033   4.977   0.692  10.373 -0.1725  0.0765  0.0203
29830ION     NA48034   8.391   2.177   5.230  0.0003  0.0732  0.0863
29831ION     NA48035   8.962  15.499   5.633 -0.0278 -0.1796  0.1590
29832ION     NA48036  16.227   0.218  13.687  0.0379 -0.1486 -0.1515
29833ION     NA48037  17.461   6.984   4.218  0.2587 -0.1330 -0.2099
29834ION     NA48038   0.101   8.330  13.944  0.0197 -0.1078  0.0355
29835ION     NA48039   5.999  13.699   1.886  0.0778 -0.2193 -0.0460
29836ION     NA48040  13.799   8.136  10.317 -0.1088 -0.0314  0.0326
29837ION     NA48041  15.171   1.388   0.623 -0.0441  0.0059 -0.1184
29838ION     NA48042  15.917  18.477  14.665  0.1297  0.1099 -0.0632
29839ION     NA48043   9.339   6.302   1.551  0.2332  0.1226 -0.0351
29840ION     NA48044   2.781  10.546   4.911  0.1030 -0.1704  0.2110
29841ION     NA48045   2.531   3.561  10.060 -0.0051  0.0038 -0.0660
29842ION     NA48046  14.034  13.631   2.126  0.1002 -0.1200  0.1549
29843ION     NA48047   1.690   0.337   5.378  0.0522 -0.0584 -0.3908
29844ION     NA48048   0.190  10.590   1.709 -0.0962 -0.2854  0.0369
29845ION     NA48049   8.287  14.937   5.711  0.1092  0.1193  0.1012
29846ION     NA48050  11.770   8.522  14.087  0.1326 -0.0020 -0.0205
29847ION     NA48051  12.580   7.616   1.314  0.1322  0.1933 -0.1529
29848ION     NA48052   3.654  11.727   9.945 -0.0180 -0.1449  0.3404
29849ION     NA48053   3.836   7.358  13.616  0.1320  0.1149 -0.1701
29850ION     NA48054   9.046  16.803  10.687  0.2996 -0.0886  0.0964
29851ION     NA48055   2.223  13.103   5.276  0.2096  0.0680  0.2210
29852ION     NA48056   0.897  16.946  11.724  0.4860  0.2216 -0.3690
29853ION     NA48057   6.434  18.449   3.059  0.5166 -0.0395 -0.0496
29854ION     NA48058   0.573  12.734  12.998  0.3357 -0.3149  0.0142
29855ION     NA48059   5.220  17.287  12.892  0.1207 -0.0126 -0.1263
29856ION     NA48060   6.055   9.731  14.001 -0.2100  0.2455  0.1864
29857ION     NA48061   5.153  12.023   5.443 -0.4385  0.0912  0.0166
29858ION     NA48062   4.961   4.358  10.125 -0.1125 -0.1082 -0.1499
29859ION     NA48063  15.157   1.481  10.378  0.1679  0.0798 -0.2703
29860ION     NA48064  11.544  18.502  12.244 -0.0244  0.4382 -0.1140
29861ION     NA48065  13.252  12.979  11.610 -0.0409 -0.3200 -0.0803
29862ION     NA48066   0.907   0.453  11.820  0.2388  0.0136 -0.1509
29863ION     NA48067   3.676   1.124  13.697  0.2136  0.0186  0.1911
29864ION     NA48068   7.304  10.528  11.753  0.0921  0.0779  0.1375
29865ION     NA48069  10.047  16.672   2.594 -0.0665 -0.1954 -0.0191
29866ION     NA48070  15.510  10.219  10.308 -0.0367  0.0599 -0.0228
29867ION     NA48071  17.324   7.951   1.308  0.0510  0.0356 -0.1236
29868ION     NA48072   2.756  10.334   5.383 -0.6653 -0.3383  0.1395
29869ION     NA48073   9.617   4.273   5.302 -0.3391 -0.4122  0.1522
29870ION     NA48074  11.484   3.013   5.259 -0.0593 -0.1980 -0.1886
29871ION     NA48075   9.411   5.282  12.757 -0.1276 -0.0217 -0.3030
29872ION     NA48076   2.654   6.218  12.476  0.1147  0.0393  0.4585
29873ION     NA48077  14.327   7.292   9.763 -0.0992 -0.1617  0.0174
29874ION     NA48078  12.207   4.038  10.356  0.0716  0.3362 -0.1878
29875ION     NA48079  13.095  14.498  14.320 -0.0688  0.4601 -0.0342
29876ION     NA48080   9.916   9.361   5.429  0.3063  0.1216  0.1761
29877ION     NA48081   7.826   7.173  12.495  0.3017  0.0020 -0.0361
29878ION     NA48082   2.210   1.846  10.121  0.0266  0.1764 -0.0886
29879ION     NA48083   8.247  14.058   0.794  0.1239 -0.0121  0.1998
29880ION     NA48084   1.868  16.095   0.066 -0.1853 -0.2147 -0.0078
29881ION     NA48085   1.971  14.000  10.192  0.0697  0.3477  0.1380
29882ION     NA48086   7.149   9.078   5.338  0.0994  0.0828  0.1261
29883ION     NA48087   3.157   8.113  12.151  0.0040 -0.1040 -0.0417
29884ION     NA48088   6.605   5.964   9.816  0.0542 -0.0634  0.0621
29885ION     NA48089  16.752  18.015  10.046  0.0394 -0.3661  0.0859
29886ION     NA48090   7.888   4.601  14.595 -0.1793 -0.0445  0.2237
29887ION     NA48091   6.534   8.527   5.201  0.3511 -0.1608  0.1713
29888ION     NA48092  16.755  11.773   5.925 -0.0529  0.1335 -0.2367
29889ION     NA48093  12.640   0.716  14.142 -0.0447  0.0430  0.1832
29890ION     NA48094  13.363   0.387  12.182 -0.0320  0.0051 -0.0354
29891ION     NA48095  13.365  18.503   0.734 -0.1035 -0.2706  0.3057
29892ION     NA48096   0.323  16.231  10.363  0.1085  0.0211  0.0267
29893ION     NA48097  14.639   4.134   5.359  0.0681 -0.0335 -0.1258
29894ION     NA48098  14.185  16.120   1.045  0.1332 -0.0559 -0.1057
29895ION     NA48099  13.139  12.891   2.870  0.2121  0.0319  0.1688
29896ION     NA48100  11.265  15.499  10.497  0.0753  0.2728 -0.2099
29897ION     NA48101   7.629   9.204  14.299 -0.0918 -0.1845 -0.1474
29898ION     NA48102   8.237   7.838  13.972  0.3067 -0.0496 -0.0596
29899ION     NA48103  10.672   8.137  11.859 -0.2356  0.0916 -0.0979
29900ION     NA48104   8.320  14.130   3.797 -0.0440  0.0017  0.2152
29901ION     NA48105   5.887  15.341  10.197 -0.1795 -0.0585  0.0869
29902ION     NA48106   7.680  16.851  14.492  0.1151  0.1592  0.1351
29903ION     NA48107  11.083   3.043  10.610 -0.0796  0.0241 -0.2084
29904ION     NA48108   6.892  17.902  13.879  0.2749  0.1063  0.0067
29905ION     NA48109  15.726   2.315  10.559  0.1496  0.2658  0.0688
29906ION     NA48110   2.230   1.119   4.946 -0.0660 -0.1283 -0.4298
29907ION     NA48111   6.874  18.037   0.415 -0.2706 -0.4935 -0.0276
29908ION     NA48112  11.062   7.759   5.280 -0.0300  0.1696  0.3380
29909ION     NA48113  17.652  17.246   4.262 -0.0495 -0.1269 -0.0046
29910ION     NA48114   8.334  17.455  10.701  0.0329 -0.0495  0.1968
29911ION     NA48115  17.570  12.726   5.626 -0.1713 -0.0863 -0.0557
29912ION     NA48116  15.613  10.749   1.099 -0.2546  0.3947  0.2555
29913ION     NA48117   0.069  10.427  10.656 -0.3376  0.0513  0.0845
29914ION     NA48118  13.843  12.111  10.044 -0.2765 -0.2627 -0.2855
29915ION     NA48119   0.111  16.540   5.194  0.0530 -0.0235  0.2349
29916ION     NA48120  11.298   0.006   3.838  0.2236  0.0147 -0.0385
29917ION     NA48121  12.546   6.019  15.007 -0.0329  0.2308  0.3135
29918ION     NA48122  10.400   3.325   2.801  0.2499  0.0175 -0.1096
29919ION     NA48123   9.848   1.691  10.582  0.1662  0.0871 -0.1038
29920ION     NA48124  11.875  16.211  11.012  0.3003  0.2730 -0.1703
29921ION     NA48125  14.673   8.146   9.895 -0.1054 -0.0896 -0.2175
29922ION     NA48126  12.387  10.976   2.781  0.1028  0.1245 -0.0724
29923ION     NA48127   3.739   6.603  12.725  0.0212 -0.1887  0.2282
29924ION     NA48128  16.711  17.371   2.491  0.0843  0.0193 -0.1257
29925ION     NA48129   2.900  12.524   5.332  0.1074 -0.1238 -0.0792
29926ION     NA48130  10.699  12.852  15.272 -0.0790 -0.1398  0.0220
29927ION     NA48131   2.151   6.105   5.078 -0.2915  0.0771 -0.1907
29928ION     NA48132  16.660  13.768  10.471  0.1209 -0.0368 -0.1173
29929ION     NA48133   4.463  15.733   5.760  0.0181  0.1223  0.3506
29930ION     NA48134   1.448   5.566   4.385  0.0011  0.1138 -0.0420
29931ION     NA48135  15.272   2.615  15.116 -0.0869 -0.1464 -0.1144
29932ION     NA48136  18.011  18.176   0.362  0.0625 -0.3292 -0.2907
29933ION     NA48137  15.213  13.964  13.855  0.2184 -0.1711 -0.1346
29934ION     NA48138  18.105   0.446  14.656  0.2710  0.1155  0.0341
29935ION     NA48139   1.528  18.579  11.279 -0.1223 -0.1343 -0.1809
29936ION     NA48140   8.885  14.376  13.471  0.1435 -0.1449 -0.0606
29937ION     NA48141   2.574  12.875   4.515  0.0530 -0.0459  0.1250
29938ION     NA48142   5.283   0.908   3.042 -0.0039  0.0823  0.0825
29939ION     NA48143   0.741   0.334  10.032  0.3428 -0.1939 -0.2071
29940ION     NA48144  16.360  15.117  10.180 -0.3975  0.1401  0.6090
29941ION     NA48145  15.484   4.011  14.191 -0.1060  0.1494  0.1469
29942ION     NA48146   2.558   8.875   5.538  0.2322  0.0719  0.3104
29943ION     NA48147   7.910  15.756   5.695 -0.2472 -0.2282  0.1959
29944ION     NA48148  18.217   6.377   5.225 -0.2903 -0.4024  0.1525
29945ION     NA48149  16.026   3.509  13.355 -0.1113 -0.2803 -0.0943
29946ION     NA48150  15.871  14.914  10.921  0.3310  0.1927 -0.0011
29947ION     NA48151   8.797   9.161   2.271  0.0976 -0.0353  0.0815
29948ION     NA48152  11.553  10.132  10.162  0.2972 -0.0975 -0.5055
29949ION     NA48153  17.004  14.750  10.347  0.2137  0.0663 -0.0860
29950ION     NA48154   2.310   2.263  13.311  0.0048 -0.0867 -0.3592
29951ION     NA48155  15.913   1.671  11.132  0.4443 -0.1778  0.1179
29952ION     NA48156   8.577   4.360  10.212 -0.1776 -0.0971 -0.2398
29953ION     NA48157   4.488  15.795   1.225 -0.3047 -0.1475 -0.1831
29954ION     NA48158  17.459  13.383   2.029 -0.0244 -0.1102 -0.2233
29955ION     NA48159   8.224  15.044  10.377 -0.3445  0.2406  0.0851
29956ION     NA48160   8.738   4.757   5.284 -0.0385 -0.1282 -0.4917
29957ION     NA48161   6.828   4.171   5.196 -0.1143 -0.0377 -0.1077
29958ION     NA48162  14.823  10.971  10.538  0.1871 -0.3692  0.0167
29959ION     NA48163   2.210   7.357   9.890 -0.0197  0.1264 -0.2196
29960ION     NA48164   3.450   6.282  11.732  0.1119 -0.3614 -0.0796
29961ION     NA48165  15.358   6.113   9.776  0.0257  0.2440  0.1924
29962ION     NA48166   6.848  12.794  15.232 -0.0782 -0.3084 -0.0386
29963ION     NA48167  11.786   0.239  10.115  0.1373  0.2069  0.0199
29964ION     NA48168  15.222  11.627  11.263  0.2039 -0.0790 -0.0872
29965ION     NA48169   9.553  18.349   2.277 -0.1309 -0.1285  0.3495
29966ION     NA48170   7.718   6.754   9.845  0.0091 -0.0228 -0.2177
29967ION     NA48171  17.978   8.760   5.543  0.0022  0.0191 -0.0222
29968ION     NA48172  13.141   6.163   5.497  0.3664  0.0150  0.0012
29969ION     NA48173  12.113   1.580   0.128  0.1766  0.1023 -0.1433
29970ION     NA48174   9.327  10.809   0.686  0.0397  0.0164 -0.4230
29971ION     NA48175  18.087  14.060  10.536  0.1527  0.1178  0.1858
29972ION     NA48176   4.027   3.334   0.494 -0.0698 -0.2657  0.0349
29973ION     NA48177   1.331  13.153   3.626 -0.1012 -0.1015 -0.3180
29974ION     NA48178   4.299  12.528   5.566  0.2195 -0.0027 -0.0204
29975ION     NA48179   8.412   5.690  13.983  0.1099 -0.0313 -0.0434
29976ION     NA48180   5.206   4.256   4.956 -0.1783  0.1270  0.0534
29977ION     NA48181   0.268   4.744   9.972  0.2822  0.4371  0.0986
29978ION     NA48182   3.510   0.011   1.495  0.2374 -0.1447 -0.2224
29979ION     NA48183   8.694   8.263   3.248  0.0241 -0.2642 -0.0925
29980ION     NA48184   8.488   7.939   5.234  0.2199  0.1485 -0.2413
29981ION     NA48185  13.942  13.469   5.273  0.0476 -0.4808  0.1826
29982ION     NA48186   6.217   7.807   2.314 -0.1285  0.1704  0.1520
29983ION     NA48187   2.835   2.691  10.280  0.1888 -0.0332 -0.0833
29984ION     NA48188  12.832   9.204   2.749  0.0546 -0.1638 -0.1670
29985ION     NA48189  12.002   2.401   4.687  0.2463  0.1141 -0.1069
29986ION     NA48190   6.930   8.430   9.756 -0.1396  0.1280  0.0218
29987ION     NA48191   0.075  17.577   3.708  0.2881 -0.0098  0.1743
29988ION     NA48192   8.552  16.200   3.461  0.2394  0.1213 -0.2226
29989ION     NA48193   5.959   9.953   3.696 -0.0422 -0.0689  0.2087
29990ION     NA48194   2.422  16.915   0.719  0.0864  0.2715 -0.0787
29991ION     NA48195   8.961   2.372   1.950 -0.2557 -0.2463  0.0626
29992ION     NA48196   2.068   8.757  10.030 -0.0929 -0.0731 -0.2269
29993ION     NA48197   1.889   5.760  10.029  0.2741 -0.4028  0.1084
29994ION     NA48198  10.668   9.004   3.403  0.0864 -0.1159  0.0183
29995ION     NA48199   2.384  15.048  10.144 -0.1528 -0.0828 -0.1727
29996ION     NA48200   4.496   6.248   3.867 -0.1424 -0.3778  0.0453
29997ION     NA48201   5.415   9.962  10.048  0.0426  0.0174  0.1545
29998ION     NA48202  15.459   8.395  10.063  0.0068 -0.1260 -0.1437
29999ION     NA48203  11.997  13.801   5.234  0.0231 -0.3996 -0.4547
30000ION     NA48204  15.643  14.828   5.471  0.0014  0.1602 -0.0005
30001ION     NA48205   2.225   2.437   2.067  0.1343 -0.0694 -0.1353
30002ION     NA48206   9.265   1.872   3.752  0.0981 -0.3794  0.1832
30003ION     NA48207  12.774  12.231   4.975  0.1206 -0.2110  0.0811
30004ION     NA48208  14.944   3.410   9.902  0.0664 -0.0812  0.1061
30005ION     NA48209  18.009   1.930   4.397 -0.1543  0.0769  0.0227
30006ION     NA48210   9.509  16.201   5.829 -0.0736 -0.0036 -0.0315
30007ION     NA48211  13.026   6.878   9.850 -0.2638 -0.3321  0.0794
30008ION     NA48212   1.649  11.068   5.500  0.3024  0.2121 -0.0386
30009ION     NA48213   7.136   7.746   4.736  0.2051  0.1330 -0.1668
30010ION     NA48214   4.601   7.457  10.025  0.2122  0.0470 -0.1433
30011ION     NA48215   0.746   1.126  10.163 -0.0209 -0.0042  0.3402
30012ION     NA48216  14.821  12.620  13.324  0.1763  0.3455 -0.0932
30013ION     NA48217   4.620  13.177  10.116  0.1814 -0.1052  0.2478
30014ION     NA48218   9.463   6.428  14.568  0.1479  0.0900  0.3952
30015ION     NA48219  14.146  17.470  13.167 -0.0472 -0.1202 -0.1241
30016ION     NA48220  18.075   2.052   0.511 -0.0172  0.3211  0.1475
30017ION     NA48221   0.152   5.188   5.349  0.2621 -0.1433 -0.2478
30018ION     NA48222   1.868   2.891   3.281 -0.1430 -0.0664  0.2146
30019ION     NA48223   6.906   9.073   3.155  0.2024  0.3635  0.1914
30020ION     NA48224  16.964   4.490  10.062 -0.3201 -0.3648 -0.2231
30021ION     NA48225   0.172  14.297  10.127 -0.2725  0.3005  0.2180
30022ION     NA48226  13.319   1.331  10.332  0.2542 -0.0128  0.2620
30023ION     NA48227   7.009  13.709   5.646  0.1441 -0.0295  0.0155
30024ION     NA48228   2.220   7.805   0.949  0.1744  0.1751 -0.0907
30025ION     NA48229   5.072  10.565  10.296 -0.1826 -0.0618 -0.0463
30026ION     NA48230  17.116   1.061  10.109 -0.0259 -0.1496 -0.1060
30027ION     NA48231  15.946   3.656   9.976 -0.5194  0.1485  0.0891
30028ION     NA48232  12.097  16.676   0.155 -0.1241 -0.5525 -0.3768
30029ION     NA48233   4.411   0.556  10.375  0.1066  0.2196 -0.1322
30030ION     NA48234  10.283  16.625   5.545  0.0244  0.2910  0.0704
30031ION     NA48235   5.677  16.496   3.029  0.0821  0.3311 -0.2362
30032ION     NA48236  14.034  14.816   3.380  0.0038 -0.2808 -0.2380
30033ION     NA48237   6.359  13.638  10.259 -0.0366  0.1718  0.2210
30034ION     NA48238  14.146  18.334  12.631 -0.0390 -0.2408 -0.2197
30035ION     NA48239  13.042  13.180   5.191 -0.0029 -0.1531  0.0167
30036ION     NA48240   5.012   8.860   9.771 -0.0720  0.0964  0.1268
30037ION     NA48241   1.259  17.805   0.200 -0.2584 -0.1388 -0.1357
30038ION     NA48242  12.588   0.262  10.354  0.1094 -0.2591  0.0132
30039ION     NA48243  13.087   0.283   5.530 -0.2412 -0.2024 -0.0224
30040ION     NA48244  10.222   5.590   0.544  0.0726  0.0300 -0.0905
30041ION     NA48245  13.143   4.458   2.618  0.0451  0.2279 -0.0772
30042ION     NA48246  13.712   9.888   5.267 -0.1256  0.0452 -0.0800
30043ION     NA48247   2.662   0.048  10.447  0.3273 -0.0054 -0.1486
30044ION     NA48248  11.792  12.439   1.365 -0.2150 -0.2807  0.0292
30045ION     NA48249  14.345   3.842  11.417  0.1457 -0.1768 -0.0498
30046ION     NA48250  15.409   5.608  14.457 -0.2220  0.0358  0.0471
30047ION     NA48251   0.415   4.449   5.072 -0.2260  0.0681 -0.1635
30048ION     NA48252   1.647  15.794  11.777  0.0722 -0.0789  0.0029
30049ION     NA48253   7.838   9.782  15.087  0.1640  0.0195  0.1438
30050ION     NA48254  10.432   4.229  14.986  0.1340  0.0760  0.0500
30051ION     NA48255   0.917  17.694  14.330 -0.1701  0.0298 -0.0997
30052ION     NA48256   4.250   3.585   9.780  0.1243 -0.0594 -0.0079
30053ION     NA48257  12.538  10.277  15.360  0.1879  0.1684  0.0299
30054ION     NA48258  15.011   3.539   2.338  0.1707 -0.1342 -0.0649
30055ION     NA48259  12.532  17.473   4.883  0.0461  0.0224  0.2325
30056ION     NA48260   3.561  12.890   0.201 -0.1018 -0.1790  0.5120
30057ION     NA48261  11.373  12.099  13.663 -0.4106  0.2174 -0.2293
30058ION     NA48262   3.539   4.382   4.957 -0.1548  0.2760 -0.1800
30059ION     NA48263  17.944  14.910  10.530 -0.0136  0.1777 -0.2004
30060ION     NA48264  12.962   1.841  10.192  0.0051 -0.0795  0.2728
30061ION     NA48265   5.376  12.458   3.392  0.1487 -0.4332 -0.1159
30062ION     NA48266   2.860   4.845   5.066  0.1466 -0.0995 -0.1050
30063ION     NA48267   8.901  12.411   5.135  0.1813 -0.1154 -0.3071
30064ION     NA48268   4.190  17.239  14.881 -0.4288  0.4507  0.1291
30065ION     NA48269   6.456  15.300   4.145  0.3223  0.0188  0.4183
30066ION     NA48270   6.406   6.667   5.054  0.0928  0.0538  0.2842
30067ION     NA48271   4.753   8.675   5.185 -0.2298  0.1098 -0.0232
30068ION     NA48272   5.107   9.349   0.662  0.0171  0.3449 -0.2483
30069ION     NA48273   8.696  18.232   0.661  0.2304 -0.0241  0.1348
30070ION     NA48274  16.378   1.114   5.213 -0.2064 -0.3125 -0.0332
30071ION     NA48275   1.036  13.816  14.644  0.1342 -0.0184 -0.1579
30072ION     NA48276  15.850   9.931   2.165 -0.1408  0.2220  0.0954
30073ION     NA48277   3.579   0.283   0.698 -0.1015 -0.0656  0.1531
30074ION     NA48278   2.700  14.591   4.263 -0.0184 -0.2401  0.0829
30075ION     NA48279  13.871   8.099   5.365  0.0396 -0.2853 -0.0768
30076ION     NA48280  10.429   1.096  10.033 -0.2033 -0.1382 -0.2147
30077ION     NA48281  11.711   5.482   5.303 -0.0944  0.2001 -0.4018
30078ION     NA48282   0.639   4.105  12.725 -0.2788  0.2001  0.0465
30079ION     NA48283   0.350   3.871  11.324 -0.3632 -0.1131 -0.2009
30080ION     NA48284  12.678  18.423  13.681  0.1074 -0.0488  0.1884
30081ION     NA48285   6.397   9.997   2.237  0.1149 -0.0538  0.0587
30082ION     NA48286   6.711   6.642   1.292  0.0718 -0.2262  0.1857
30083ION     NA48287  12.576   6.700   5.289  0.1549  0.0946 -0.0817
30084ION     NA48288  18.288   2.669   1.565  0.0761  0.2531  0.1604
30085ION     NA48289  10.647   1.655  10.206  0.0667  0.3076  0.1304
30086ION     NA48290  11.790  11.285  10.426  0.1890 -0.0720 -0.0610
30087ION     NA48291   5.248  15.282   5.569  0.3380 -0.0845 -0.2912
30088ION     NA48292   3.032  14.097  10.086 -0.1179  0.0084  0.1194
30089ION     NA48293   6.873   1.572  10.411 -0.0844 -0.0074 -0.0891
30090ION     NA48294   8.950   1.846  10.262  0.0599 -0.1004  0.0562
30091ION     NA48295   5.989   1.167   5.733 -0.1803 -0.1158  0.1528
30092ION     NA48296  11.564  10.261  12.177 -0.0905  0.0759 -0.1745
30093ION     NA48297   3.034   7.800   9.691  0.1162 -0.1354 -0.0233
30094ION     NA48298   5.921  12.483  14.061 -0.1743  0.1322  0.2895
30095ION     NA48299  12.147   2.532   0.002  0.4604 -0.2012  0.0898
30096ION     NA48300   9.450   2.500  10.556  0.0058 -0.0442 -0.1712
30097ION     NA48301  12.998   6.662  12.519  0.0482  0.2801 -0.0119
30098ION     NA48302   6.666  11.417  13.400  0.0980 -0.0615  0.1141
30099ION     NA48303   3.447   2.612   0.215 -0.1862  0.0371 -0.1580
30100ION     NA48304  16.337   8.351  10.132  0.2647  0.0623  0.0505
30101ION     NA48305  15.887  12.136   3.033  0.1847 -0.0046 -0.0725
30102ION     NA48306  13.253  16.704  12.389 -0.1967  0.2130 -0.1963
30103ION     NA48307   8.329  11.199   1.612 -0.1010  0.0872  0.0209
30104ION     NA48308  16.290   5.296  10.214  0.0938 -0.2529  0.2668
30105ION     NA48309   3.171   0.941   5.784 -0.0582  0.0124 -0.0641
30106ION     NA48310  14.008  17.353   0.920  0.0367  0.2223 -0.0206
30107ION     NA48311   6.144   9.193  11.651  0.1870  0.2254  0.4829
30108ION     NA48312   6.223  16.082  10.345 -0.1481 -0.0310 -0.0888
30109ION     NA48313  14.623   3.570  14.257 -0.0517 -0.0709  0.1195
30110ION     NA48314  14.369   6.272   2.664 -0.1153 -0.0395 -0.2453
30111ION     NA48315   9.807  10.551   1.813  0.0758 -0.0678 -0.2832
30112ION     NA48316  13.457   2.829   5.144  0.0950 -0.0705 -0.0099
30113ION     NA48317  18.323  10.092   5.884 -0.1154 -0.1297  0.1167
30114ION     NA48318  12.337  15.044   5.567  0.0453 -0.1819  0.1835
30115ION     NA48319   1.490  14.421  12.589 -0.1885 -0.1322 -0.0831
30116ION     NA48320  10.390   9.061   9.978  0.2372 -0.1357  0.0957
30117ION     NA48321   3.715  14.368  12.932 -0.1283 -0.0865 -0.1655
30118ION     NA48322  16.969  15.732   5.711  0.2682 -0.1971  0.1969
30119ION     NA48323  17.660   4.519   5.039 -0.1403 -0.0059  0.1267
30120ION     NA48324   8.004  11.163  13.013 -0.1150  0.1676 -0.0555
30121ION     NA48325   2.790   8.402  13.996 -0.1185 -0.0180 -0.1930
30122ION     NA48326  12.606   4.505   3.340 -0.2912  0.3009  0.0458
30123ION     NA48327   4.421  15.178  12.764 -0.2689 -0.1213  0.0620
30124ION     NA48328   5.976   3.836   5.385 -0.3830 -0.1052 -0.1944
30125ION     NA48329  12.141  12.957   5.078 -0.0447 -0.3501 -0.0474
30126ION     NA48330  12.773  10.965   5.006 -0.2452  0.0178 -0.0145
30127ION     NA48331   2.228   0.915   5.563  0.1142  0.0120 -0.0923
30128ION     NA48332   7.020   5.778   4.988 -0.1828 -0.1101  0.0705
30129ION     NA48333  10.146   8.532  14.789 -0.1489 -0.1876 -0.0282
30130ION     NA48334   6.528  17.380  14.743  0.1566  0.2174  0.2471
30131ION     NA48335  10.776   4.483   1.024  0.1553  0.3276  0.0490
30132ION     NA48336  17.198  10.377  10.796  0.0378 -0.1741 -0.0502
30133ION     NA48337  16.072   9.959   5.417 -0.1985  0.2642  0.3464
30134ION     NA48338  16.280   1.232   2.356 -0.0875 -0.0442  0.1202
30135ION     NA48339   7.465   1.927   5.574 -0.0299 -0.1988  0.1956
30136ION     NA48340   0.153  15.567  12.600  0.0531 -0.0592 -0.0487
30137ION     NA48341   6.215  15.907   0.137 -0.0599  0.0393 -0.0888
30138ION     NA48342   1.624   4.192   9.934 -0.0631  0.2400  0.0440
30139ION     NA48343   6.282   9.420   5.256 -0.1589  0.4801  0.1779
30140ION     NA48344   2.416  11.748   5.423  0.3942 -0.0021  0.0901
30141ION     NA48345  17.033  10.790   5.143  0.0740  0.3390 -0.1939
30142ION     NA48346  10.938  10.417   2.177  0.0896  0.1180  0.0299
30143ION     NA48347  11.394  16.724   5.670  0.1302  0.0308 -0.2130
30144ION     NA48348  16.722  15.601   1.718 -0.1401 -0.2917 -0.0593
30145ION     NA48349   9.705  15.275  10.117  0.0160  0.0628  0.3476
30146ION     NA48350   9.960   5.533   2.297  0.0806  0.1403 -0.0148
30147ION     NA48351  13.983   5.556   0.304 -0.1864  0.0707 -0.0108
30148ION     NA48352  15.385   7.531   9.897  0.0144  0.1518 -0.1991
30149ION     NA48353   7.788   8.179   9.848  0.2676 -0.0690 -0.0930
30150ION     NA48354  14.147   6.407  14.048  0.1862  0.2301  0.1301
30151ION     NA48355   2.224   2.874  14.408 -0.2586  0.2872 -0.0351
30152ION     NA48356  14.491   3.076  15.120  0.0117 -0.0907  0.2295
30153ION     NA48357   5.337   9.431   5.291  0.0718 -0.0325 -0.0902
30154ION     NA48358  15.240  17.103   2.447  0.3196  0.1842 -0.0625
30155ION     NA48359   4.782   1.485  10.469  0.3520 -0.0257  0.1999
30156ION     NA48360  11.082  18.573  13.899  0.1124  0.1119 -0.0073
30157ION     NA48361   7.475  15.548  10.490  0.0258 -0.0191  0.2757
30158ION     NA48362  16.536   6.323   2.216 -0.2463  0.1087 -0.0470
30159ION     NA48363   9.786  14.399  13.486 -0.0732 -0.0448  0.0176
30160ION     NA48364  13.083  14.920  15.137  0.4960  0.1944  0.0981
30161ION     NA48365   5.485  17.663   1.720 -0.0102 -0.1286 -0.0986
30162ION     NA48366  17.267  11.703  13.186  0.0521 -0.3202  0.1202
30163ION     NA48367  16.316   8.972   3.682 -0.1471  0.0488 -0.0875
30164ION     NA48368  16.529   0.222   5.212  0.3522 -0.1137 -0.1055
30165ION     NA48369   4.655  14.860   5.015  0.2244 -0.0264 -0.2949
30166ION     NA48370  12.840   9.527   0.616 -0.2047 -0.2310  0.1638
30167ION     NA48371   9.465   1.041   5.354  0.1920  0.1988 -0.1300
30168ION     NA48372  11.158  13.407  10.179 -0.2135  0.0256  0.2519
30169ION     NA48373   2.905   8.495   9.999 -0.2578  0.2265 -0.0516
30170ION     NA48374  11.162  12.032  10.182 -0.1773 -0.0116  0.0388
30171ION     NA48375   9.353   3.840  12.037 -0.1812 -0.0977  0.0961
30172ION     NA48376  17.925   8.093  10.573  0.0675 -0.1366  0.0994
30173ION     NA48377  17.275   9.176  10.678  0.1045  0.0880 -0.1963
30174ION     NA48378   5.527   7.039   4.990  0.0109 -0.1806  0.3118
30175ION     NA48379   2.194  17.175  10.397  0.1956 -0.0786  0.1569
30176ION     NA48380  18.609   5.763   9.736 -0.0572  0.0223  0.0331
30177ION     NA48381  10.811  11.173  10.412 -0.3340  0.1815  0.1436
30178ION     NA48382   2.432   7.745  10.575  0.3428  0.0561  0.1974
30179ION     NA48383  13.821   9.110  13.695  0.0738 -0.2549 -0.0091
30180ION     NA48384  16.784  16.138  13.632 -0.4059  0.2428  0.1811
30181ION     NA48385  15.896  16.836   5.754 -0.0493 -0.1816 -0.0282
30182ION     NA48386   8.443  10.411   5.127 -0.1547  0.2291 -0.1074
30183ION     NA48387  12.291  11.625  14.453  0.0299 -0.1081 -0.3073
30184ION     NA48388  10.004  17.748   0.312  0.2928 -0.1666  0.0330
30185ION     NA48389  16.620  17.460   5.692  0.1497  0.0380  0.0166
30186ION     NA48390   2.158   4.382   3.988 -0.0602 -0.0831  0.1051
30187ION     NA48391   9.154   7.518  10.144  0.1985  0.0271  0.2634
30188ION     NA48392   2.358   5.534   0.333  0.2227 -0.0889 -0.3064
30189ION     NA48393  11.846   6.339  10.670 -0.1436 -0.1132  0.0361
30190ION     NA48394  13.641  13.061  10.226  0.0977 -0.1571 -0.1482
30191ION     NA48395   0.931  13.365   1.202 -0.1931  0.0252 -0.3999
30192ION     NA48396  12.313   1.122   2.410 -0.0804 -0.0874  0.0095
30193ION     NA48397   4.713   3.860   1.021 -0.0690 -0.0949 -0.0701
30194ION     NA48398   9.420  11.834  15.184 -0.0079  0.1088 -0.0499
30195ION     NA48399  11.639   9.935   2.976  0.0946  0.0081  0.2247
30196ION     NA48400   2.647  12.458  12.902 -0.1352  0.4421  0.0908
30197ION     NA48401  14.539   4.977   5.609 -0.2778  0.1382 -0.2588
30198ION     NA48402   8.300   3.123   5.090  0.0362 -0.1174  0.0781
30199ION     NA48403   3.636   2.734   5.182  0.0366  0.1174 -0.0464
30200ION     NA48404  16.818  16.597   5.501 -0.1868 -0.3241  0.0089
30201ION     NA48405   2.044  18.469   5.587 -0.2460  0.0008  0.0529
30202ION     NA48406   8.861   2.986  14.003 -0.2523 -0.1024  0.1278
30203ION     NA48407   2.073   4.277   5.057  0.1881 -0.2050 -0.0264
30204ION     NA48408   5.690   3.539   0.524 -0.0222  0.3950  0.0341
30205ION     NA48409  18.613   1.772   5.129 -0.1190  0.2497  0.0475
30206ION     NA48410   1.340  10.004   5.701 -0.0170 -0.0598 -0.2392
30207ION     NA48411  13.873   0.107   9.983  0.1988  0.0478 -0.0434
30208ION     NA48412   5.294   8.952   2.135  0.0947 -0.0654 -0.2602
30209ION     NA48413   3.670  15.738  12.467 -0.1452  0.3570  0.0454
30210ION     NA48414  16.942  14.880   0.592  0.1669 -0.0723  0.0741
30211ION     NA48415  12.643   2.089   5.446 -0.0486 -0.2174 -0.2468
30212ION     NA48416   0.299   8.154   0.855  0.2160  0.3379 -0.1864
30213ION     NA48417  14.236  16.226  13.193 -0.1313  0.1867 -0.0067
30214ION     NA48418  11.417   1.022  10.104  0.3103 -0.3612 -0.1092
30215ION     NA48419   9.397   5.066   5.262  0.1825 -0.1249 -0.0181
30216ION     NA48420   5.077   2.707  10.447  0.2600  0.0885 -0.0365
30217ION     NA48421   0.593   1.067   3.396  0.2140 -0.3016  0.1756
30218ION     NA48422   6.368  12.609  10.079  0.0938  0.1153 -0.3317
30219ION     NA48423   3.089   2.191  12.086 -0.2364  0.0737 -0.2557
30220ION     NA48424   2.377   4.718   2.573 -0.1955 -0.0181 -0.0007
30221ION     NA48425   4.256   0.850  13.918  0.0131  0.6375  0.3444
30222ION     NA48426  13.948   6.065   1.120  0.1466 -0.1297 -0.4908
30223ION     NA48427  12.762  15.052   1.223  0.1298 -0.1518 -0.0668
30224ION     NA48428  12.968   0.281  14.987  0.0949  0.1951  0.0501
30225ION     NA48429   2.657  12.441   0.931 -0.1471 -0.0188  0.0790
30226ION     NA48430  12.876  10.261  10.110 -0.1642  0.2150  0.0820
30227ION     NA48431  13.158   5.991   2.437  0.3818  0.0678  0.0305
30228ION     NA48432  16.158  10.881   5.610  0.4956 -0.1367  0.0130
30229ION     NA48433  17.303  17.887  15.378 -0.0263 -0.1739  0.3675
30230ION     NA48434  12.302   4.269  11.338 -0.1280 -0.1552  0.1174
30231ION     NA48435  16.646  10.180   1.130 -0.2285 -0.1937  0.0035
30232ION     NA48436   7.322   1.351  11.630  0.1630  0.0827  0.0895
30233ION     NA48437  11.983  12.394  10.024 -0.1257  0.1112 -0.1902
30234ION     NA48438   2.121  13.654  13.260 -0.1760  0.0072  0.1461
30235ION     NA48439   4.001   1.002  15.320 -0.2283 -0.1181 -0.2328
30236ION     NA48440  14.845   8.612  11.405 -0.1266  0.0713 -0.2158
30237ION     NA48441   6.920   3.357   2.275 -0.0086  0.0243  0.2272
30238ION     NA48442   8.569   3.070   1.557 -0.2911  0.1714 -0.2548
30239ION     NA48443  13.490  12.490   5.283 -0.2689 -0.0174  0.2029
30240ION     NA48444  16.744   0.240   0.715 -0.1759 -0.1121  0.0057
30241ION     NA48445   0.124   1.909   2.799  0.0057  0.0355 -0.1098
30242ION     NA48446  14.697  13.584  14.507 -0.0463  0.2366  0.0570
30243ION     NA48447  14.893   1.998   5.412  0.1642  0.1196  0.2038
30244ION     NA48448  16.116   6.844   3.502 -0.0076 -0.2802  0.1463
30245ION     NA48449  10.267  11.870  12.993 -0.2383  0.1210 -0.0291
30246ION     NA48450   0.699   1.955   0.631  0.3814 -0.0869  0.2862
30247ION     NA48451  18.586   7.120   9.908  0.0920 -0.1560 -0.2104
30248ION     NA48452  11.499  15.735   5.454 -0.0506  0.0572  0.1391
30249ION     NA48453  16.361  10.550  10.488  0.1266  0.0708 -0.1196
30250ION     NA48454   5.579  11.134   5.200 -0.1086  0.3961  0.2469
30251ION     NA48455   3.765  10.087   3.166  0.1012  0.0400 -0.2430
30252ION     NA48456  10.248   0.278  14.504 -0.0550 -0.0601 -0.0275
30253ION     NA48457  12.535  18.335   5.435  0.2294 -0.2560 -0.0731
30254ION     NA48458  17.002  18.273   5.433  0.1601 -0.3429  0.0506
30255ION     NA48459  12.089  14.333  10.379 -0.1891  0.0162 -0.1173
30256ION     NA48460  11.621  17.718   5.363  0.2166 -0.0201  0.0609
30257ION     NA48461   7.585   2.752  10.436  0.0325  0.3393 -0.3046
30258ION     NA48462   6.184  11.557   4.808 -0.1619  0.1299 -0.3306
30259ION     NA48463  17.366   3.519   4.960 -0.0444  0.2549 -0.3199
30260ION     NA48464  14.726  11.082   5.114  0.0056 -0.1861 -0.1760
30261ION     NA48465   2.918  15.403   1.374  0.0088 -0.0656  0.3111
30262ION     NA48466  13.227  16.295   5.742 -0.0239 -0.1950  0.1932
30263ION     NA48467  18.609   3.043   5.095 -0.5538 -0.1219  0.2487
30264ION     NA48468   0.915  14.879  12.686  0.0751  0.4247 -0.1399
30265ION     NA48469  17.879  10.950  10.349  0.2788  0.2324  0.0926
30266ION     NA48470   1.760  13.164  10.149  0.1191  0.1093 -0.4166
30267ION     NA48471  17.460   3.965  14.444 -0.0635 -0.2453 -0.0459
30268ION     NA48472   7.252   6.487  11.805  0.0817  0.1203  0.0301
30269ION     NA48473   2.252   2.798   5.405  0.2703  0.3549  0.2106
30270ION     NA48474  14.884  15.861   5.684  0.0149 -0.3197  0.3773
30271ION     NA48475  10.114   8.369   5.263  0.0951  0.3395  0.1295
30272ION     NA48476   4.401   4.811  13.445 -0.2013 -0.3097 -0.3229
30273ION     NA48477   1.409  16.962   2.622 -0.1132 -0.1397 -0.0637
30274ION     NA48478   6.148   4.072   9.955 -0.0018  0.1231 -0.0495
30275ION     NA48479   5.756  18.052   5.782 -0.1573  0.3961 -0.0559
30276ION     NA48480  11.547  11.613   4.757 -0.3804  0.3234  0.2282
30277ION     NA48481   8.827   0.892  12.547  0.2213  0.0424 -0.0927
30278ION     NA48482   5.023  16.901   4.068 -0.1361 -0.2291  0.1630
30279ION     NA48483   4.544   5.701   4.837  0.1050  0.2467 -0.0071
30280ION     NA48484   4.474   4.227   4.977  0.0935 -0.1623 -0.3182
30281ION     NA48485   0.249   9.404  14.462  0.2096  0.1174  0.2381
30282ION     NA48486   9.054   3.335  15.188 -0.2223  0.1901  0.1153
30283ION     NA48487  12.372  16.552   5.130 -0.1310  0.2143 -0.3226
30284ION     NA48488  15.698  10.030  10.752  0.0955 -0.1489 -0.0644
30285ION     NA48489  15.289   8.090  15.431  0.1292 -0.0317  0.0886
30286ION     NA48490  14.249  15.848  10.241  0.0525 -0.0222  0.0034
30287ION     NA48491   2.121   9.579   5.394  0.1617 -0.0247  0.3621
30288ION     NA48492   7.408   9.406   1.648 -0.3557  0.0573 -0.2265
30289ION     NA48493  16.778   7.426  10.109 -0.0236  0.1987  0.0662
30290ION     NA48494  13.831  14.421   5.465 -0.1608  0.0510 -0.2895
30291ION     NA48495  16.854   9.398   2.930  0.1872 -0.0237  0.0429
30292ION     NA48496   8.200   8.331   4.440  0.1013  0.2532  0.1743
30293ION     NA48497   9.105  13.217   5.048 -0.0644  0.1662  0.0797
30294ION     NA48498   2.135   8.065  12.408 -0.1851  0.0818  0.0216
30295ION     NA48499   5.430  12.656   9.924  0.1357 -0.2914 -0.0334
30296ION     NA48500   2.509  16.334   5.561  0.0654 -0.0056  0.0149
30297ION     NA48501   9.478   1.856  13.889 -0.1988 -0.0291 -0.1228
30298ION     NA48502   4.557   2.049   4.968  0.2253 -0.2116  0.4234
30299ION     NA48503   3.051  17.656  10.461 -0.3129  0.0032 -0.0245
30300ION     NA48504   5.606  10.298   4.940  0.1521  0.3247  0.3043
30301ION     NA48505  17.350   4.274   0.055  0.0732  0.2846  0.0763
30302ION     NA48506  12.561  17.504   5.380  0.0885 -0.1511  0.0914
30303ION     NA48507  14.858  13.171   5.511  0.0595  0.1364 -0.1611
30304ION     NA48508   4.892  12.790  14.084 -0.4012  0.1097  0.1085
30305ION     NA48509  11.056  10.953   5.008 -0.0397 -0.3351  0.1156
30306ION     NA48510  17.981   4.326   1.675 -0.0199 -0.2674 -0.0051
30307ION     NA48511   0.886   7.744   5.021 -0.1395  0.1159  0.2338
30308ION     NA48512   0.883  11.033  15.100  0.4037  0.0703 -0.0463
30309ION     NA48513  13.167   7.400  10.504  0.2123 -0.1939  0.0141
30310ION     NA48514   1.361   7.167   9.892 -0.0306 -0.3099 -0.0345
30311ION     NA48515   6.032   2.229  10.378 -0.2363  0.0027 -0.1314
30312ION     NA48516  13.584  18.201   5.485 -0.0114  0.0780 -0.0951
30313ION     NA48517   5.300  15.974  10.175  0.0723  0.0376 -0.1524
30314ION     NA48518  11.412  15.589   1.687  0.1330 -0.1815  0.1544
30315ION     NA48519  12.203   9.790   1.144  0.2857 -0.2030  0.0644
30316ION     NA48520  10.712   9.643  15.347 -0.0732 -0.2376 -0.4059
30317ION     NA48521   1.991   2.739   9.991  0.2634 -0.0108 -0.0892
30318ION     NA48522   6.630  11.212  11.877 -0.1899 -0.0215  0.0109
30319ION     NA48523   6.608   4.014  15.311 -0.3682  0.1574  0.0708
30320ION     NA48524  10.825  10.481   3.775 -0.2146 -0.0158 -0.3955
30321ION     NA48525  10.145   4.943  15.320  0.0577 -0.2041  0.0363
30322ION     NA48526  16.022  15.493   0.571  0.0343  0.1301  0.1471
30323ION     NA48527  11.542   9.203   5.208  0.1555  0.1808 -0.1445
30324ION     NA48528   1.920   3.803   2.480  0.1028 -0.2840  0.0214
30325ION     NA48529   3.625   9.712  10.494 -0.2626  0.0601 -0.3965
30326ION     NA48530  16.825   3.067  10.459  0.0312 -0.0125 -0.0870
30327ION     NA48531   7.883   3.438  14.515  0.1774  0.0157  0.0799
30328ION     NA48532   4.001   1.919   0.158 -0.3478 -0.0094  0.0647
30329ION     NA48533  15.197  17.035  10.243  0.0155 -0.1887 -0.2759
30330ION     NA48534  14.616   8.103  12.336 -0.5027 -0.2220 -0.0642
30331ION     NA48535  15.324  17.421   5.215  0.4090 -0.0846  0.1924
30332ION     NA48536   3.981  13.817   5.374 -0.1938  0.2028 -0.2465
30333ION     NA48537   0.407   9.685   5.616  0.1341 -0.0348  0.0356
30334ION     NA48538   5.005  16.986  10.393 -0.0298  0.1059  0.1123
30335ION     NA48539   1.801  17.577   0.854 -0.0121  0.2644 -0.3019
30336ION     NA48540  18.014   6.007   0.819  0.0465  0.0267  0.4020
30337ION     NA48541   1.291   2.305   2.909 -0.0217  0.1321 -0.3253
30338ION     NA48542  12.005   2.118  10.240  0.0745  0.0560  0.0821
30339ION     NA48543   1.471   6.695   4.911  0.1372 -0.1269  0.1074
30340ION     NA48544  13.045  15.513   5.252  0.1542  0.1788 -0.1148
30341ION     NA48545  17.021   0.711   3.144  0.3221  0.0188 -0.1864
30342ION     NA48546   4.856   4.074  12.525  0.1311 -0.2855  0.1966
30343ION     NA48547   6.056  10.718  10.144  0.1361  0.0955  0.4096
30344ION     NA48548   9.533   6.145  12.314  0.0746  0.4003 -0.0411
30345ION     NA48549   1.739  15.908   5.472 -0.1335  0.0982  0.0411
30346ION     NA48550   8.368   0.188  10.550 -0.0516 -0.0290  0.1609
30347ION     NA48551   4.564  12.172   9.968  0.1376 -0.1348 -0.0855
30348ION     NA48552   8.083   2.672   3.971  0.2622  0.1283 -0.0248
30349ION     NA48553   0.690  11.338   5.432 -0.0557  0.1290 -0.4220
30350ION     NA48554   6.290   0.407   5.562 -0.2738  0.0985  0.0346
30351ION     NA48555   3.951   8.368  11.396  0.2986 -0.0513 -0.3008
30352ION     NA48556  10.137   3.108  13.500  0.0582 -0.2676  0.0539
30353ION     NA48557  15.830   9.900  12.759 -0.0568 -0.1696  0.0220
30354ION     NA48558  18.161  17.820  15.015 -0.0336  0.0354 -0.1631
30355ION     NA48559  11.299  14.230   5.240 -0.1781  0.1747  0.2049
30356ION     NA48560   6.827  16.829  10.451  0.2694  0.2998 -0.1791
30357ION     NA48561   9.373   2.927   5.115 -0.4269 -0.2035  0.2182
30358ION     NA48562   6.834   2.604   4.408  0.3083 -0.0221  0.0057
30359ION     NA48563  15.319   1.245  12.854  0.1630  0.2170  0.1373
30360ION     NA48564  10.152  12.135   0.965 -0.0577  0.1726  0.0373
30361ION     NA48565   4.528  10.240   9.816 -0.0100 -0.0341  0.1341
30362ION     NA48566   2.501   2.060   0.898  0.1767  0.1305  0.2995
30363ION     NA48567   4.472   3.899   2.878  0.0252  0.0933  0.0170
30364ION     NA48568   6.838  11.125  10.241 -0.1342  0.2077  0.2197
30365ION     NA48569  17.665  16.118   5.597  0.0434  0.0397  0.1042
30366ION     NA48570  10.024   5.714   5.132  0.2255 -0.1543 -0.0371
30367ION     NA48571  16.042  12.124   4.453 -0.1861  0.1310  0.0579
30368ION     NA48572  15.987  11.137  10.559 -0.1830  0.0532 -0.0023
30369ION     NA48573   1.626   1.794  10.003  0.0207  0.0516  0.2831
30370ION     NA48574   5.603  16.586   5.272 -0.1394 -0.1042  0.0315
30371ION     NA48575   6.523   3.453  11.961 -0.0520  0.0118 -0.2590
30372ION     NA48576   8.881  16.341   0.197  0.2697  0.0031  0.1072
30373ION     NA48577   6.034   0.238   2.320 -0.0908  0.0993 -0.2801
30374ION     NA48578   4.316   1.110  11.541 -0.1827  0.1601  0.1379
30375ION     NA48579  12.002   9.517   2.631 -0.1664  0.0860 -0.3043
30376ION     NA48580  16.518   4.438   5.397  0.0588 -0.0895  0.0454
30377ION     NA48581   5.709   6.180   5.041  0.1966  0.0713 -0.0975
30378ION     NA48582  15.898   4.175   4.897  0.0697 -0.1744 -0.0965
30379ION     NA48583  10.334   5.749  10.222  0.0175  0.1271 -0.1336
30380ION     NA48584   6.182   7.499   4.902  0.1989 -0.4046  0.1532
30381ION     NA48585   0.039  12.914   0.427 -0.3438 -0.0507 -0.3976
30382ION     NA48586  17.209   1.616   5.036  0.1149 -0.1894 -0.1958
30383ION     NA48587   4.295  15.630  10.323 -0.0077  0.2957  0.0239
30384ION     NA48588  12.082  16.505   2.423  0.1959  0.0205  0.0044
30385ION     NA48589   3.049   1.779   2.672  0.1469 -0.0893 -0.2015
30386ION     NA48590  16.297   1.749   4.848 -0.1860  0.0427 -0.1461
30387ION     NA48591  14.711  16.846   5.402 -0.3447 -0.3575 -0.2678
30388ION     NA48592  17.224   9.974  12.097  0.0603  0.1723 -0.0321
30389ION     NA48593   7.044  14.766   5.573 -0.0146 -0.1348 -0.1637
30390ION     NA48594   4.343  11.121  10.039  0.3469 -0.3236 -0.0262
30391ION     NA48595   5.062   0.694  14.093 -0.1988  0.0056  0.1439
30392ION     NA48596  14.429   3.422  13.753 -0.1884  0.1778  0.1675
30393ION     NA48597  13.879  17.479   5.429  0.2996  0.0738  0.0151
30394ION     NA48598   8.937   0.255  13.709  0.0752  0.0253  0.1617
30395ION     NA48599  11.447   8.451   5.314  0.0804 -0.0335 -0.0526
30396ION     NA48600  10.632   9.942   5.006 -0.2917  0.1716 -0.0694
30397ION     NA48601  14.432  14.947  10.702  0.0025 -0.2106  0.2494
30398ION     NA48602   8.543   0.684   4.287 -0.0915 -0.1020 -0.1936
30399ION     NA48603   8.830   4.415   2.316  0.2430  0.1482 -0.2604
30400ION     NA48604  18.461  10.443   0.582  0.0006 -0.2733  0.1835
30401ION     NA48605   9.039   0.874   1.968 -0.1900 -0.1037 -0.0415
30402ION     NA48606   8.897   5.831   9.731 -0.1893  0.0344  0.0064
30403ION     NA48607  14.588  14.186   2.507  0.1926 -0.0179 -0.0915
30404ION     NA48608  18.200  13.017  10.475  0.0896  0.1924 -0.0841
30405ION     NA48609   2.089   2.766  11.609 -0.4736  0.0305 -0.1587
30406ION     NA48610   1.320  11.535  10.318 -0.0675 -0.0070  0.1371
30407ION     NA48611   7.280  10.118   4.703 -0.2978 -0.2544  0.0281
30408ION     NA48612  18.232   1.985   9.824  0.0716  0.0283  0.1891
30409ION     NA48613   6.084  12.349   5.408 -0.2585 -0.2532 -0.1649
30410ION     NA48614  14.411  13.294  10.166 -0.2717 -0.1272  0.0572
30411ION     NA48615  13.642  17.473   4.430 -0.2928  0.0824  0.1306
30412ION     NA48616   8.077   8.981   0.789  0.2116  0.1069 -0.1978
30413ION     NA48617   3.029   4.829   1.271 -0.3343 -0.1046 -0.1753
30414ION     NA48618   3.980   4.731  14.916  0.0582 -0.1319 -0.1047
30415ION     NA48619  10.239   3.280   4.989  0.2928 -0.1097  0.2502
30416ION     NA48620   8.607   8.967  11.694  0.1804 -0.2697 -0.0624
30417ION     NA48621  18.091   5.577   5.257  0.0835  0.2194 -0.1936
30418ION     NA48622   6.673  10.570   5.151  0.1697  0.2568 -0.0632
30419ION     NA48623   2.658  14.685   5.496  0.0707 -0.1051 -0.1166
30420ION     NA48624  16.465  17.244   1.622 -0.1569  0.1639  0.1659
30421ION     NA48625  15.709  16.983  10.210 -0.0628 -0.1384 -0.0976
30422ION     NA48626   1.953  10.252   3.789 -0.0353 -0.2470 -0.3265
30423ION     NA48627  12.542   1.066   0.714  0.0445 -0.1859 -0.1303
30424ION     NA48628   9.601  13.707  10.174 -0.1405  0.0908  0.0103
30425ION     NA48629   1.192   1.893   1.833 -0.0492 -0.1356 -0.3343
30426ION     NA48630   1.646   6.171   3.148  0.0757  0.1590 -0.2284
30427ION     NA48631   6.747   4.773   9.735  0.0627 -0.1398 -0.0807
30428ION     NA48632  13.141   5.591  10.365 -0.1761  0.2605 -0.1058
30429ION     NA48633  11.950   7.391   5.309 -0.0985 -0.0531  0.0305
30430ION     NA48634  11.056   2.241   5.586 -0.2910  0.2131 -0.1616
30431ION     NA48635  13.672   4.823  10.355  0.0137  0.1346 -0.3157
30432ION     NA48636   2.568   8.674   0.221 -0.0315  0.0964 -0.1047
30433ION     NA48637  16.115   0.309  10.146  0.0528 -0.0505 -0.0457
30434ION     NA48638   0.750  17.082   3.088  0.0263  0.1294 -0.0187
30435ION     NA48639  18.412   2.888  10.021  0.1106  0.1204 -0.1352
30436ION     NA48640   6.849   0.957   1.568 -0.0538  0.0753 -0.0089
30437ION     NA48641  12.601   5.009   5.323  0.0727  0.0993 -0.2123
30438ION     NA48642   3.546   0.602   5.788 -0.0874  0.1419 -0.2068
30439ION     NA48643   6.831  16.201   5.647 -0.1895  0.1667 -0.0748
30440ION     NA48644   1.113   3.382  12.841  0.3042  0.2349  0.0715
30441ION     NA48645   0.612  18.022  10.399  0.0533  0.0491  0.0115
30442ION     NA48646   6.805  14.539  14.812 -0.1170  0.0367 -0.0139
30443ION     NA48647  14.707  10.034  10.019 -0.2584 -0.1692  0.1034
30444ION     NA48648  10.068  12.483  10.269  0.0001 -0.2297 -0.1637
30445ION     NA48649  17.458   8.079  13.731  0.3065  0.1509 -0.0405
30446ION     NA48650  16.929  11.028  10.278  0.3098  0.0957  0.1206
30447ION     NA48651  18.142   6.065  14.158  0.2117  0.1664  0.3129
30448ION     NA48652   8.487  11.997   9.967 -0.0399 -0.1907  0.1067
30449ION     NA48653   9.669   3.258  10.395 -0.1264  0.2072  0.1699
30450ION     NA48654   4.742  15.202   3.266 -0.1332  0.1375 -0.4368
30451ION     NA48655   6.970   7.906   1.808 -0.2187 -0.2705  0.1067
30452ION     NA48656  17.683   0.446   4.731  0.2433  0.0740 -0.1353
30453ION     NA48657   1.254   8.046   4.820 -0.1496 -0.0445 -0.1314
30454ION     NA48658  12.839  11.615   1.577 -0.2290 -0.1002  0.0902
30455ION     NA48659   8.513   2.028   2.072  0.0711 -0.0699 -0.1260
30456ION     NA48660  13.977   0.347   5.597 -0.0965 -0.2155 -0.0181
30457ION     NA48661  12.675  13.757  10.275 -0.0083  0.1059 -0.0427
30458ION     NA48662  14.630   4.204  15.304  0.0500  0.0548  0.1724
30459ION     NA48663  17.560  16.496   0.697  0.0715 -0.0671 -0.0130
30460ION     NA48664   2.835  13.823  15.321  0.1774 -0.1988 -0.1340
30461ION     NA48665   6.221  18.616  10.451  0.1920  0.1617  0.0116
30462ION     NA48666   5.852   4.829   9.913  0.1980 -0.1803  0.4040
30463ION     NA48667   5.061   0.869   0.469  0.0175 -0.2249  0.0672
30464ION     NA48668   0.881   5.886   9.851 -0.0224 -0.1428  0.4063
30465ION     NA48669   4.228  10.699   5.288  0.1587 -0.1013  0.0079
30466ION     NA48670  17.402   7.520   5.316  0.0956  0.0591  0.1304
30467ION     NA48671   8.367  16.078  10.285  0.2657  0.1636 -0.0983
30468ION     NA48672  16.252  14.027   5.612 -0.0366  0.2734 -0.0506
30469ION     NA48673   3.507  17.168  12.221 -0.1479 -0.0349  0.2802
30470ION     NA48674   9.881  15.311   5.747  0.1019  0.2055  0.1828
30471ION     NA48675  15.974  11.229  15.273  0.1560 -0.0924 -0.0058
30472ION     NA48676   0.996   9.509   0.868  0.1612  0.0906  0.0829
30473ION     NA48677   8.744  13.532  11.750 -0.4488  0.0647 -0.1150
30474ION     NA48678   3.608   1.689  11.053 -0.0817 -0.1089 -0.1124
30475ION     NA48679   9.577   9.324   9.843 -0.2513  0.3095 -0.0300
30476ION     NA48680   9.661  13.226  15.187 -0.0666 -0.0647  0.0619
30477ION     NA48681   5.830  11.666   0.918 -0.1119  0.3431 -0.1891
30478ION     NA48682   2.612   6.080  13.497  0.0349 -0.0420  0.1996
30479ION     NA48683   5.451  10.322  13.260  0.2575  0.2323  0.0774
30480ION     NA48684   2.179   2.421   3.869 -0.1298 -0.1257 -0.1181
30481ION     NA48685   3.949   4.972  12.440 -0.2541  0.0102  0.1181
30482ION     NA48686   4.305  10.977  12.535 -0.0162  0.2721 -0.0066
30483ION     NA48687  10.230   9.375   4.276  0.0283 -0.3362 -0.2561
30484ION     NA48688   6.768  13.296   0.438  0.2694  0.1511  0.0534
30485ION     NA48689  11.262  17.224   1.546  0.1441 -0.0102  0.2245
30486ION     NA48690  16.725   6.291  10.038  0.0325 -0.1732  0.0427
30487ION     NA48691   7.749   5.284   9.754  0.1920 -0.1879  0.1985
30488ION     NA48692   7.320  17.814   5.568  0.0745  0.0592  0.1253
30489ION     NA48693  11.304   1.252   5.504  0.0455 -0.0589  0.0878
30490ION     NA48694   8.404  13.659   5.719  0.0528 -0.4074 -0.1439
30491ION     NA48695  15.635  16.482   1.892 -0.0009 -0.2464  0.3031
30492ION     NA48696   9.749   9.525   0.024  0.0575  0.0078  0.1396
30493ION     NA48697   9.038   7.102   5.170 -0.3083 -0.0976  0.1625
30494ION     NA48698  11.900  14.322   4.033  0.2879 -0.2128 -0.5085
30495ION     NA48699   7.614   8.293  14.341 -0.0353  0.1034  0.0596
30496ION     NA48700   7.501   3.581   5.240  0.0688 -0.0394  0.3405
30497ION     NA48701   1.077  16.362  10.569  0.1363 -0.3711  0.1268
30498ION     NA48702  14.946   9.089  10.200 -0.0082  0.3213  0.0422
30499ION     NA48703   9.702  13.229   3.444 -0.1433  0.0491  0.2449
30500ION     NA48704  11.342  17.855   2.400  0.0834 -0.1104  0.0934
30501ION     NA48705  12.798   2.578   4.055 -0.1436  0.1581  0.4266
30502ION     NA48706  14.824   0.064   5.277  0.3243  0.4977  0.0121
30503ION     NA48707  15.632  12.447  10.505  0.0553  0.0945  0.0402
30504ION     NA48708  11.439  11.929   1.997  0.2730 -0.2431  0.1927
30505ION     NA48709  14.812  11.895   2.324  0.0736  0.0450 -0.1030
30506ION     NA48710   7.135  12.249  10.268  0.2312 -0.2224 -0.0762
30507ION     NA48711   5.868   4.647   0.826 -0.0147 -0.0064 -0.2721
30508ION     NA48712   7.280  14.929  14.138 -0.0541  0.1181 -0.3295
30509ION     NA48713  11.296   5.802   9.999  0.0103 -0.0341  0.3108
30510ION     NA48714   7.904   4.722   5.114 -0.2072 -0.1888 -0.0224
30511ION     NA48715   3.351  18.194  10.305 -0.0454  0.2364  0.0231
30512ION     NA48716   6.653   9.939   9.925  0.1735 -0.1222  0.0866
30513ION     NA48717   2.809   3.154   5.060  0.0379  0.2737  0.1396
30514ION     NA48718  13.952  15.246   0.818  0.2724  0.0182  0.1748
30515ION     NA48719   6.357   7.141  13.212 -0.0166  0.1025 -0.3047
30516ION     NA48720  15.647  15.704   5.545 -0.0648 -0.0648  0.0081
30517ION     NA48721   2.699   0.672  12.258  0.1397  0.1053 -0.0173
30518ION     NA48722   9.601   0.640   2.206 -0.2524 -0.0235  0.0787
30519ION     NA48723  10.862  14.556  10.386  0.1721  0.0455  0.1896
30520ION     NA48724   7.350  15.108   5.394 -0.0256  0.0333 -0.2638
30521ION     NA48725   7.951   3.520  10.139 -0.2987 -0.0951  0.1862
30522ION     NA48726  13.181  18.121  10.262  0.1707 -0.1288  0.1156
30523ION     NA48727   4.410  14.856   5.433  0.0962  0.4047  0.2388
30524ION     NA48728   4.631  10.407  11.227  0.1440 -0.0506 -0.1046
30525ION     NA48729   3.002   6.924   9.814  0.0256 -0.0808  0.4209
30526ION     NA48730  14.928   4.401   9.997 -0.1478 -0.0223 -0.0376
30527ION     NA48731   0.402  13.567  10.483 -0.1492  0.0656  0.0468
30528ION     NA48732  12.984   8.299  10.008  0.0607  0.0536  0.1579
30529ION     NA48733   5.964  17.236  10.406 -0.0474 -0.4418 -0.0732
30530ION     NA48734  16.395   5.738   5.562 -0.2923 -0.2163 -0.1065
30531ION     NA48735  17.414  18.073   3.326 -0.2057 -0.1316  0.1194
30532ION     NA48736   7.352   3.654  13.742 -0.0624  0.3667 -0.1354
30533ION     NA48737   1.218   5.251  11.966  0.3275 -0.2670 -0.1044
30534ION     NA48738  13.253  10.822   3.006  0.1042  0.1965 -0.0139
30535ION     NA48739  17.974   6.566  12.676 -0.0090  0.0604  0.3378
30536ION     NA48740   1.980   5.238   5.025  0.2339 -0.0081  0.2121
30537ION     NA48741   2.158   4.618   0.236 -0.0232  0.1167  0.2584
30538ION     NA48742   8.755  15.142  10.388  0.1971  0.2153 -0.1664
30539ION     NA48743   4.255  14.826  10.288 -0.1754  0.2144  0.3145
30540ION     NA48744  18.188  15.777  10.326  0.0419  0.1148  0.0418
30541ION     NA48745   5.681   6.122   9.765 -0.3652  0.0261 -0.2389
30542ION     NA48746   2.785  11.493  10.200  0.0364  0.2943 -0.3034
30543ION     NA48747   3.458   9.219   5.485 -0.2245  0.0153 -0.2333
30544ION     NA48748  10.607   7.462   4.562  0.1636  0.0048  0.1918
30545ION     NA48749   7.099   0.004   5.451 -0.0540 -0.0081 -0.0574
30546ION     NA48750  10.118   7.367  13.949 -0.0723 -0.0398 -0.0959
30547ION     NA48751   5.645   7.844   1.685  0.0343 -0.1367  0.3099
30548ION     NA48752   9.800  18.282  12.330 -0.0178 -0.1008  0.0307
30549ION     NA48753   8.239   6.628   2.216  0.4940 -0.1793  0.1013
30550ION     NA48754  15.737   5.309  12.278 -0.0707  0.3136  0.0745
30551ION     NA48755   6.585   1.337  11.688  0.1742  0.0462  0.0278
30552ION     NA48756  14.692   0.657   5.331 -0.2430  0.2091  0.0149
30553ION     NA48757  13.681  17.134  14.063 -0.0225 -0.1188  0.0608
30554ION     NA48758   6.985   5.815  14.678 -0.2929 -0.1619 -0.0820
30555ION     NA48759  14.539   8.178   4.597 -0.0457  0.0699  0.1454
30556ION     NA48760   1.577   0.971  12.394 -0.2347  0.0567  0.1571
30557ION     NA48761   6.926  11.467   0.189 -0.0369 -0.0634  0.0308
30558ION     NA48762   6.432  13.313   4.896 -0.1120 -0.1074  0.1807
30559ION     NA48763  12.135   6.598   0.607  0.1953  0.3227  0.1115
30560ION     NA48764   9.212   9.776   5.365 -0.1437 -0.0264  0.0302
30561ION     NA48765   4.265   2.168   5.463  0.1308 -0.0087 -0.0080
30562ION     NA48766  10.012  11.543  10.140  0.0157  0.2135  0.3447
30563ION     NA48767   4.676  14.112  10.743  0.0719  0.2246  0.1028
30564ION     NA48768   1.382   1.373   5.478  0.2836  0.1864  0.0843
30565ION     NA48769  18.591   5.991  12.630 -0.1292  0.0951  0.1294
30566ION     NA48770  11.558  10.151   5.312  0.2069  0.2320  0.3277
30567ION     NA48771  13.277   6.909   2.129  0.0751 -0.1641 -0.0950
30568ION     NA48772   8.347  17.528  13.436  0.0708  0.0149 -0.2018
30569ION     NA48773   0.384   0.508   2.606  0.1141 -0.2063  0.5442
30570ION     NA48774   8.967  10.503   2.050 -0.2897  0.0468 -0.2019
30571ION     NA48775  12.309  14.741   2.683 -0.2296 -0.3387  0.1418
30572ION     NA48776  14.173  17.049   1.911  0.0272 -0.0992 -0.3542
30573ION     NA48777  18.292   9.244   1.306 -0.0836  0.1484 -0.0800
30574ION     NA48778   8.056  10.941  10.193  0.0167 -0.2084 -0.1927
30575ION     NA48779  12.928  11.887   9.904  0.2984 -0.1836 -0.1457
30576ION     NA48780  17.859   5.916   1.595  0.4648 -0.2447 -0.3248
30577ION     NA48781   1.394   0.263  15.306  0.0640 -0.0508 -0.3340
30578ION     NA48782   1.599  11.045   3.375  0.1581 -0.4113 -0.0747
30579ION     NA48783  18.577   7.746   4.012  0.0437 -0.0933  0.2627
30580ION     NA48784   7.245   5.247   1.103 -0.0781  0.0036 -0.2808
30581ION     NA48785   6.703   9.136   2.155  0.1879  0.1767 -0.1622
30582ION     NA48786   5.384  17.150   5.593 -0.2902 -0.0118 -0.1600
30583ION     NA48787  17.493  13.650   0.340  0.0146  0.1235 -0.0923
30584ION     NA48788   5.772   1.369  10.434 -0.0276  0.0181 -0.0044
30585ION     NA48789   5.209  14.654   1.181 -0.3272 -0.1420  0.4510
30586ION     NA48790  14.038   8.983   1.266 -0.1421  0.0429  0.1606
30587ION     NA48791   6.574  16.978   5.085 -0.1567  0.1649  0.2282
30588ION     NA48792  13.053  15.259  12.148 -0.2833  0.0409 -0.2811
30589ION     NA48793   5.759   5.939  14.376  0.0842  0.1359  0.0344
30590ION     NA48794  13.437  18.229   3.127 -0.3119  0.0251 -0.0114
30591ION     NA48795  15.223  16.843   1.111 -0.0691 -0.0445  0.0213
30592ION     NA48796  14.277   7.168  13.837  0.5703  0.0028  0.1719
30593ION     NA48797  12.463   2.107   1.973  0.3008  0.0770 -0.0874
30594ION     NA48798   9.617   1.854  15.014 -0.3662  0.1378 -0.2554
30595ION     NA48799  13.755   4.465   5.562  0.1450  0.0599  0.1463
30596ION     NA48800   5.991  16.150  14.545 -0.1867 -0.0879  0.0039
30597ION     NA48801   9.550  14.980  14.237  0.0475  0.0502  0.1216
30598ION     NA48802   4.501   8.360   0.942 -0.0035 -0.0192 -0.1182
30599ION     NA48803  10.839   6.492  10.162  0.0672 -0.0063 -0.2647
30600ION     NA48804   1.372   2.549   5.430 -0.5293 -0.0226 -0.0599
30601ION     NA48805   6.961   0.242   4.273  0.0335  0.2466  0.0408
30602ION     NA48806   3.383   3.159   9.990 -0.1818  0.2153 -0.0158
30603ION     NA48807   4.029  12.137  12.100 -0.1068 -0.0695  0.0616
30604ION     NA48808   7.484   6.479   4.266  0.3478  0.0204 -0.3685
30605ION     NA48809   0.069  14.927   1.629  0.0202 -0.1602 -0.0202
30606ION     NA48810   2.822   2.186   5.405 -0.1588  0.1295  0.2665
30607ION     NA48811   7.679   0.881   4.490  0.2055 -0.0545 -0.2292
30608ION     NA48812   4.429  14.379   2.568  0.4547 -0.1093  0.3149
30609ION     NA48813   4.397   6.549   5.130 -0.1256  0.2204  0.3298
30610ION     NA48814   7.941  10.876  14.264  0.2459 -0.4423  0.1728
30611ION     NA48815   0.189   3.759  10.327 -0.0915 -0.1377 -0.0256
30612ION     NA48816   4.684   6.290  10.044  0.2678  0.0538 -0.2812
30613ION     NA48817  17.330  18.148  12.791  0.2537  0.1851  0.2166
30614ION     NA48818   4.400   9.502   5.477 -0.1314  0.4237 -0.0955
30615ION     NA48819   6.225   7.648  10.083  0.0979 -0.1889 -0.3422
30616ION     NA48820   4.279   4.678  14.118  0.1517  0.1569  0.1820
30617ION     NA48821   9.356   0.561  10.356 -0.1343  0.3669 -0.1840
30618ION     NA48822  13.158   9.126   4.972 -0.1057 -0.2015 -0.1643
30619ION     NA48823  10.650  15.524  10.317  0.2392 -0.0694 -0.0889
30620ION     NA48824   0.634   9.690  15.103  0.0219 -0.0324  0.1876
30621ION     NA48825   3.597  17.724  13.671  0.3406 -0.2983  0.0993
30622ION     NA48826  16.253   6.271   5.011  0.1094 -0.1911 -0.2155
30623ION     NA48827  14.705   9.636  14.549  0.0902  0.0650  0.1397
30624ION     NA48828  12.145  17.574  10.313 -0.0552  0.0847 -0.0326
30625ION     NA48829   5.641   8.099   3.137  0.0246  0.2802  0.0833
30626ION     NA48830   2.947  12.336  10.097  0.0488 -0.1396  0.2316
30627ION     NA48831   4.198   7.723  15.028 -0.2419  0.1599  0.1196
30628ION     NA48832   4.038   1.319   5.356  0.1086  0.1259  0.2989
30629ION     NA48833   0.772  17.102  10.464 -0.1844  0.2194 -0.0167
30630ION     NA48834  16.470   1.097  14.878 -0.2152  0.0522 -0.0565
30631ION     NA48835   9.547   1.468  11.879 -0.0041 -0.1205 -0.0526
30632ION     NA48836  16.660  18.152  14.045 -0.3226  0.2024 -0.2464
30633ION     NA48837   7.925   8.608   5.492 -0.1460 -0.3779  0.0360
30634ION     NA48838   7.985  12.512  12.659  0.0638  0.0369  0.0704
30635ION     NA48839   2.628  14.773  15.349  0.0330  0.1210  0.4691
30636ION     NA48840  17.395  15.891   2.364  0.0747 -0.1770 -0.0411
30637ION     NA48841   0.872  12.453  15.396  0.0119  0.2420 -0.1976
30638ION     NA48842   0.017   4.172  13.831 -0.1194  0.2322  0.1175
30639ION     NA48843  16.839   5.697  14.217 -0.1911  0.1480  0.0538
30640ION     NA48844   5.340  14.199   5.203 -0.1127  0.0409 -0.1098
30641ION     NA48845   1.098   9.506   5.419  0.2400  0.2110 -0.1439
30642ION     NA48846  18.168   2.454   5.046 -0.0750 -0.0318 -0.0816
30643ION     NA48847  11.661   7.775   3.971  0.2801 -0.1924 -0.2031
30644ION     NA48848   2.319   1.036  10.100  0.2101  0.1482  0.2580
30645ION     NA48849   2.673  16.690  10.523 -0.3323  0.2232  0.1335
30646ION     NA48850   4.239   2.425  10.210 -0.4343 -0.0924 -0.0572
30647ION     NA48851  14.141  13.131  14.113 -0.0443  0.1687  0.0152
30648ION     NA48852  12.894  17.015   5.313  0.3577 -0.1418 -0.1408
30649ION     NA48853  18.617   7.207   5.258 -0.4025 -0.0849  0.1505
30650ION     NA48854  12.756   7.749   2.888 -0.0374 -0.0330  0.1768
  18.62476  18.62476  15.44994
