INSANE! Membrane UpperLeaflet>loPI:POPI:DPPI:PYPI:ERGO=80.0:5.0:3.0:2.0:10.0 LowerLeaflet>PSPI:POPI:POPS:YOPS:POPE:YOPE:POPC:YOPC:ERGO=6.0:14.0:21.0:9.0:9.0:21.0:12.0:48.0:60.0
49377
    1loPI    C1    1  12.289  17.129  11.219  0.1640 -0.0656 -0.1121
    1loPI    C2    2  12.411  17.057  11.593 -0.0761 -0.2218 -0.0620
    1loPI    C3    3  12.294  17.424  11.489  0.1585 -0.1373 -0.0331
    1loPI   PO4    4  12.511  16.961  11.008 -0.1240  0.1075  0.1967
    1loPI   GL1    5  12.534  17.164  10.622 -0.1511  0.1883 -0.2632
    1loPI   GL2    6  12.232  17.377  10.644 -0.0348  0.4867  0.0063
    1loPI   C1A    7  12.574  17.235  10.175  0.0612 -0.2333  0.0439
    1loPI   C2A    8  12.699  17.222   9.816  0.0333  0.1150 -0.4740
    1loPI   C3A    9  12.707  17.198   9.513 -0.0872  0.0256  0.1736
    1loPI   C4A   10  12.750  17.146   9.021 -0.0339  0.1447  0.0521
    1loPI   C5A   11  12.980  17.158   8.640  0.0229 -0.0808 -0.1569
    1loPI   C6A   12  13.134  17.397   8.334  0.2937  0.3141 -0.1086
    1loPI   C1B   13  12.138  17.138  10.280  0.0553  0.1087  0.1933
    1loPI   C2B   14  12.149  17.072   9.904 -0.0655  0.4035  0.0449
    1loPI   C3B   15  12.223  17.085   9.504 -0.0418 -0.1731 -0.2572
    1loPI   C4B   16  12.205  17.102   9.011 -0.3202  0.1789 -0.0381
    2loPI    C1   17  12.972  11.160  10.283 -0.2695 -0.2174 -0.0315
    2loPI    C2   18  12.657  11.371  10.155 -0.0152  0.0813 -0.1784
    2loPI    C3   19  12.887  11.513  10.449 -0.0556 -0.1685 -0.0233
    2loPI   PO4   20  12.998  11.042  10.034 -0.0561 -0.2286 -0.0800
    2loPI   GL1   21  12.776  10.931   9.625  0.1418  0.2084 -0.0300
    2loPI   GL2   22  12.730  11.299   9.610  0.1777  0.0175  0.1317
    2loPI   C1A   23  12.933  10.896   9.230  0.0365  0.0726  0.0539
    2loPI   C2A   24  13.101  10.812   8.799 -0.0647  0.0144 -0.3554
    2loPI   C3A   25  13.174  10.862   8.370 -0.0786 -0.2671 -0.0904
    2loPI   C4A   26  12.999  11.024   8.102  0.1400  0.0682 -0.0037
    2loPI   C5A   27  12.870  11.344   7.788  0.0193  0.2045 -0.0777
    2loPI   C6A   28  12.623  11.673   7.524 -0.1231 -0.1955  0.3000
    2loPI   C1B   29  12.760  11.321   9.059 -0.0768 -0.0807 -0.1054
    2loPI   C2B   30  12.718  11.497   8.743  0.0047  0.1307  0.1711
    2loPI   C3B   31  12.411  11.644   8.498  0.1337 -0.3803  0.0729
    2loPI   C4B   32  12.047  11.591   8.425 -0.0249 -0.0276  0.2980
    3loPI    C1   33  18.168   4.047  10.898  0.0626  0.1142  0.1758
    3loPI    C2   34  18.549   3.925  10.911  0.0580  0.0967  0.1484
    3loPI    C3   35  18.268   3.727  11.115 -0.0128 -0.1703 -0.1979
    3loPI   PO4   36  18.124   4.136  10.627  0.0859 -0.1581  0.2343
    3loPI   GL1   37  18.222   3.809  10.236 -0.0863 -0.0145 -0.0285
    3loPI   GL2   38  17.877   3.626  10.101  0.0673  0.0998 -0.0921
    3loPI   C1A   39  18.174   4.015   9.797 -0.0614 -0.0355 -0.1304
    3loPI   C2A   40  18.181   4.021   9.301  0.1322 -0.0594 -0.0761
    3loPI   C3A   41  18.157   3.892   8.872  0.1246  0.0829  0.1570
    3loPI   C4A   42  18.323   3.928   8.384  0.0647 -0.2479 -0.0121
    3loPI   C5A   43  18.280   3.546   8.103  0.1585 -0.3432  0.1735
    3loPI   C6A   44  18.521   3.212   8.074 -0.2566 -0.2450 -0.1011
    3loPI   C1B   45  17.903   3.499   9.752  0.2442  0.0487  0.2552
    3loPI   C2B   46  17.855   3.441   9.272 -0.3969 -0.1039  0.0545
    3loPI   C3B   47  17.945   3.445   8.855 -0.0346  0.1616 -0.1847
    3loPI   C4B   48  18.056   3.298   8.491 -0.1352 -0.0473 -0.1371
    4loPI    C1   49   5.312  12.038  10.621 -0.1216 -0.2300  0.0576
    4loPI    C2   50   5.666  11.880  10.722  0.1191  0.1078 -0.2303
    4loPI    C3   51   5.550  12.228  10.881  0.0062  0.0977 -0.2895
    4loPI   PO4   52   5.351  11.985  10.331  0.1704 -0.4173 -0.1137
    4loPI   GL1   53   5.244  12.233   9.995 -0.4249  0.0768 -0.0667
    4loPI   GL2   54   5.035  12.231   9.892  0.0771 -0.0255 -0.1209
    4loPI   C1A   55   5.430  12.307   9.568 -0.1290  0.1344  0.0827
    4loPI   C2A   56   5.435  12.269   9.138  0.1031  0.0229  0.3933
    4loPI   C3A   57   5.373  12.378   8.773  0.2628 -0.1942 -0.1260
    4loPI   C4A   58   5.471  12.249   8.305  0.1158 -0.1581 -0.0444
    4loPI   C5A   59   5.729  12.053   7.997 -0.0213  0.1404 -0.1952
    4loPI   C6A   60   5.965  12.201   7.713  0.4036  0.2356 -0.5471
    4loPI   C1B   61   4.939  12.256   9.378 -0.1886  0.1075 -0.1283
    4loPI   C2B   62   4.959  12.280   8.967 -0.0574 -0.0980  0.3006
    4loPI   C3B   63   4.883  12.254   8.521  0.0583  0.2223  0.0688
    4loPI   C4B   64   4.731  12.088   8.150  0.1064  0.0028 -0.1186
    5loPI    C1   65  12.152  15.576  11.203 -0.1250 -0.0527  0.1176
    5loPI    C2   66  12.548  15.608  11.158 -0.1072 -0.3526  0.0343
    5loPI    C3   67  12.395  15.504  11.512 -0.1232 -0.0811  0.1096
    5loPI   PO4   68  12.011  15.392  10.960  0.1270  0.2216 -0.1005
    5loPI   GL1   69  12.328  15.347  10.551  0.0711  0.1041  0.1439
    5loPI   GL2   70  12.489  15.079  10.491 -0.0689  0.0006 -0.1487
    5loPI   C1A   71  12.277  15.628  10.216 -0.2009  0.0350  0.1606
    5loPI   C2A   72  12.388  15.722   9.753  0.0423 -0.2246 -0.1436
    5loPI   C3A   73  12.382  15.701   9.304  0.0599 -0.0997 -0.3319
    5loPI   C4A   74  12.300  15.733   8.901 -0.2919  0.0452 -0.2059
    5loPI   C5A   75  12.058  15.551   8.610  0.1712 -0.0273  0.1170
    5loPI   C6A   76  11.707  15.317   8.602 -0.1682 -0.2544 -0.1593
    5loPI   C1B   77  12.631  15.214  10.111 -0.1869 -0.1391 -0.1148
    5loPI   C2B   78  12.696  15.336   9.613  0.1770 -0.3227 -0.2145
    5loPI   C3B   79  12.724  15.314   9.164  0.0585  0.0175 -0.3564
    5loPI   C4B   80  12.666  15.244   8.698  0.2102 -0.2302  0.0066
    6loPI    C1   81  17.327  14.930  11.231 -0.2956  0.3278 -0.2540
    6loPI    C2   82  17.212  15.054  11.593 -0.0981  0.1250 -0.1186
    6loPI    C3   83  17.559  15.181  11.440 -0.0590  0.0097 -0.1258
    6loPI   PO4   84  17.082  14.939  11.066 -0.0693 -0.1500 -0.0443
    6loPI   GL1   85  16.876  14.664  10.869  0.0018 -0.1234 -0.0749
    6loPI   GL2   86  16.478  14.652  10.743 -0.1394  0.0534 -0.0480
    6loPI   C1A   87  17.112  14.549  10.586 -0.3086  0.0919 -0.0791
    6loPI   C2A   88  17.237  14.494  10.084 -0.3221  0.2698  0.1623
    6loPI   C3A   89  17.252  14.553   9.665  0.1870 -0.3876 -0.4000
    6loPI   C4A   90  17.190  14.551   9.195  0.0911  0.1594  0.2164
    6loPI   C5A   91  17.200  14.647   8.768 -0.1318  0.0510 -0.0676
    6loPI   C6A   92  17.045  14.883   8.410  0.1407  0.0568  0.1305
    6loPI   C1B   93  16.662  14.477  10.312 -0.0079  0.1612 -0.0518
    6loPI   C2B   94  16.737  14.429   9.887 -0.0874  0.2359  0.0257
    6loPI   C3B   95  16.657  14.373   9.416 -0.4700 -0.0068  0.0408
    6loPI   C4B   96  16.798  14.463   8.971 -0.0521 -0.1665  0.1326
    7loPI    C1   97   4.900  16.500  11.056  0.0617  0.0522  0.0336
    7loPI    C2   98   5.081  16.820  11.214 -0.0512  0.0597  0.1486
    7loPI    C3   99   5.109  16.464  11.396  0.0445  0.0115  0.0400
    7loPI   PO4  100   5.018  16.495  10.742  0.0789  0.1615  0.0323
    7loPI   GL1  101   5.066  16.207  10.474  0.1781  0.2297 -0.0240
    7loPI   GL2  102   5.260  15.992  10.558 -0.0615 -0.0148 -0.2332
    7loPI   C1A  103   4.902  16.228   9.981 -0.1750 -0.2478  0.1079
    7loPI   C2A  104   4.852  16.268   9.439  0.0314  0.0182 -0.3131
    7loPI   C3A  105   4.747  16.387   9.029 -0.0588 -0.0760 -0.2241
    7loPI   C4A  106   4.809  16.333   8.588 -0.0003 -0.0914 -0.1368
    7loPI   C5A  107   4.993  16.189   8.228 -0.3609  0.2170 -0.0387
    7loPI   C6A  108   5.183  15.901   8.291 -0.2585 -0.1142  0.3968
    7loPI   C1B  109   5.183  15.838  10.098  0.3484  0.4022 -0.3586
    7loPI   C2B  110   5.207  15.852   9.608 -0.1219  0.2158 -0.1920
    7loPI   C3B  111   5.179  15.889   9.179  0.3664 -0.1447 -0.1091
    7loPI   C4B  112   5.188  16.069   8.737  0.2605 -0.0131 -0.0853
    8loPI    C1  113  10.143  12.890  10.722  0.3098  0.1145  0.2901
    8loPI    C2  114  10.143  12.520  10.875  0.0641  0.0006  0.0234
    8loPI    C3  115   9.879  12.791  11.006  0.2439  0.0840  0.2186
    8loPI   PO4  116  10.212  12.829  10.434  0.2914 -0.1443  0.0193
    8loPI   GL1  117  10.075  12.825   9.988 -0.2684  0.0143 -0.0061
    8loPI   GL2  118   9.829  12.749   9.863 -0.2169  0.1395  0.1793
    8loPI   C1A  119  10.116  13.193   9.786 -0.1029 -0.0051 -0.0710
    8loPI   C2A  120  10.136  13.358   9.412 -0.0971 -0.2269 -0.1318
    8loPI   C3A  121   9.811  13.296   9.065  0.1120  0.1265  0.3830
    8loPI   C4A  122   9.594  13.369   8.650  0.1983  0.2438 -0.0816
    8loPI   C5A  123   9.855  13.340   8.292  0.0670 -0.0794 -0.1469
    8loPI   C6A  124   9.973  13.427   7.899  0.2305 -0.1915  0.1421
    8loPI   C1B  125   9.699  13.013   9.459 -0.1286 -0.0345 -0.1009
    8loPI   C2B  126   9.313  13.141   9.208 -0.2645 -0.2523 -0.4001
    8loPI   C3B  127   9.157  13.061   8.802 -0.0570  0.1584  0.3333
    8loPI   C4B  128   9.021  13.318   8.431 -0.0757 -0.1848 -0.2781
    9loPI    C1  129  14.543  11.651  10.838 -0.0068 -0.0935  0.2709
    9loPI    C2  130  14.170  11.734  10.956 -0.0726  0.0799 -0.0476
    9loPI    C3  131  14.473  11.969  11.070 -0.0869  0.0485  0.0559
    9loPI   PO4  132  14.543  11.703  10.585 -0.0645 -0.1954  0.0438
    9loPI   GL1  133  14.259  11.648  10.219 -0.2277 -0.0479  0.0956
    9loPI   GL2  134  14.055  11.843  10.151 -0.2643 -0.0989  0.4454
    9loPI   C1A  135  14.393  11.531   9.856 -0.2280 -0.0068  0.2400
    9loPI   C2A  136  14.439  11.574   9.440 -0.2040  0.0479 -0.2017
    9loPI   C3A  137  14.379  11.568   8.980 -0.2418  0.3120 -0.0308
    9loPI   C4A  138  14.305  11.595   8.505  0.0205 -0.1289  0.2545
    9loPI   C5A  139  14.053  11.408   8.065 -0.2303  0.0965  0.1174
    9loPI   C6A  140  13.824  11.432   7.673  0.0724 -0.0910 -0.0991
    9loPI   C1B  141  14.094  11.909   9.732  0.1872 -0.0626  0.2605
    9loPI   C2B  142  14.022  11.985   9.304 -0.0298  0.1694  0.2022
    9loPI   C3B  143  14.052  12.032   8.862 -0.1395  0.1075 -0.0036
    9loPI   C4B  144  13.994  12.009   8.414 -0.0641 -0.0047 -0.1975
   10loPI    C1  145  17.566   4.836  10.684  0.1697 -0.1399  0.1727
   10loPI    C2  146  17.332   4.571  10.872  0.0922 -0.2295 -0.0475
   10loPI    C3  147  17.569   4.813  11.084 -0.1818 -0.1535  0.1785
   10loPI   PO4  148  17.624   4.672  10.446  0.1728 -0.0321 -0.1854
   10loPI   GL1  149  17.802   4.341  10.277 -0.0562 -0.0434  0.0030
   10loPI   GL2  150  17.779   4.090  10.226 -0.3431  0.2257  0.0709
   10loPI   C1A  151  17.840   4.410   9.845  0.2799 -0.2893 -0.0189
   10loPI   C2A  152  17.735   4.322   9.391 -0.2629 -0.0924  0.1283
   10loPI   C3A  153  17.834   4.306   8.942  0.0400 -0.3228 -0.0319
   10loPI   C4A  154  17.793   4.326   8.534  0.2646 -0.2874 -0.1137
   10loPI   C5A  155  17.744   4.021   8.169 -0.2013  0.0198  0.1648
   10loPI   C6A  156  17.645   3.569   8.269  0.1611  0.0029 -0.1865
   10loPI   C1B  157  17.614   3.992   9.859 -0.2391  0.0223  0.1057
   10loPI   C2B  158  17.619   3.799   9.473 -0.3123 -0.0962 -0.0737
   10loPI   C3B  159  17.674   3.837   9.060 -0.1648 -0.0259  0.3390
   10loPI   C4B  160  17.662   3.832   8.677 -0.0178  0.0902 -0.3678
   11loPI    C1  161   0.577  15.229  11.195 -0.0696  0.0271  0.0743
   11loPI    C2  162   0.390  15.452  11.470  0.0128 -0.1241  0.2554
   11loPI    C3  163   0.392  15.054  11.504  0.1321 -0.1372  0.1036
   11loPI   PO4  164   0.583  15.291  10.944 -0.1423 -0.0111  0.0415
   11loPI   GL1  165   0.856  15.194  10.544  0.1509 -0.0247 -0.2822
   11loPI   GL2  166   0.739  14.921  10.634  0.2508 -0.2178 -0.0095
   11loPI   C1A  167   0.857  15.354  10.279  0.3002  0.0673  0.1790
   11loPI   C2A  168   0.692  15.303   9.895 -0.0677 -0.4596  0.0534
   11loPI   C3A  169   0.773  15.330   9.510 -0.0818  0.1406  0.2858
   11loPI   C4A  170   0.791  15.386   9.033  0.2481 -0.0356 -0.0944
   11loPI   C5A  171   0.779  15.256   8.583 -0.1697  0.0508  0.3105
   11loPI   C6A  172   0.903  15.644   8.372  0.1723  0.0005  0.2781
   11loPI   C1B  173   0.646  14.789  10.255  0.3604  0.2104  0.1202
   11loPI   C2B  174   0.591  14.828   9.886 -0.2318  0.0311  0.3418
   11loPI   C3B  175   0.630  14.814   9.416 -0.1319  0.0277 -0.3593
   11loPI   C4B  176   0.606  14.935   8.972  0.0268  0.2324 -0.3317
   12loPI    C1  177   5.768  13.127  10.798 -0.3081  0.2142  0.0468
   12loPI    C2  178   5.648  12.746  10.823  0.1480  0.0429 -0.2383
   12loPI    C3  179   5.961  12.871  11.038  0.0549  0.2368 -0.2134
   12loPI   PO4  180   5.797  13.195  10.570  0.0616  0.2020 -0.2500
   12loPI   GL1  181   6.022  13.266  10.144  0.1745  0.1017 -0.0327
   12loPI   GL2  182   5.672  13.208  10.057  0.1209 -0.0657 -0.1616
   12loPI   C1A  183   5.918  13.640   9.883 -0.1135 -0.1562  0.0518
   12loPI   C2A  184   5.908  13.803   9.454 -0.1037 -0.0972 -0.0412
   12loPI   C3A  185   5.947  13.817   9.005  0.0584 -0.2719  0.1597
   12loPI   C4A  186   5.932  13.883   8.563  0.0021  0.1930 -0.2372
   12loPI   C5A  187   5.800  13.737   8.180  0.0619  0.0540  0.1055
   12loPI   C6A  188   5.963  13.355   8.082  0.0572  0.0019 -0.2734
   12loPI   C1B  189   5.817  13.273   9.527  0.0763  0.0239 -0.0409
   12loPI   C2B  190   5.764  13.359   9.108  0.0603  0.0123  0.1287
   12loPI   C3B  191   5.817  13.416   8.662 -0.3210 -0.0927 -0.1264
   12loPI   C4B  192   5.560  13.287   8.377  0.0792 -0.0922 -0.0337
   13loPI    C1  193   8.380   7.284  10.122  0.0286 -0.2019  0.0468
   13loPI    C2  194   8.476   7.661  10.215  0.0625 -0.1770 -0.0868
   13loPI    C3  195   8.466   7.381  10.500  0.3751 -0.1460 -0.0425
   13loPI   PO4  196   8.268   7.314   9.882 -0.0319  0.0708  0.1101
   13loPI   GL1  197   8.269   6.991   9.676  0.1378  0.2372  0.1975
   13loPI   GL2  198   8.401   7.133   9.389  0.1061 -0.0930  0.0326
   13loPI   C1A  199   8.117   6.778   9.305  0.0604  0.0296 -0.1743
   13loPI   C2A  200   8.091   6.597   8.953 -0.0203  0.1647  0.0263
   13loPI   C3A  201   8.034   6.585   8.431 -0.1283  0.1117 -0.4871
   13loPI   C4A  202   8.046   6.496   7.940 -0.2763 -0.2287  0.0377
   13loPI   C5A  203   7.876   6.733   7.689 -0.0115  0.2442 -0.4170
   13loPI   C6A  204   7.458   6.638   7.409 -0.2687 -0.0586 -0.3558
   13loPI   C1B  205   8.405   6.999   8.992 -0.1317  0.0442 -0.0440
   13loPI   C2B  206   8.414   6.982   8.583  0.0145 -0.0186 -0.3177
   13loPI   C3B  207   8.675   6.952   8.246 -0.2418  0.1251 -0.0270
   13loPI   C4B  208   8.664   6.616   7.986  0.0551  0.0834  0.2263
   14loPI    C1  209  16.655   6.354  10.213 -0.0330 -0.0464 -0.0125
   14loPI    C2  210  16.523   6.368  10.590  0.0269 -0.0596  0.0091
   14loPI    C3  211  16.488   6.031  10.378  0.0593 -0.0741  0.0269
   14loPI   PO4  212  16.556   6.635  10.047 -0.0686  0.0639 -0.0458
   14loPI   GL1  213  16.535   6.950   9.694 -0.1321 -0.4334 -0.2628
   14loPI   GL2  214  16.836   7.058   9.611  0.0735 -0.1768  0.1283
   14loPI   C1A  215  16.447   6.589   9.412  0.1679 -0.0661  0.0726
   14loPI   C2A  216  16.468   6.383   9.029  0.1114  0.1499 -0.1611
   14loPI   C3A  217  16.481   6.423   8.673  0.3680 -0.2969  0.0400
   14loPI   C4A  218  16.446   6.330   8.137 -0.2245 -0.1681  0.1427
   14loPI   C5A  219  16.384   6.542   7.697 -0.1090  0.0920  0.1306
   14loPI   C6A  220  16.663   6.331   7.413 -0.0190  0.2730  0.0725
   14loPI   C1B  221  16.686   6.971   9.175  0.0821  0.0886  0.0815
   14loPI   C2B  222  16.683   6.922   8.809  0.3003  0.1473 -0.0356
   14loPI   C3B  223  16.632   6.955   8.342  0.1579 -0.1137 -0.0457
   14loPI   C4B  224  16.651   6.870   7.919 -0.1856  0.0865  0.1158
   15loPI    C1  225  13.821  12.526  11.179  0.1774  0.0910 -0.0616
   15loPI    C2  226  14.039  12.198  11.111  0.1168  0.0673 -0.1423
   15loPI    C3  227  13.771  12.201  11.408  0.0827  0.0269 -0.1725
   15loPI   PO4  228  13.773  12.636  10.889  0.0569  0.1780 -0.2122
   15loPI   GL1  229  13.984  12.702  10.586 -0.1184  0.2371  0.2806
   15loPI   GL2  230  13.873  12.365  10.499  0.0085  0.1145 -0.0882
   15loPI   C1A  231  13.799  12.697  10.187  0.0100 -0.0204  0.1178
   15loPI   C2A  232  13.876  12.714   9.888 -0.1142 -0.2503  0.2103
   15loPI   C3A  233  13.852  12.858   9.482 -0.2240  0.1234  0.1856
   15loPI   C4A  234  13.819  12.962   9.054  0.2703  0.2219 -0.3278
   15loPI   C5A  235  13.929  12.978   8.634  0.1488 -0.2188 -0.2295
   15loPI   C6A  236  13.787  12.773   8.302  0.1502 -0.1857  0.0646
   15loPI   C1B  237  13.734  12.240  10.062 -0.3423  0.0044 -0.0452
   15loPI   C2B  238  13.669  12.271   9.557 -0.1707  0.1048  0.0599
   15loPI   C3B  239  13.743  12.411   9.144 -0.3733 -0.2733  0.0271
   15loPI   C4B  240  13.703  12.534   8.766  0.1629  0.0233  0.2991
   16loPI    C1  241  13.243  14.247  11.148  0.2744 -0.0046 -0.0056
   16loPI    C2  242  12.988  14.229  11.455  0.1584 -0.0846 -0.1055
   16loPI    C3  243  13.271  14.512  11.446  0.2590 -0.1742  0.1481
   16loPI   PO4  244  13.154  14.270  10.900  0.1242 -0.1214  0.2743
   16loPI   GL1  245  13.024  14.415  10.587 -0.1846  0.3761  0.2062
   16loPI   GL2  246  12.800  14.583  10.679  0.1023  0.0420 -0.0921
   16loPI   C1A  247  13.328  14.394  10.246  0.2813  0.2540  0.6489
   16loPI   C2A  248  13.393  14.501   9.819  0.1136  0.0582  0.6179
   16loPI   C3A  249  13.486  14.542   9.442  0.2292  0.0145 -0.0374
   16loPI   C4A  250  13.424  14.544   8.962  0.0264 -0.0615  0.2075
   16loPI   C5A  251  13.362  14.230   8.653 -0.3332  0.1913  0.4388
   16loPI   C6A  252  13.199  13.937   8.270 -0.0442  0.1782  0.0007
   16loPI   C1B  253  12.764  14.324  10.170  0.0775  0.0457  0.1961
   16loPI   C2B  254  12.892  14.383   9.731 -0.2699 -0.1668  0.0857
   16loPI   C3B  255  12.949  14.406   9.342  0.2274 -0.0402 -0.2688
   16loPI   C4B  256  12.907  14.401   8.873 -0.1317  0.0934  0.0571
   17loPI    C1  257  16.250   5.616  10.701  0.0665 -0.0852 -0.0814
   17loPI    C2  258  16.563   5.831  10.827  0.0442  0.0081 -0.1826
   17loPI    C3  259  16.193   5.931  10.942  0.0589 -0.1676  0.0251
   17loPI   PO4  260  16.307   5.572  10.470  0.0879  0.1282 -0.1302
   17loPI   GL1  261  16.239   5.403  10.137 -0.0598 -0.1056 -0.5781
   17loPI   GL2  262  16.369   5.153  10.150 -0.1003 -0.3185  0.2228
   17loPI   C1A  263  16.099   5.464   9.642 -0.0067 -0.1532  0.0153
   17loPI   C2A  264  16.151   5.477   9.188 -0.2491 -0.1558 -0.0062
   17loPI   C3A  265  16.213   5.413   8.705  0.0203 -0.1848  0.0908
   17loPI   C4A  266  16.244   5.420   8.248  0.1891  0.1219 -0.0056
   17loPI   C5A  267  16.362   5.309   7.767  0.2802 -0.1781  0.0272
   17loPI   C6A  268  16.229   5.464   7.417 -0.1499  0.0525 -0.0811
   17loPI   C1B  269  16.537   5.067   9.679 -0.0778 -0.0147  0.3089
   17loPI   C2B  270  16.499   4.991   9.312  0.0526 -0.2974 -0.2725
   17loPI   C3B  271  16.557   4.974   8.771 -0.1346 -0.1905 -0.0219
   17loPI   C4B  272  16.473   4.736   8.347  0.0180  0.0727 -0.0720
   18loPI    C1  273   7.316   6.553  10.213  0.0453 -0.0448  0.2210
   18loPI    C2  274   7.541   6.857  10.345 -0.1240  0.1167  0.1418
   18loPI    C3  275   7.515   6.520  10.559  0.0768  0.1513  0.2227
   18loPI   PO4  276   7.353   6.547   9.900 -0.0569 -0.1398  0.1197
   18loPI   GL1  277   7.176   6.712   9.502 -0.2012  0.2222 -0.3499
   18loPI   GL2  278   7.302   7.014   9.566  0.4471  0.2963 -0.1865
   18loPI   C1A  279   7.049   6.523   9.252  0.1242  0.0511  0.0357
   18loPI   C2A  280   7.024   6.512   8.852 -0.0432 -0.1632  0.0656
   18loPI   C3A  281   7.007   6.503   8.357  0.1067 -0.1837  0.2948
   18loPI   C4A  282   7.119   6.358   8.015 -0.1746 -0.3968  0.1489
   18loPI   C5A  283   7.134   6.320   7.562  0.3807 -0.0536  0.0912
   18loPI   C6A  284   7.148   6.251   7.122  0.0899 -0.0284  0.2149
   18loPI   C1B  285   7.223   6.943   9.085 -0.1124 -0.0461  0.2061
   18loPI   C2B  286   7.231   6.938   8.633  0.2267  0.1441  0.0248
   18loPI   C3B  287   7.292   6.904   8.239  0.0206 -0.0536 -0.0776
   18loPI   C4B  288   7.371   6.830   7.841 -0.2030 -0.2294  0.1671
   19loPI    C1  289  12.245   3.525  11.137  0.0235  0.2023  0.0903
   19loPI    C2  290  12.482   3.382  11.426 -0.0803 -0.1526  0.0045
   19loPI    C3  291  12.217   3.670  11.509  0.2426  0.1112  0.1439
   19loPI   PO4  292  12.433   3.461  10.926  0.1177 -0.0237 -0.1505
   19loPI   GL1  293  12.478   3.429  10.438 -0.1419 -0.0961 -0.0075
   19loPI   GL2  294  12.151   3.576  10.469 -0.1779  0.1978 -0.0765
   19loPI   C1A  295  12.553   3.358  10.048 -0.0696 -0.0061  0.0170
   19loPI   C2A  296  12.591   3.226   9.674  0.3066  0.3177  0.0748
   19loPI   C3A  297  12.585   3.209   9.223  0.1274  0.1071  0.2179
   19loPI   C4A  298  12.659   3.206   8.850  0.1515  0.1875  0.2354
   19loPI   C5A  299  12.505   3.195   8.434 -0.2463  0.0375  0.2164
   19loPI   C6A  300  12.843   3.094   8.088  0.0217 -0.1653  0.1775
   19loPI   C1B  301  12.149   3.626  10.070  0.1003  0.1314 -0.0221
   19loPI   C2B  302  12.287   3.610   9.546 -0.0146 -0.0165  0.0349
   19loPI   C3B  303  12.312   3.577   9.057  0.1588  0.0201  0.1727
   19loPI   C4B  304  12.199   3.500   8.702  0.1019 -0.0848  0.0199
   20loPI    C1  305   6.573   1.239  11.263  0.1593  0.0160 -0.3918
   20loPI    C2  306   6.890   0.999  11.307 -0.0905 -0.2430  0.0810
   20loPI    C3  307   6.785   1.247  11.603 -0.2747 -0.0893 -0.1100
   20loPI   PO4  308   6.671   1.400  11.059  0.0203 -0.1302 -0.0283
   20loPI   GL1  309   6.757   1.403  10.601  0.0375  0.1559 -0.0708
   20loPI   GL2  310   6.540   1.722  10.616 -0.1465  0.2016  0.0076
   20loPI   C1A  311   6.820   1.337  10.126 -0.3298 -0.1713  0.0026
   20loPI   C2A  312   6.875   1.486   9.766  0.2181 -0.1190 -0.0580
   20loPI   C3A  313   6.907   1.301   9.424 -0.1334 -0.1144 -0.0457
   20loPI   C4A  314   6.864   1.521   8.973  0.1267  0.4501 -0.0298
   20loPI   C5A  315   6.690   1.543   8.629  0.0090  0.1177  0.2153
   20loPI   C6A  316   6.373   1.211   8.423 -0.2001 -0.2397 -0.0073
   20loPI   C1B  317   6.516   1.700  10.177  0.1528 -0.0484 -0.2673
   20loPI   C2B  318   6.460   1.806   9.766  0.0662  0.0854 -0.0374
   20loPI   C3B  319   6.639   1.798   9.399 -0.1598  0.2376  0.0941
   20loPI   C4B  320   6.395   1.738   9.016  0.0555 -0.3104 -0.3067
   21loPI    C1  321  15.923   2.752  10.926 -0.0105 -0.1687 -0.1206
   21loPI    C2  322  15.832   2.819  11.310  0.2518  0.1626 -0.1115
   21loPI    C3  323  16.112   2.550  11.215  0.0246 -0.0871 -0.0860
   21loPI   PO4  324  15.954   3.047  10.865  0.3061 -0.1289  0.1400
   21loPI   GL1  325  15.799   3.116  10.447  0.1442  0.0468  0.0186
   21loPI   GL2  326  15.584   3.375  10.356 -0.2050 -0.0271 -0.0030
   21loPI   C1A  327  15.834   3.101   9.983 -0.1889 -0.1914  0.0442
   21loPI   C2A  328  15.821   3.166   9.596 -0.1486 -0.0267  0.0292
   21loPI   C3A  329  15.947   3.056   9.132  0.2967 -0.2430  0.0655
   21loPI   C4A  330  15.927   3.004   8.739  0.0714 -0.2222 -0.0289
   21loPI   C5A  331  15.807   2.862   8.352  0.0352  0.0520  0.3673
   21loPI   C6A  332  15.607   2.867   8.057 -0.1596  0.2320 -0.0582
   21loPI   C1B  333  15.464   3.471   9.953  0.1484  0.3299 -0.0699
   21loPI   C2B  334  15.487   3.506   9.528 -0.2296  0.1368 -0.1077
   21loPI   C3B  335  15.591   3.411   9.062 -0.0217 -0.1682  0.2515
   21loPI   C4B  336  15.452   3.308   8.554 -0.2655  0.0521  0.3167
   22loPI    C1  337   0.185   4.973  10.991 -0.0293  0.1399 -0.0772
   22loPI    C2  338  -0.172   5.103  10.866 -0.1617  0.0034  0.1528
   22loPI    C3  339  -0.121   4.992  11.247  0.1591  0.1362  0.1516
   22loPI   PO4  340   0.300   4.884  10.645 -0.3149 -0.1129 -0.0916
   22loPI   GL1  341   0.164   4.676  10.197  0.2426  0.1689 -0.0628
   22loPI   GL2  342   0.183   4.318  10.175 -0.2199 -0.0654 -0.0292
   22loPI   C1A  343   0.190   4.986   9.821  0.1499  0.0434 -0.0286
   22loPI   C2A  344   0.351   4.965   9.421 -0.1480  0.0889  0.3206
   22loPI   C3A  345   0.301   4.900   8.933  0.3132 -0.0687 -0.1279
   22loPI   C4A  346   0.181   4.923   8.506 -0.1564 -0.0887 -0.5152
   22loPI   C5A  347   0.100   5.236   8.283  0.0111 -0.0015 -0.0175
   22loPI   C6A  348  -0.182   5.385   8.079 -0.2090 -0.1486  0.1643
   22loPI   C1B  349   0.278   4.437   9.771 -0.0228 -0.2382 -0.3834
   22loPI   C2B  350   0.287   4.456   9.351  0.2958  0.0338 -0.0985
   22loPI   C3B  351   0.153   4.444   8.892 -0.5956  0.1254 -0.2208
   22loPI   C4B  352   0.126   4.427   8.463 -0.0754 -0.3935  0.2985
   23loPI    C1  353  15.793  11.663  10.843  0.0201  0.3470 -0.3118
   23loPI    C2  354  15.438  11.481  10.880  0.1025  0.2089 -0.1919
   23loPI    C3  355  15.526  11.797  11.109  0.1561  0.0827 -0.0365
   23loPI   PO4  356  15.865  11.668  10.604 -0.1616  0.0812  0.2051
   23loPI   GL1  357  15.906  11.968  10.225  0.0625  0.2000  0.2252
   23loPI   GL2  358  16.007  11.779  10.052  0.3857  0.0369  0.0929
   23loPI   C1A  359  16.012  12.304   9.912  0.0002 -0.2825 -0.0297
   23loPI   C2A  360  16.057  12.434   9.467  0.0501 -0.1378  0.2274
   23loPI   C3A  361  16.042  12.498   9.049  0.2368 -0.1366  0.1447
   23loPI   C4A  362  16.056  12.317   8.592  0.2566 -0.4241  0.1962
   23loPI   C5A  363  16.020  12.566   8.285  0.1682  0.1744  0.1880
   23loPI   C6A  364  15.717  12.539   7.936  0.2521  0.0561  0.1050
   23loPI   C1B  365  16.008  11.943   9.564  0.2275 -0.4044 -0.2550
   23loPI   C2B  366  15.982  12.051   9.134 -0.0097 -0.2998  0.0174
   23loPI   C3B  367  15.912  11.878   8.802 -0.2900  0.2137 -0.0829
   23loPI   C4B  368  15.937  11.768   8.417  0.0743  0.0427  0.1636
   24loPI    C1  369   0.924   2.705  11.119 -0.0789 -0.1151 -0.1748
   24loPI    C2  370   0.793   3.082  11.090 -0.1959 -0.1658 -0.3162
   24loPI    C3  371   0.626   2.832  11.355 -0.0512 -0.0909 -0.1528
   24loPI   PO4  372   0.932   2.689  10.780 -0.0770 -0.2726 -0.1078
   24loPI   GL1  373   0.852   2.366  10.446 -0.2114  0.1452 -0.2256
   24loPI   GL2  374   0.567   2.624  10.406  0.1936 -0.2185 -0.2800
   24loPI   C1A  375   0.963   2.422  10.079 -0.0112  0.0211  0.1205
   24loPI   C2A  376   0.966   2.293   9.724 -0.0865  0.1781  0.2136
   24loPI   C3A  377   0.810   2.375   9.259  0.0695 -0.1496 -0.1258
   24loPI   C4A  378   0.912   2.320   8.761 -0.0677  0.2042 -0.1286
   24loPI   C5A  379   0.764   2.112   8.438  0.3269  0.0421  0.0504
   24loPI   C6A  380   0.780   1.685   8.170 -0.0144 -0.2667 -0.0689
   24loPI   C1B  381   0.579   2.730   9.983 -0.0087  0.3614 -0.3824
   24loPI   C2B  382   0.538   2.717   9.558 -0.0013  0.0157  0.2605
   24loPI   C3B  383   0.578   2.758   9.006 -0.0104  0.2192 -0.1504
   24loPI   C4B  384   0.624   2.681   8.556  0.0001  0.1052 -0.0453
   25loPI    C1  385  12.699   5.222  10.648 -0.1298  0.0542 -0.0551
   25loPI    C2  386  12.531   5.291  11.004 -0.1872  0.0455 -0.0805
   25loPI    C3  387  12.929   5.298  10.967 -0.1770 -0.0526  0.0049
   25loPI   PO4  388  12.599   5.340  10.512  0.2648  0.0140 -0.2097
   25loPI   GL1  389  12.548   5.498  10.053 -0.0638  0.0124 -0.0529
   25loPI   GL2  390  12.241   5.400  10.165  0.1032  0.2853  0.4581
   25loPI   C1A  391  12.414   5.556   9.660 -0.0525 -0.0024 -0.0123
   25loPI   C2A  392  12.326   5.504   9.284 -0.1181  0.1654  0.1077
   25loPI   C3A  393  12.322   5.393   8.796  0.0372 -0.3502 -0.0292
   25loPI   C4A  394  12.528   5.413   8.402 -0.0580  0.0737  0.3049
   25loPI   C5A  395  12.363   5.324   8.001 -0.0797  0.1601  0.0749
   25loPI   C6A  396  12.452   5.135   7.667 -0.0263  0.1558  0.3729
   25loPI   C1B  397  12.252   5.126   9.755 -0.2773 -0.1307 -0.0108
   25loPI   C2B  398  12.166   5.024   9.323  0.0180  0.1564  0.1857
   25loPI   C3B  399  12.255   4.916   8.773  0.0258  0.1789  0.0558
   25loPI   C4B  400  12.368   4.851   8.343  0.2900 -0.1670 -0.1664
   26loPI    C1  401   6.755  15.605  10.886  0.0442 -0.1824  0.2229
   26loPI    C2  402   6.675  15.891  11.155 -0.0786 -0.0498  0.0483
   26loPI    C3  403   7.037  15.720  11.145  0.0241  0.1621  0.0972
   26loPI   PO4  404   6.647  15.702  10.674  0.2254  0.0218 -0.3857
   26loPI   GL1  405   6.572  16.148  10.566 -0.0617 -0.0657 -0.1819
   26loPI   GL2  406   6.306  16.042  10.443 -0.0335 -0.0884 -0.1728
   26loPI   C1A  407   6.773  16.259  10.179 -0.1226 -0.1213  0.1299
   26loPI   C2A  408   6.736  16.214   9.739 -0.0733  0.1186 -0.2403
   26loPI   C3A  409   6.767  16.272   9.433  0.1746 -0.3602  0.1384
   26loPI   C4A  410   6.651  16.357   9.057 -0.1146  0.1616  0.2357
   26loPI   C5A  411   6.713  16.418   8.561  0.1362  0.0064 -0.1151
   26loPI   C6A  412   6.938  16.212   8.292  0.1016 -0.1081 -0.5188
   26loPI   C1B  413   6.279  16.174   9.994  0.1183  0.1689 -0.0527
   26loPI   C2B  414   6.223  16.126   9.540  0.3155 -0.0672 -0.0591
   26loPI   C3B  415   6.177  16.233   9.065  0.3115  0.3617  0.0217
   26loPI   C4B  416   6.286  16.258   8.600  0.3551  0.0655  0.1679
   27loPI    C1  417   9.533  13.901  10.907 -0.0720 -0.0283  0.0041
   27loPI    C2  418   9.671  13.573  10.725  0.0910  0.0004  0.0751
   27loPI    C3  419   9.791  13.662  11.097 -0.0453  0.0766  0.1012
   27loPI   PO4  420   9.534  14.112  10.672  0.2755 -0.0053  0.0984
   27loPI   GL1  421   9.223  14.243  10.263 -0.2398  0.0061  0.0562
   27loPI   GL2  422   9.042  14.308   9.875 -0.1615 -0.0515  0.1835
   27loPI   C1A  423   9.534  14.182   9.954  0.2890 -0.1781  0.0164
   27loPI   C2A  424   9.531  14.142   9.606 -0.0034 -0.0299  0.2222
   27loPI   C3A  425   9.475  14.214   9.153 -0.0271  0.2830  0.0765
   27loPI   C4A  426   9.464  14.155   8.687 -0.0640  0.0606  0.1335
   27loPI   C5A  427   9.334  14.261   8.202  0.0683  0.2192  0.0279
   27loPI   C6A  428   8.951  14.310   7.915 -0.0171  0.2379  0.4261
   27loPI   C1B  429   9.195  14.519   9.531 -0.0953  0.0346  0.1387
   27loPI   C2B  430   9.181  14.612   9.120  0.0605  0.1792  0.0480
   27loPI   C3B  431   8.957  14.570   8.719 -0.0236  0.1313 -0.0020
   27loPI   C4B  432   8.941  14.687   8.245 -0.3690  0.2518  0.2214
   28loPI    C1  433   3.668   7.632  10.247  0.2040  0.0625 -0.1311
   28loPI    C2  434   3.627   7.975  10.449  0.1383 -0.0104 -0.0192
   28loPI    C3  435   3.743   7.643  10.640  0.0514 -0.0860 -0.0965
   28loPI   PO4  436   3.875   7.678  10.063  0.1561 -0.0397 -0.0177
   28loPI   GL1  437   4.074   7.528   9.822 -0.0221 -0.0411 -0.1639
   28loPI   GL2  438   4.107   7.831   9.594  0.0284 -0.2020  0.2229
   28loPI   C1A  439   3.943   7.275   9.498  0.1196  0.0470 -0.0052
   28loPI   C2A  440   3.735   7.183   9.110  0.3722 -0.2877  0.0630
   28loPI   C3A  441   3.868   7.244   8.707  0.0590 -0.2540  0.1083
   28loPI   C4A  442   3.867   7.140   8.312 -0.1127 -0.0481  0.2717
   28loPI   C5A  443   3.745   7.263   7.850 -0.0319  0.0981  0.0536
   28loPI   C6A  444   3.932   6.993   7.406  0.4068 -0.2680 -0.2294
   28loPI   C1B  445   3.950   7.685   9.234 -0.0185 -0.0975 -0.0972
   28loPI   C2B  446   4.019   7.773   8.901  0.3314 -0.1788  0.1063
   28loPI   C3B  447   4.054   7.678   8.468  0.2205 -0.0672  0.1970
   28loPI   C4B  448   4.113   7.533   8.023 -0.1105 -0.1203 -0.0506
   29loPI    C1  449   3.816   5.007  10.898  0.0764 -0.0676  0.1097
   29loPI    C2  450   3.601   5.284  11.091 -0.0099 -0.0123 -0.0626
   29loPI    C3  451   3.999   5.272  11.135  0.0195  0.2825 -0.2266
   29loPI   PO4  452   3.678   4.888  10.708  0.4081 -0.3492 -0.0646
   29loPI   GL1  453   3.432   4.925  10.372  0.1232  0.1582 -0.1105
   29loPI   GL2  454   3.694   4.849  10.157  0.2942  0.2254 -0.1806
   29loPI   C1A  455   3.442   4.489   9.977  0.3076 -0.2168 -0.1398
   29loPI   C2A  456   3.428   4.414   9.575 -0.1959  0.1042 -0.0009
   29loPI   C3A  457   3.377   4.254   9.158 -0.0628  0.0796  0.0073
   29loPI   C4A  458   3.444   4.181   8.733  0.1532 -0.0091  0.1959
   29loPI   C5A  459   3.425   4.286   8.250 -0.1321 -0.0569 -0.1987
   29loPI   C6A  460   3.465   4.216   7.818  0.1869 -0.0249 -0.1313
   29loPI   C1B  461   3.604   4.881   9.712 -0.0907 -0.6177 -0.0775
   29loPI   C2B  462   3.514   4.835   9.324  0.1771 -0.0928 -0.2046
   29loPI   C3B  463   3.624   4.725   8.906 -0.1995 -0.1915 -0.0335
   29loPI   C4B  464   3.549   4.662   8.515  0.0113 -0.0169 -0.0529
   30loPI    C1  465  10.596   2.435  11.127 -0.0705  0.0577  0.0536
   30loPI    C2  466  10.504   2.048  11.168  0.1207  0.0162  0.1025
   30loPI    C3  467  10.822   2.198  11.357  0.1796  0.1465 -0.0971
   30loPI   PO4  468  10.527   2.492  10.888 -0.0756 -0.0031 -0.0390
   30loPI   GL1  469  10.657   2.498  10.467 -0.0246 -0.1707  0.1911
   30loPI   GL2  470  10.596   2.874  10.444 -0.0744  0.0479  0.3387
   30loPI   C1A  471  10.773   2.515   9.987  0.0303 -0.2089 -0.1632
   30loPI   C2A  472  10.926   2.398   9.530  0.3141  0.2197  0.0602
   30loPI   C3A  473  10.988   2.400   9.058  0.0039 -0.0654  0.0224
   30loPI   C4A  474  11.058   2.317   8.670 -0.1828 -0.0790  0.1397
   30loPI   C5A  475  10.914   2.000   8.437  0.1948 -0.3843  0.2643
   30loPI   C6A  476  10.534   2.119   8.128 -0.3980  0.1954  0.0298
   30loPI   C1B  477  10.502   2.957   9.996  0.2408  0.2568  0.1219
   30loPI   C2B  478  10.462   2.821   9.603 -0.0601  0.1920  0.0059
   30loPI   C3B  479  10.591   2.776   9.152 -0.2125 -0.5813 -0.0334
   30loPI   C4B  480  10.635   2.671   8.670  0.1841  0.0185  0.1643
   31loPI    C1  481  13.515  11.715  11.181  0.2342  0.1496 -0.0531
   31loPI    C2  482  13.860  11.607  11.351  0.2584  0.1471 -0.1034
   31loPI    C3  483  13.569  11.766  11.574  0.3229  0.2255 -0.0745
   31loPI   PO4  484  13.609  11.845  10.903 -0.0673  0.0387 -0.1800
   31loPI   GL1  485  13.322  11.938  10.529  0.2374 -0.1809  0.2418
   31loPI   GL2  486  13.648  11.907  10.406  0.0267 -0.0354  0.2031
   31loPI   C1A  487  13.152  11.880  10.150  0.1456 -0.1454  0.0950
   31loPI   C2A  488  13.146  12.023   9.665  0.1107  0.1764 -0.2934
   31loPI   C3A  489  13.217  12.187   9.263  0.2915 -0.1103  0.1057
   31loPI   C4A  490  13.176  12.282   8.842 -0.0060 -0.1642 -0.0728
   31loPI   C5A  491  13.242  12.657   8.593  0.0355 -0.2782 -0.2184
   31loPI   C6A  492  12.980  12.816   8.098  0.0519  0.2821 -0.0544
   31loPI   C1B  493  13.616  11.829   9.927  0.1416  0.1476  0.1576
   31loPI   C2B  494  13.565  11.790   9.499 -0.2101  0.1714  0.1061
   31loPI   C3B  495  13.608  11.883   9.022  0.2901  0.0199  0.0294
   31loPI   C4B  496  13.539  12.041   8.601 -0.4686 -0.1405 -0.0497
   32loPI    C1  497  11.881   1.131  11.279  0.0720  0.1389 -0.2356
   32loPI    C2  498  12.251   1.035  11.398 -0.0715 -0.2820 -0.1139
   32loPI    C3  499  12.009   1.241  11.642  0.0729 -0.0236 -0.1859
   32loPI   PO4  500  11.840   1.176  11.030  0.1046  0.3255 -0.2424
   32loPI   GL1  501  11.783   0.972  10.664  0.0738 -0.1595  0.1684
   32loPI   GL2  502  11.426   0.949  10.775  0.1670  0.0384 -0.0004
   32loPI   C1A  503  11.820   0.942  10.161  0.0367 -0.1865  0.1291
   32loPI   C2A  504  11.794   0.855   9.721  0.4940 -0.3535 -0.2927
   32loPI   C3A  505  11.809   0.739   9.276  0.0012  0.0109 -0.0540
   32loPI   C4A  506  11.879   0.542   8.896 -0.1239 -0.2698  0.1599
   32loPI   C5A  507  12.141   0.580   8.533  0.1648 -0.1360  0.1838
   32loPI   C6A  508  11.971   0.812   8.220  0.0635  0.2317  0.0947
   32loPI   C1B  509  11.088   1.075  10.591  0.0267 -0.0043 -0.2644
   32loPI   C2B  510  10.931   1.114  10.146  0.0720 -0.0037  0.5312
   32loPI   C3B  511  10.991   1.165   9.669  0.3186 -0.1695  0.0804
   32loPI   C4B  512  11.025   0.977   9.228  0.2654 -0.4541 -0.0396
   33loPI    C1  513   1.845  12.983  10.812  0.0523 -0.1103 -0.0762
   33loPI    C2  514   2.160  13.091  11.034  0.0197  0.1001 -0.1308
   33loPI    C3  515   1.874  12.860  11.191  0.1647 -0.0320 -0.0589
   33loPI   PO4  516   1.965  12.931  10.581  0.3495  0.1406  0.1185
   33loPI   GL1  517   2.032  13.009  10.287  0.2206  0.0518 -0.0791
   33loPI   GL2  518   1.968  12.775  10.104  0.1709  0.2029 -0.2091
   33loPI   C1A  519   2.005  13.320   9.957 -0.3627  0.0151 -0.0701
   33loPI   C2A  520   1.954  13.449   9.562 -0.2062 -0.3252  0.0440
   33loPI   C3A  521   1.954  13.408   9.112  0.1112 -0.2169  0.2568
   33loPI   C4A  522   1.943  13.491   8.530  0.0815  0.4883  0.0552
   33loPI   C5A  523   2.151  13.449   8.098  0.0586  0.3009  0.0764
   33loPI   C6A  524   2.314  13.145   7.787 -0.1119 -0.0408  0.0110
   33loPI   C1B  525   1.872  12.915   9.659  0.4765  0.1625 -0.2474
   33loPI   C2B  526   1.831  12.970   9.264 -0.0184  0.1170  0.2751
   33loPI   C3B  527   1.756  12.884   8.751 -0.1255 -0.0095  0.0084
   33loPI   C4B  528   1.724  12.772   8.317  0.1099 -0.1193 -0.1301
   34loPI    C1  529   9.227   0.069  11.034 -0.2366 -0.2177 -0.2302
   34loPI    C2  530   9.495  -0.080  11.292 -0.0566  0.1150 -0.2201
   34loPI    C3  531   9.140  -0.259  11.246  0.0736 -0.1909 -0.0559
   34loPI   PO4  532   9.392   0.050  10.812 -0.0684  0.3514 -0.1824
   34loPI   GL1  533   9.679   0.316  10.547 -0.1062 -0.0348  0.0315
   34loPI   GL2  534   9.981   0.351  10.325  0.0942 -0.3152 -0.2176
   34loPI   C1A  535   9.574   0.123  10.153  0.1206  0.0075 -0.0237
   34loPI   C2A  536   9.442   0.173   9.730 -0.0104  0.2167 -0.0442
   34loPI   C3A  537   9.298   0.178   9.171 -0.2212  0.2455  0.0675
   34loPI   C4A  538   9.217   0.228   8.782 -0.0852 -0.6194 -0.3599
   34loPI   C5A  539   9.108  -0.052   8.403  0.0049  0.1002 -0.0065
   34loPI   C6A  540   8.972  -0.439   8.173 -0.0524 -0.0884 -0.0157
   34loPI   C1B  541   9.906   0.375   9.874  0.1783 -0.1585  0.3146
   34loPI   C2B  542   9.825   0.207   9.363 -0.0803  0.0977  0.0045
   34loPI   C3B  543   9.826   0.278   8.961  0.0126 -0.1409 -0.0152
   34loPI   C4B  544   9.613   0.304   8.495 -0.1236  0.4728 -0.0230
   35loPI    C1  545  11.734   4.306  10.925  0.2082  0.0956 -0.2465
   35loPI    C2  546  11.797   4.669  11.080 -0.0127  0.0834 -0.1237
   35loPI    C3  547  11.822   4.345  11.313  0.0802  0.0282 -0.2100
   35loPI   PO4  548  11.679   4.359  10.702 -0.2317 -0.0580 -0.1448
   35loPI   GL1  549  11.775   4.162  10.286  0.1411 -0.2121 -0.2368
   35loPI   GL2  550  11.760   3.860  10.269  0.0638 -0.0853 -0.4228
   35loPI   C1A  551  11.894   4.199   9.884 -0.0603 -0.0843  0.0571
   35loPI   C2A  552  12.027   4.032   9.485 -0.3322  0.1851  0.0199
   35loPI   C3A  553  12.006   4.026   9.110 -0.1994  0.3343 -0.0431
   35loPI   C4A  554  12.013   3.978   8.744 -0.0480  0.0790  0.3528
   35loPI   C5A  555  11.899   3.863   8.388 -0.0495 -0.2945  0.0978
   35loPI   C6A  556  11.584   3.758   8.007  0.0000  0.1726 -0.0570
   35loPI   C1B  557  11.718   3.622   9.879 -0.1286  0.0106  0.2195
   35loPI   C2B  558  11.773   3.389   9.401 -0.1404  0.0409 -0.2892
   35loPI   C3B  559  11.820   3.527   9.021 -0.3599 -0.0958 -0.0562
   35loPI   C4B  560  11.653   3.535   8.567  0.0472 -0.1584 -0.0763
   36loPI    C1  561   3.624  18.094  11.257 -0.0189  0.0616  0.0499
   36loPI    C2  562   3.451  18.160  11.612 -0.1798 -0.2344  0.0292
   36loPI    C3  563   3.808  17.981  11.593 -0.0635 -0.0083  0.0508
   36loPI   PO4  564   3.512  17.901  11.033  0.0434 -0.0486 -0.2807
   36loPI   GL1  565   3.589  17.854  10.622 -0.2676  0.0045 -0.1515
   36loPI   GL2  566   3.474  18.100  10.564 -0.1168 -0.0800 -0.3632
   36loPI   C1A  567   3.889  17.979  10.317 -0.0490  0.1609 -0.2073
   36loPI   C2A  568   3.848  17.949   9.912 -0.2039  0.1059 -0.3416
   36loPI   C3A  569   3.912  18.037   9.553 -0.2393 -0.1255  0.2367
   36loPI   C4A  570   4.010  18.010   9.132  0.0338  0.1133 -0.1201
   36loPI   C5A  571   4.032  17.976   8.705 -0.0892 -0.0407  0.1070
   36loPI   C6A  572   4.229  18.085   8.350  0.0095 -0.0818 -0.1329
   36loPI   C1B  573   3.482  18.375  10.193 -0.1482  0.3136  0.0905
   36loPI   C2B  574   3.622  18.348   9.773 -0.0358  0.1580  0.0626
   36loPI   C3B  575   3.627  18.328   9.195 -0.0274  0.1270  0.2980
   36loPI   C4B  576   3.743  18.354   8.834 -0.1243  0.5732  0.0772
   37loPI    C1  577  14.930   6.158  10.382 -0.0558  0.2097 -0.0573
   37loPI    C2  578  15.151   5.973  10.660  0.0180  0.0687 -0.2083
   37loPI    C3  579  14.960   6.313  10.750 -0.0317 -0.0233  0.0406
   37loPI   PO4  580  15.073   6.075  10.157  0.2616 -0.3480 -0.1289
   37loPI   GL1  581  15.491   6.064   9.883 -0.3531 -0.2503 -0.1744
   37loPI   GL2  582  15.240   5.796   9.807  0.0369  0.0126 -0.0983
   37loPI   C1A  583  15.508   6.250   9.512 -0.2789  0.2455  0.1428
   37loPI   C2A  584  15.514   6.219   9.072 -0.2517  0.2594 -0.0766
   37loPI   C3A  585  15.501   6.153   8.644  0.1541  0.0282  0.1455
   37loPI   C4A  586  15.495   5.973   8.223  0.0808  0.0059 -0.2435
   37loPI   C5A  587  15.418   5.994   7.851  0.0606  0.1947 -0.0740
   37loPI   C6A  588  15.092   5.831   7.720  0.1235  0.1541 -0.0453
   37loPI   C1B  589  15.329   5.759   9.278 -0.0438 -0.3052 -0.2183
   37loPI   C2B  590  15.355   5.581   8.903 -0.0542 -0.0265 -0.1814
   37loPI   C3B  591  15.339   5.582   8.497 -0.3315 -0.5040  0.3201
   37loPI   C4B  592  15.389   5.487   8.055  0.2381  0.1707 -0.3704
   38loPI    C1  593   2.497   0.139  11.212 -0.1467 -0.1063 -0.1473
   38loPI    C2  594   2.601   0.093  11.596  0.0855 -0.0736 -0.2048
   38loPI    C3  595   2.593  -0.223  11.351  0.2023 -0.0516 -0.2376
   38loPI   PO4  596   2.671   0.349  11.055 -0.0889  0.0719  0.0573
   38loPI   GL1  597   2.528   0.552  10.684  0.0395 -0.0462  0.1554
   38loPI   GL2  598   2.740   0.823  10.559 -0.0800  0.1656 -0.1643
   38loPI   C1A  599   2.680   0.455  10.238  0.2399  0.0509  0.0530
   38loPI   C2A  600   2.683   0.421   9.821  0.1862  0.2196  0.1083
   38loPI   C3A  601   2.653   0.452   9.350 -0.0013 -0.0567  0.0501
   38loPI   C4A  602   2.829   0.407   8.920 -0.0166  0.2089  0.0536
   38loPI   C5A  603   2.850   0.480   8.463  0.1499  0.0555  0.1364
   38loPI   C6A  604   2.868   0.768   8.166  0.0441  0.0185  0.0713
   38loPI   C1B  605   2.790   0.908  10.100  0.3039  0.0678 -0.0029
   38loPI   C2B  606   2.902   0.878   9.604  0.2507 -0.1492 -0.0934
   38loPI   C3B  607   2.928   0.917   9.125  0.1344  0.1272  0.5166
   38loPI   C4B  608   2.885   0.911   8.767  0.0507 -0.1196  0.0525
   39loPI    C1  609  15.166   0.933  10.865 -0.0844 -0.0958  0.0000
   39loPI    C2  610  15.132   1.100  11.227 -0.1329 -0.0036 -0.0468
   39loPI    C3  611  15.494   1.037  11.070 -0.1163  0.1677 -0.0794
   39loPI   PO4  612  14.854   1.009  10.834 -0.1549  0.1490  0.0291
   39loPI   GL1  613  14.933   1.332  10.587  0.4165  0.0765 -0.1936
   39loPI   GL2  614  15.173   1.193  10.378  0.0185 -0.0146  0.0265
   39loPI   C1A  615  14.867   1.542  10.194 -0.0192  0.3613  0.1765
   39loPI   C2A  616  14.926   1.447   9.657  0.0519  0.0390 -0.4016
   39loPI   C3A  617  14.894   1.461   9.225 -0.2928  0.0066  0.0981
   39loPI   C4A  618  14.993   1.276   8.929  0.0301  0.2395 -0.1661
   39loPI   C5A  619  14.979   1.283   8.596  0.0546 -0.0745  0.2066
   39loPI   C6A  620  15.197   1.303   8.290 -0.1174 -0.0979 -0.0554
   39loPI   C1B  621  15.269   1.101   9.961  0.0606 -0.3418 -0.0942
   39loPI   C2B  622  15.317   1.167   9.524  0.4429  0.0980 -0.1489
   39loPI   C3B  623  15.332   0.944   9.124 -0.0036 -0.0321 -0.1392
   39loPI   C4B  624  15.417   0.951   8.720 -0.3846  0.0639  0.2340
   40loPI    C1  625   8.306  11.475  10.326 -0.0202  0.0352 -0.0924
   40loPI    C2  626   8.300  11.179  10.056 -0.1193 -0.0159 -0.0348
   40loPI    C3  627   7.964  11.284  10.245 -0.0984  0.1792 -0.1034
   40loPI   PO4  628   8.528  11.669  10.192  0.0563  0.1670 -0.0807
   40loPI   GL1  629   8.381  12.043   9.817  0.0061 -0.1976 -0.2841
   40loPI   GL2  630   8.677  11.933   9.753 -0.1398 -0.3068  0.4269
   40loPI   C1A  631   8.205  12.344   9.597  0.1148 -0.3623 -0.2553
   40loPI   C2A  632   7.909  12.509   9.314  0.1291 -0.0056  0.1183
   40loPI   C3A  633   7.960  12.490   8.917  0.3644 -0.3266  0.0223
   40loPI   C4A  634   7.888  12.542   8.510 -0.1429  0.0272  0.1203
   40loPI   C5A  635   7.901  12.449   8.021  0.1122 -0.1445 -0.0923
   40loPI   C6A  636   7.796  12.234   7.651 -0.3738 -0.0342  0.0202
   40loPI   C1B  637   8.609  12.097   9.389 -0.1669  0.0167  0.1834
   40loPI   C2B  638   8.738  12.202   8.923 -0.1456 -0.1496 -0.1086
   40loPI   C3B  639   8.646  12.159   8.442 -0.0136  0.2404  0.4612
   40loPI   C4B  640   8.533  12.188   8.043 -0.2129 -0.1443 -0.0203
   41loPI    C1  641  17.832   0.400  11.290 -0.1746  0.0059 -0.1039
   41loPI    C2  642  18.022   0.084  11.444 -0.2304 -0.0344 -0.1178
   41loPI    C3  643  18.069   0.445  11.609 -0.0859 -0.0314 -0.1643
   41loPI   PO4  644  17.910   0.402  11.061 -0.0029  0.1350  0.0539
   41loPI   GL1  645  17.786   0.450  10.589  0.0272  0.2705  0.0860
   41loPI   GL2  646  17.497   0.616  10.562  0.0055 -0.0661 -0.1326
   41loPI   C1A  647  17.855   0.345  10.212  0.1102 -0.3614 -0.1912
   41loPI   C2A  648  17.888   0.311   9.731 -0.0144 -0.0788 -0.2706
   41loPI   C3A  649  17.924   0.258   9.298  0.3697  0.0199  0.0836
   41loPI   C4A  650  18.004   0.238   8.876 -0.0775  0.2668  0.0568
   41loPI   C5A  651  18.025   0.296   8.440  0.1318 -0.1873  0.0170
   41loPI   C6A  652  17.717   0.307   8.138 -0.0228  0.0353 -0.2483
   41loPI   C1B  653  17.494   0.721  10.137  0.0841 -0.2380  0.1639
   41loPI   C2B  654  17.577   0.743   9.740  0.0441  0.1361 -0.3034
   41loPI   C3B  655  17.582   0.646   9.248 -0.4984  0.2045 -0.0033
   41loPI   C4B  656  17.714   0.635   8.765 -0.0188 -0.0985  0.1028
   42loPI    C1  657   4.825  13.199  10.845 -0.0770  0.0122  0.0096
   42loPI    C2  658   4.513  13.208  11.095  0.0212  0.0524  0.1316
   42loPI    C3  659   4.767  12.899  11.103  0.0855  0.1058  0.1568
   42loPI   PO4  660   4.916  13.362  10.835  0.0179  0.2103 -0.0819
   42loPI   GL1  661   4.884  13.591  10.494 -0.0360 -0.2957 -0.1343
   42loPI   GL2  662   4.572  13.728  10.431 -0.2444 -0.1924 -0.2132
   42loPI   C1A  663   4.843  13.625  10.029  0.1114 -0.0494  0.2368
   42loPI   C2A  664   4.874  13.631   9.654  0.0488  0.2043  0.0374
   42loPI   C3A  665   4.986  13.563   9.230 -0.0048 -0.1094 -0.2146
   42loPI   C4A  666   4.929  13.661   8.904 -0.2279 -0.0269 -0.0526
   42loPI   C5A  667   4.835  13.573   8.412  0.0420  0.1748 -0.2520
   42loPI   C6A  668   4.718  13.472   8.037  0.0541 -0.0485 -0.2574
   42loPI   C1B  669   4.504  13.984  10.067  0.1638 -0.3431 -0.3889
   42loPI   C2B  670   4.541  14.032   9.658 -0.4010 -0.2065 -0.1231
   42loPI   C3B  671   4.453  14.104   9.293 -0.0898  0.0005  0.0228
   42loPI   C4B  672   4.632  14.011   8.797  0.0171  0.0774  0.1629
   43loPI    C1  673  12.587   9.314  10.220 -0.3790  0.0041 -0.0125
   43loPI    C2  674  12.825   9.282  10.540 -0.1575  0.0836 -0.1669
   43loPI    C3  675  12.455   9.132  10.550 -0.0321 -0.2225  0.0063
   43loPI   PO4  676  12.731   9.224  10.028  0.1804 -0.0987  0.0215
   43loPI   GL1  677  12.870   9.244   9.595  0.0326 -0.0756 -0.0005
   43loPI   GL2  678  12.667   9.002   9.516  0.1190  0.2087  0.3997
   43loPI   C1A  679  12.947   9.619   9.320  0.3643  0.1340  0.0791
   43loPI   C2A  680  12.884   9.907   8.934  0.0344  0.1706 -0.0162
   43loPI   C3A  681  12.884   9.880   8.543  0.0732 -0.0493  0.1144
   43loPI   C4A  682  12.620   9.990   8.315  0.0251  0.2060  0.2468
   43loPI   C5A  683  12.360   9.916   8.003 -0.0758 -0.1529 -0.0846
   43loPI   C6A  684  12.154   9.702   7.749  0.2123  0.5635 -0.3152
   43loPI   C1B  685  12.854   9.021   9.094 -0.1965 -0.1805 -0.0070
   43loPI   C2B  686  12.814   9.033   8.703 -0.2443 -0.1857 -0.2462
   43loPI   C3B  687  12.757   9.132   8.215  0.2428 -0.1798 -0.1213
   43loPI   C4B  688  12.899   9.126   7.719 -0.3603  0.0560 -0.1309
   44loPI    C1  689   1.907   2.844  11.019 -0.2000 -0.0627 -0.0464
   44loPI    C2  690   1.866   2.575  11.312 -0.1866  0.0076  0.0204
   44loPI    C3  691   1.680   2.929  11.337 -0.2080  0.0030 -0.0693
   44loPI   PO4  692   1.848   2.692  10.729 -0.0467  0.2339  0.0539
   44loPI   GL1  693   1.743   2.578  10.270 -0.1557  0.0690 -0.0511
   44loPI   GL2  694   1.983   2.622  10.081  0.0426  0.2372 -0.0899
   44loPI   C1A  695   1.477   2.479   9.985 -0.0201  0.0200 -0.0086
   44loPI   C2A  696   1.392   2.457   9.544 -0.0256 -0.0933 -0.1628
   44loPI   C3A  697   1.345   2.445   9.129 -0.1954  0.3120  0.1905
   44loPI   C4A  698   1.446   2.417   8.626  0.1392 -0.0695  0.3430
   44loPI   C5A  699   1.432   2.463   8.251 -0.0513 -0.2729 -0.2848
   44loPI   C6A  700   1.660   2.502   7.892  0.2426 -0.0924 -0.1001
   44loPI   C1B  701   1.942   2.593   9.598 -0.0677  0.1193  0.0329
   44loPI   C2B  702   1.904   2.609   9.186  0.1786  0.0142 -0.2109
   44loPI   C3B  703   1.945   2.662   8.729  0.0670  0.1319  0.1452
   44loPI   C4B  704   1.958   2.475   8.378 -0.0924 -0.0889 -0.0892
   45loPI    C1  705   9.895   9.691   9.945  0.0876 -0.0779  0.0052
   45loPI    C2  706   9.889   9.360  10.169  0.1452 -0.0279  0.0816
   45loPI    C3  707   9.958   9.715  10.340  0.0265  0.0308  0.0088
   45loPI   PO4  708   9.885   9.658   9.647  0.2122 -0.1241  0.2356
   45loPI   GL1  709   9.750   9.962   9.299  0.1266 -0.0627 -0.0101
   45loPI   GL2  710  10.041   9.886   9.289 -0.2421 -0.0833  0.2092
   45loPI   C1A  711   9.699  10.126   8.920  0.2313  0.0789  0.1383
   45loPI   C2A  712   9.659   9.883   8.565  0.1900  0.0841 -0.4931
   45loPI   C3A  713   9.572   9.813   8.247 -0.2043 -0.1509  0.0334
   45loPI   C4A  714   9.343   9.615   7.879  0.1286 -0.0761 -0.0904
   45loPI   C5A  715   9.171   9.273   7.553  0.1327  0.0385 -0.0731
   45loPI   C6A  716   8.897   9.278   7.249  0.1011 -0.3269  0.2205
   45loPI   C1B  717   9.979   9.703   8.926 -0.0816 -0.3829  0.0507
   45loPI   C2B  718  10.093   9.640   8.532 -0.4518 -0.0738  0.0710
   45loPI   C3B  719  10.217   9.508   8.111 -0.1248  0.3231 -0.2642
   45loPI   C4B  720  10.337   9.424   7.716 -0.1990 -0.3090 -0.0047
   46loPI    C1  721  12.209   3.945  10.755 -0.0104  0.2322  0.0828
   46loPI    C2  722  11.837   3.810  10.814  0.0884 -0.0639  0.0435
   46loPI    C3  723  12.049   3.955  11.121 -0.0178 -0.0002  0.0872
   46loPI   PO4  724  12.172   4.164  10.584 -0.0130 -0.0678 -0.0550
   46loPI   GL1  725  12.292   4.094  10.231 -0.2201  0.0234 -0.0020
   46loPI   GL2  726  12.501   3.876  10.235 -0.0371 -0.0332 -0.0741
   46loPI   C1A  727  12.371   4.161   9.821 -0.1054 -0.0860 -0.0245
   46loPI   C2A  728  12.471   4.192   9.352 -0.1259  0.1147 -0.0172
   46loPI   C3A  729  12.492   4.095   8.956  0.0646 -0.2516  0.2910
   46loPI   C4A  730  12.485   3.964   8.599  0.0839 -0.2744  0.0591
   46loPI   C5A  731  12.390   3.668   8.301  0.1555 -0.3491  0.0609
   46loPI   C6A  732  12.037   3.377   8.248 -0.2251  0.3199  0.0469
   46loPI   C1B  733  12.773   3.845   9.828 -0.0250 -0.1903 -0.1737
   46loPI   C2B  734  12.767   3.793   9.321  0.0379  0.1139 -0.0562
   46loPI   C3B  735  12.869   3.750   8.864 -0.0030 -0.0108 -0.3005
   46loPI   C4B  736  12.851   3.546   8.555  0.1282 -0.0358  0.0655
   47loPI    C1  737  16.600  14.976  11.198 -0.1171 -0.1177  0.1647
   47loPI    C2  738  16.590  14.988  11.598 -0.0617  0.1032  0.1604
   47loPI    C3  739  16.816  15.249  11.395 -0.0829 -0.0134 -0.0153
   47loPI   PO4  740  16.394  15.007  11.085 -0.2583 -0.0751  0.0861
   47loPI   GL1  741  16.372  15.207  10.617  0.0801 -0.2179  0.1008
   47loPI   GL2  742  16.428  15.448  10.520  0.1671  0.3111 -0.0211
   47loPI   C1A  743  16.388  14.876  10.254 -0.1846  0.2124 -0.1346
   47loPI   C2A  744  16.260  14.794   9.876 -0.0079 -0.1621  0.2954
   47loPI   C3A  745  16.336  14.792   9.446 -0.0412 -0.1618 -0.1449
   47loPI   C4A  746  16.343  14.905   8.968  0.3597 -0.1530  0.1005
   47loPI   C5A  747  16.069  14.966   8.619 -0.1930  0.0132  0.0807
   47loPI   C6A  748  15.824  14.681   8.363  0.1068 -0.2105  0.0829
   47loPI   C1B  749  16.501  15.394  10.109  0.0768  0.0644 -0.0435
   47loPI   C2B  750  16.494  15.232   9.740  0.1392 -0.2774  0.0300
   47loPI   C3B  751  16.468  15.273   9.330  0.0000  0.2269  0.0289
   47loPI   C4B  752  16.558  15.448   8.950  0.0762  0.4184  0.2213
   48loPI    C1  753   7.869  17.552  10.899 -0.1180  0.1751  0.0057
   48loPI    C2  754   7.976  17.737  11.237  0.1330  0.1506 -0.0578
   48loPI    C3  755   7.597  17.621  11.183  0.0807  0.1985  0.1930
   48loPI   PO4  756   7.938  17.730  10.676  0.2533 -0.1122 -0.4284
   48loPI   GL1  757   8.128  17.751  10.287 -0.0525 -0.0069 -0.1772
   48loPI   GL2  758   8.297  17.507  10.310 -0.2734  0.2013  0.1713
   48loPI   C1A  759   8.171  18.055   9.946  0.1814  0.2390 -0.1067
   48loPI   C2A  760   8.345  18.132   9.589 -0.1625  0.1466 -0.0260
   48loPI   C3A  761   8.290  18.069   9.137  0.0450  0.1902 -0.0820
   48loPI   C4A  762   8.235  18.100   8.740 -0.1956 -0.0627 -0.0467
   48loPI   C5A  763   8.193  17.992   8.244 -0.0007  0.1406  0.1713
   48loPI   C6A  764   8.056  18.094   7.812 -0.3086 -0.0526 -0.0497
   48loPI   C1B  765   8.120  17.539   9.851  0.2358 -0.0295  0.0335
   48loPI   C2B  766   8.186  17.653   9.410  0.1365  0.2096 -0.3097
   48loPI   C3B  767   8.132  17.517   9.002 -0.1238  0.0031  0.0743
   48loPI   C4B  768   7.974  17.627   8.646  0.2040  0.1442  0.0384
   49loPI    C1  769   9.672   6.273  10.338  0.0800  0.0633 -0.1315
   49loPI    C2  770   9.680   6.673  10.352 -0.2271  0.0641  0.1389
   49loPI    C3  771   9.534   6.465  10.661  0.1627 -0.2696  0.1068
   49loPI   PO4  772   9.949   6.202  10.349  0.0251  0.0006  0.2103
   49loPI   GL1  773  10.242   6.147   9.994  0.0339  0.3136  0.0757
   49loPI   GL2  774  10.626   6.069   9.917  0.1868 -0.1065 -0.1335
   49loPI   C1A  775  10.122   6.166   9.612  0.0487 -0.1245 -0.0882
   49loPI   C2A  776  10.173   6.008   9.225  0.2195 -0.1715 -0.0425
   49loPI   C3A  777  10.177   5.997   8.794  0.2706  0.2560 -0.2158
   49loPI   C4A  778  10.194   5.861   8.371 -0.1160 -0.1172 -0.0021
   49loPI   C5A  779  10.507   5.919   8.103  0.1392 -0.3034 -0.1857
   49loPI   C6A  780  10.620   5.605   7.959 -0.2694 -0.0246  0.2785
   49loPI   C1B  781  10.596   6.032   9.509  0.1869 -0.1473 -0.0632
   49loPI   C2B  782  10.652   5.923   9.100  0.1836 -0.1951 -0.2183
   49loPI   C3B  783  10.671   6.024   8.630 -0.1583 -0.0295  0.0323
   49loPI   C4B  784  10.890   6.198   8.310 -0.0125 -0.2281  0.2247
   50loPI    C1  785  11.371   2.494  10.935 -0.1389  0.0447  0.1337
   50loPI    C2  786  11.287   2.221  11.214 -0.3685 -0.0583 -0.0331
   50loPI    C3  787  11.126   2.586  11.237 -0.0751  0.0615  0.1805
   50loPI   PO4  788  11.302   2.409  10.745 -0.1223 -0.5408  0.0122
   50loPI   GL1  789  11.200   2.504  10.431  0.1082  0.0335  0.0962
   50loPI   GL2  790  11.077   2.168  10.351 -0.0540  0.1491 -0.3436
   50loPI   C1A  791  11.292   2.568  10.018 -0.0999 -0.4150 -0.1288
   50loPI   C2A  792  11.465   2.468   9.638 -0.1515 -0.0419  0.1033
   50loPI   C3A  793  11.497   2.475   9.187 -0.0447 -0.3966 -0.2257
   50loPI   C4A  794  11.519   2.507   8.697 -0.1183  0.0170 -0.2376
   50loPI   C5A  795  11.767   2.546   8.267  0.2785 -0.1398  0.1993
   50loPI   C6A  796  11.691   2.728   7.899  0.2310 -0.0114 -0.1121
   50loPI   C1B  797  11.253   2.094   9.964  0.1093  0.0964 -0.2240
   50loPI   C2B  798  11.265   2.019   9.526  0.0398 -0.0010 -0.1416
   50loPI   C3B  799  11.236   1.974   9.066 -0.0985  0.1231  0.1809
   50loPI   C4B  800  11.324   1.776   8.581 -0.2944 -0.0726  0.0057
   51loPI    C1  801   2.598  17.674  10.800 -0.0369  0.1120  0.0670
   51loPI    C2  802   2.415  17.438  11.066  0.1383 -0.2172 -0.0980
   51loPI    C3  803   2.805  17.517  11.104 -0.0183  0.4637  0.2402
   51loPI   PO4  804   2.498  17.604  10.594 -0.0443 -0.1122 -0.2070
   51loPI   GL1  805   2.290  17.935  10.311  0.1224  0.2458 -0.2051
   51loPI   GL2  806   2.048  17.952  10.156  0.1045 -0.0104 -0.2283
   51loPI   C1A  807   2.472  18.147  10.019 -0.0036 -0.0610 -0.2128
   51loPI   C2A  808   2.502  18.227   9.541  0.2093  0.0360 -0.3520
   51loPI   C3A  809   2.662  18.113   9.143 -0.1729  0.1491  0.1883
   51loPI   C4A  810   2.567  18.183   8.727 -0.2658 -0.0306 -0.0564
   51loPI   C5A  811   2.471  18.275   8.355 -0.5839  0.1890  0.2174
   51loPI   C6A  812   2.379  18.431   7.925 -0.3167  0.0738  0.0409
   51loPI   C1B  813   2.010  17.931   9.755  0.1883  0.2282 -0.2516
   51loPI   C2B  814   2.014  18.058   9.376 -0.0289 -0.0108 -0.0748
   51loPI   C3B  815   2.108  17.980   8.940 -0.3195  0.0258 -0.0170
   51loPI   C4B  816   2.084  17.804   8.568  0.1762 -0.0933 -0.1089
   52loPI    C1  817   2.132   5.108  11.027  0.0945 -0.2203  0.0790
   52loPI    C2  818   2.049   4.741  11.162 -0.0189 -0.2871 -0.1678
   52loPI    C3  819   1.757   5.012  11.128  0.1300 -0.0434  0.3921
   52loPI   PO4  820   2.340   5.116  10.880 -0.0483 -0.2289 -0.4899
   52loPI   GL1  821   2.453   5.020  10.508  0.2211  0.0886  0.2190
   52loPI   GL2  822   2.134   5.177  10.370 -0.0986  0.0974  0.0456
   52loPI   C1A  823   2.672   5.285  10.163  0.2720 -0.0863  0.0085
   52loPI   C2A  824   2.623   5.161   9.757  0.1996  0.0236 -0.0495
   52loPI   C3A  825   2.724   5.096   9.326 -0.0162  0.0156 -0.0473
   52loPI   C4A  826   2.690   5.086   8.877 -0.1770 -0.0492  0.0429
   52loPI   C5A  827   2.635   5.074   8.419 -0.0999 -0.1387  0.0559
   52loPI   C6A  828   2.838   5.066   7.990 -0.0080  0.1312  0.1087
   52loPI   C1B  829   2.236   4.972   9.987 -0.3107 -0.1158  0.0460
   52loPI   C2B  830   2.190   4.987   9.533  0.1562 -0.1266 -0.0676
   52loPI   C3B  831   2.132   4.979   9.093  0.0633 -0.3500 -0.1852
   52loPI   C4B  832   2.177   4.947   8.640  0.1113  0.0955  0.0429
   53loPI    C1  833  16.515   3.674  10.897  0.1911  0.0476 -0.2411
   53loPI    C2  834  16.861   3.677  11.097  0.0807  0.1531 -0.0481
   53loPI    C3  835  16.539   3.856  11.253 -0.1501 -0.2357 -0.0661
   53loPI   PO4  836  16.662   3.624  10.614 -0.0545  0.3126  0.0934
   53loPI   GL1  837  16.442   3.503  10.232  0.1619 -0.0749 -0.2484
   53loPI   GL2  838  16.326   3.231  10.069  0.0688  0.4092  0.1998
   53loPI   C1A  839  16.627   3.643   9.822 -0.1873 -0.1383  0.1951
   53loPI   C2A  840  16.606   3.677   9.464  0.0316  0.1152 -0.1860
   53loPI   C3A  841  16.512   3.597   9.086  0.0424  0.1281 -0.1083
   53loPI   C4A  842  16.609   3.495   8.659 -0.0426  0.2654  0.2955
   53loPI   C5A  843  16.537   3.496   8.260 -0.1601  0.0707 -0.0460
   53loPI   C6A  844  16.200   3.676   7.886  0.1724 -0.2625 -0.2290
   53loPI   C1B  845  16.309   3.140   9.620 -0.1026 -0.2202  0.2432
   53loPI   C2B  846  16.409   3.117   9.217  0.2549  0.6980  0.3133
   53loPI   C3B  847  16.416   3.108   8.900 -0.1590  0.1485  0.0459
   53loPI   C4B  848  16.447   3.024   8.426 -0.1121 -0.1514 -0.0584
   54loPI    C1  849  10.996  16.107  11.019  0.0468  0.0568 -0.2698
   54loPI    C2  850  11.220  15.842  11.218 -0.1796 -0.0795 -0.1926
   54loPI    C3  851  11.141  16.199  11.380 -0.2944 -0.1585 -0.0722
   54loPI   PO4  852  10.840  15.949  10.932  0.2412  0.0616  0.3466
   54loPI   GL1  853  10.649  15.945  10.584 -0.1055 -0.0261 -0.4039
   54loPI   GL2  854  10.421  15.710  10.616  0.1339 -0.0653  0.0790
   54loPI   C1A  855  10.967  15.939  10.226  0.0764  0.2336 -0.1242
   54loPI   C2A  856  10.960  15.909   9.889  0.4124 -0.1528  0.0567
   54loPI   C3A  857  10.981  15.899   9.526 -0.1867 -0.2955 -0.2865
   54loPI   C4A  858  10.957  15.846   9.040 -0.1255  0.1185 -0.1491
   54loPI   C5A  859  10.803  15.985   8.621 -0.0919 -0.1627  0.1889
   54loPI   C6A  860  10.757  15.903   8.237 -0.0479  0.2383 -0.2381
   54loPI   C1B  861  10.425  15.775  10.126  0.1303  0.4667  0.3036
   54loPI   C2B  862  10.426  15.713   9.665  0.3809 -0.0826  0.0480
   54loPI   C3B  863  10.450  15.815   9.250 -0.1012 -0.1325  0.0193
   54loPI   C4B  864  10.326  15.890   8.868  0.0717  0.0652  0.1196
   55loPI    C1  865  13.601   2.616  11.038  0.0218  0.0740 -0.1275
   55loPI    C2  866  13.662   2.611  11.434 -0.0161 -0.2328 -0.1235
   55loPI    C3  867  13.674   2.957  11.234  0.0583 -0.0828  0.1369
   55loPI   PO4  868  13.347   2.536  10.974 -0.2987  0.1654  0.1332
   55loPI   GL1  869  13.063   2.665  10.670 -0.3364  0.2916 -0.3382
   55loPI   GL2  870  12.873   2.372  10.759  0.1485 -0.1579  0.1539
   55loPI   C1A  871  13.204   2.524  10.278 -0.3914 -0.3435  0.0014
   55loPI   C2A  872  13.374   2.476   9.863  0.1673 -0.0325  0.2133
   55loPI   C3A  873  13.353   2.395   9.377 -0.0286 -0.0275 -0.1139
   55loPI   C4A  874  13.432   2.481   8.962 -0.1201 -0.1602 -0.1997
   55loPI   C5A  875  13.481   2.406   8.470 -0.3715 -0.2022  0.1374
   55loPI   C6A  876  13.822   2.354   8.178  0.0926 -0.0559  0.3664
   55loPI   C1B  877  12.676   2.059  10.363 -0.0636 -0.1978 -0.0452
   55loPI   C2B  878  12.616   1.922   9.905 -0.1257 -0.1367 -0.2447
   55loPI   C3B  879  12.599   1.823   9.430  0.1955 -0.0693 -0.1344
   55loPI   C4B  880  12.723   1.810   8.986 -0.2427 -0.0856 -0.1488
   56loPI    C1  881   9.308  15.541  10.802  0.0558  0.0745 -0.1333
   56loPI    C2  882   9.537  15.502  11.128  0.1493  0.0454 -0.2020
   56loPI    C3  883   9.160  15.631  11.162  0.2101  0.1993 -0.0995
   56loPI   PO4  884   9.459  15.574  10.583  0.0747  0.1064 -0.0640
   56loPI   GL1  885   9.437  15.535  10.178 -0.3129  0.3536  0.0128
   56loPI   GL2  886   9.215  15.716  10.081 -0.2421 -0.0936 -0.0760
   56loPI   C1A  887   9.487  15.495   9.723  0.3644 -0.0673  0.2247
   56loPI   C2A  888   9.395  15.600   9.394  0.1060 -0.0765  0.1322
   56loPI   C3A  889   9.366  15.611   8.919  0.2446 -0.0453 -0.0185
   56loPI   C4A  890   9.308  15.587   8.411  0.1965  0.0908  0.1668
   56loPI   C5A  891   9.188  15.778   8.028  0.1386 -0.1842 -0.1514
   56loPI   C6A  892   8.791  15.988   7.812 -0.4305  0.0871  0.0575
   56loPI   C1B  893   9.135  15.889   9.684 -0.2786 -0.2496 -0.2836
   56loPI   C2B  894   9.062  15.943   9.286  0.3065 -0.1125  0.0563
   56loPI   C3B  895   8.985  15.946   8.908  0.3299  0.0113 -0.0484
   56loPI   C4B  896   8.953  16.007   8.393  0.0313  0.3168  0.0209
   57loPI    C1  897  17.277   9.838  10.274  0.1519  0.1920 -0.1413
   57loPI    C2  898  17.544   9.632  10.489 -0.0046  0.0837 -0.0485
   57loPI    C3  899  17.257   9.840  10.673 -0.3350 -0.2686 -0.1514
   57loPI   PO4  900  17.184   9.613  10.132  0.4362  0.1870 -0.2437
   57loPI   GL1  901  17.038   9.496   9.762  0.1393  0.2279 -0.0404
   57loPI   GL2  902  17.104   9.921   9.737  0.1220  0.2617 -0.0856
   57loPI   C1A  903  16.997   9.327   9.359 -0.0581  0.1329  0.1486
   57loPI   C2A  904  16.974   9.465   8.918 -0.0463 -0.0202 -0.0228
   57loPI   C3A  905  16.975   9.276   8.556 -0.1830 -0.0491 -0.2753
   57loPI   C4A  906  16.987   9.265   8.196 -0.2662 -0.0189  0.1718
   57loPI   C5A  907  17.177   9.139   7.819 -0.0296  0.0770 -0.0081
   57loPI   C6A  908  17.624   8.972   7.642  0.1208 -0.0482 -0.0111
   57loPI   C1B  909  17.111   9.903   9.247 -0.0476 -0.0420  0.2421
   57loPI   C2B  910  17.147   9.942   8.809  0.2338 -0.4152  0.0552
   57loPI   C3B  911  17.040   9.750   8.442  0.0820  0.1851  0.0694
   57loPI   C4B  912  17.242   9.717   8.042 -0.0336 -0.2483  0.2256
   58loPI    C1  913   0.366  17.182  11.032 -0.0394  0.0224 -0.1161
   58loPI    C2  914   0.693  16.976  11.132 -0.1120 -0.0861 -0.1001
   58loPI    C3  915   0.452  17.119  11.417 -0.1315 -0.0922 -0.1136
   58loPI   PO4  916   0.275  17.110  10.891  0.0483  0.1598  0.3217
   58loPI   GL1  917   0.426  17.164  10.441 -0.0152 -0.0187  0.0249
   58loPI   GL2  918   0.686  16.994  10.585 -0.1056  0.1034 -0.0928
   58loPI   C1A  919   0.317  17.222  10.011 -0.0115 -0.0920 -0.2649
   58loPI   C2A  920   0.390  17.189   9.557 -0.1002 -0.5200 -0.1119
   58loPI   C3A  921   0.356  17.154   9.126 -0.1358 -0.2940 -0.1427
   58loPI   C4A  922   0.516  17.033   8.634  0.0000  0.0578  0.1904
   58loPI   C5A  923   0.547  16.572   8.500  0.1734  0.2243 -0.2344
   58loPI   C6A  924   0.468  16.417   8.046  0.0223 -0.2638 -0.2075
   58loPI   C1B  925   0.696  16.805  10.197  0.0983  0.0646 -0.1436
   58loPI   C2B  926   0.737  16.880   9.793  0.2643 -0.1994 -0.0159
   58loPI   C3B  927   0.730  16.772   9.392 -0.0345  0.0476  0.1409
   58loPI   C4B  928   0.830  16.788   8.899 -0.0114 -0.0676  0.2810
   59loPI    C1  929  11.981  17.503  11.063 -0.0007 -0.2706 -0.2421
   59loPI    C2  930  11.581  17.507  11.051 -0.0017  0.1656 -0.2207
   59loPI    C3  931  11.772  17.608  11.387  0.1289 -0.0724 -0.2214
   59loPI   PO4  932  12.097  17.682  10.920 -0.0574 -0.2467 -0.4272
   59loPI   GL1  933  12.376  17.844  10.551  0.1494 -0.1169  0.1709
   59loPI   GL2  934  12.578  18.158  10.565  0.0381  0.2205 -0.0605
   59loPI   C1A  935  12.305  17.669  10.147 -0.0873  0.2009 -0.1219
   59loPI   C2A  936  12.303  17.577   9.716  0.0722 -0.1084 -0.0637
   59loPI   C3A  937  12.421  17.526   9.215 -0.1576 -0.0534  0.1885
   59loPI   C4A  938  12.410  17.528   8.778  0.0306  0.1698 -0.1841
   59loPI   C5A  939  12.376  17.192   8.550  0.1370 -0.0295 -0.1504
   59loPI   C6A  940  12.308  16.828   8.540 -0.2413 -0.0514  0.0992
   59loPI   C1B  941  12.608  18.112  10.041  0.0140 -0.2024 -0.1754
   59loPI   C2B  942  12.535  18.063   9.548 -0.1306  0.3595  0.0106
   59loPI   C3B  943  12.563  17.979   9.134 -0.2452 -0.2667  0.2007
   59loPI   C4B  944  12.647  18.197   8.729 -0.1402 -0.3976  0.0699
   60loPI    C1  945  11.076  14.385  11.104 -0.2035 -0.1164 -0.0141
   60loPI    C2  946  11.378  14.465  11.353 -0.0141 -0.2081 -0.2101
   60loPI    C3  947  11.008  14.588  11.441  0.1526  0.2923 -0.1792
   60loPI   PO4  948  11.156  14.442  10.834 -0.2965  0.0482 -0.0799
   60loPI   GL1  949  11.322  14.376  10.458 -0.1329 -0.1378  0.0217
   60loPI   GL2  950  11.541  14.113  10.547 -0.2551 -0.1805  0.1930
   60loPI   C1A  951  11.456  14.577  10.095  0.0528 -0.0296 -0.1745
   60loPI   C2A  952  11.546  14.497   9.771  0.0861  0.1589  0.0235
   60loPI   C3A  953  11.492  14.564   9.306  0.1933  0.2763 -0.0480
   60loPI   C4A  954  11.485  14.660   8.840  0.0590  0.1907  0.2476
   60loPI   C5A  955  11.719  14.836   8.440 -0.4624  0.0309  0.4571
   60loPI   C6A  956  11.931  15.118   8.191 -0.2739  0.2703 -0.0374
   60loPI   C1B  957  11.627  14.078  10.196  0.1827 -0.0357 -0.1863
   60loPI   C2B  958  11.890  14.085   9.812  0.1337  0.0110  0.3995
   60loPI   C3B  959  11.835  14.177   9.438 -0.4299  0.1204 -0.2632
   60loPI   C4B  960  11.773  14.272   9.075  0.1669  0.1008  0.0965
   61loPI    C1  961  12.850  15.249  11.555 -0.3381 -0.0354  0.1745
   61loPI    C2  962  13.004  14.881  11.586 -0.1051  0.0478  0.0263
   61loPI    C3  963  13.136  15.174  11.825 -0.1565  0.0790  0.0166
   61loPI   PO4  964  12.903  15.273  11.292  0.2077  0.0159  0.2081
   61loPI   GL1  965  12.841  15.363  10.750 -0.2049 -0.2917  0.0054
   61loPI   GL2  966  12.731  15.667  10.626  0.0220  0.0071  0.3210
   61loPI   C1A  967  13.049  15.326  10.322 -0.0154  0.1667  0.1398
   61loPI   C2A  968  13.255  15.343   9.918 -0.1068 -0.1691  0.0021
   61loPI   C3A  969  13.301  15.420   9.458 -0.1940  0.0792 -0.1778
   61loPI   C4A  970  13.306  15.468   9.015  0.0705  0.1518 -0.2502
   61loPI   C5A  971  13.035  15.577   8.609  0.0481 -0.0395  0.0285
   61loPI   C6A  972  12.643  15.766   8.557  0.2135 -0.0458 -0.1082
   61loPI   C1B  973  12.711  15.710  10.156 -0.4155  0.0226 -0.1269
   61loPI   C2B  974  12.874  15.888   9.775  0.3596  0.0012  0.0186
   61loPI   C3B  975  12.913  15.740   9.423 -0.3200 -0.1023 -0.0518
   61loPI   C4B  976  12.795  15.806   9.032  0.1951  0.3015  0.0963
   62loPI    C1  977   4.046  15.444  10.946 -0.0122  0.2205  0.2154
   62loPI    C2  978   4.396  15.523  10.769 -0.0666 -0.1634 -0.0765
   62loPI    C3  979   4.384  15.293  11.096 -0.0244  0.0599  0.0844
   62loPI   PO4  980   3.887  15.360  10.781 -0.2280  0.4363  0.2154
   62loPI   GL1  981   3.977  15.412  10.338  0.1923  0.0767  0.1565
   62loPI   GL2  982   4.115  15.683  10.330 -0.3053 -0.0501  0.4290
   62loPI   C1A  983   3.913  15.204   9.975  0.1887 -0.0652  0.0739
   62loPI   C2A  984   3.977  15.200   9.543  0.1881 -0.2278 -0.0144
   62loPI   C3A  985   4.025  15.210   9.065 -0.4009  0.0939 -0.1293
   62loPI   C4A  986   4.001  15.268   8.652  0.3388  0.0842 -0.1453
   62loPI   C5A  987   4.059  15.205   8.212  0.3099 -0.1111  0.0674
   62loPI   C6A  988   4.291  15.587   8.050  0.2734 -0.1419  0.0922
   62loPI   C1B  989   4.132  15.742   9.894 -0.2023 -0.2280 -0.0274
   62loPI   C2B  990   4.184  15.664   9.489  0.0587 -0.3665  0.1349
   62loPI   C3B  991   4.163  15.759   9.020 -0.0835  0.2357 -0.1918
   62loPI   C4B  992   4.157  15.744   8.602 -0.3231 -0.3893 -0.0717
   63loPI    C1  993   9.570  14.626  10.912 -0.3214 -0.1582 -0.0071
   63loPI    C2  994   9.341  14.359  11.101 -0.0272 -0.2638  0.2075
   63loPI    C3  995   9.644  14.535  11.294  0.1049 -0.1634 -0.0856
   63loPI   PO4  996   9.422  14.597  10.672  0.2264  0.0475  0.4605
   63loPI   GL1  997   9.614  14.975  10.362 -0.2612  0.1682 -0.0493
   63loPI   GL2  998   9.549  14.659  10.187  0.0699  0.1567  0.4463
   63loPI   C1A  999   9.811  15.098  10.030 -0.1414  0.1560  0.1267
   63loPI   C2A 1000   9.799  15.132   9.606  0.2585  0.0544 -0.0298
   63loPI   C3A 1001   9.701  15.183   9.260  0.1021  0.1015  0.0476
   63loPI   C4A 1002   9.762  15.255   8.896 -0.1652  0.0338 -0.3319
   63loPI   C5A 1003   9.727  15.065   8.457  0.1451 -0.1248  0.0524
   63loPI   C6A 1004   9.836  14.856   8.166 -0.0618  0.0149  0.1221
   63loPI   C1B 1005   9.699  14.683   9.739 -0.1572  0.0604 -0.0231
   63loPI   C2B 1006   9.624  14.711   9.308 -0.0903 -0.2882 -0.2809
   63loPI   C3B 1007   9.667  14.755   8.922  0.0292 -0.1901  0.4170
   63loPI   C4B 1008   9.423  14.650   8.522 -0.3890 -0.1199 -0.1876
   64loPI    C1 1009   2.482   9.783  10.276 -0.0301 -0.0207  0.0748
   64loPI    C2 1010   2.276   9.461  10.395 -0.3008  0.1495  0.0731
   64loPI    C3 1011   2.327   9.770  10.644  0.2545 -0.0309  0.1971
   64loPI   PO4 1012   2.533   9.667   9.976  0.1708  0.0727  0.1837
   64loPI   GL1 1013   2.199   9.767   9.607 -0.1126  0.0490  0.2941
   64loPI   GL2 1014   2.048   9.938   9.578  0.5948 -0.2544 -0.0824
   64loPI   C1A 1015   2.264   9.673   9.199  0.0055 -0.3497  0.3748
   64loPI   C2A 1016   2.234   9.655   8.806  0.0993 -0.0567 -0.1836
   64loPI   C3A 1017   2.301   9.692   8.371  0.1057 -0.1422 -0.1546
   64loPI   C4A 1018   2.211   9.701   7.901 -0.0185  0.0977 -0.2560
   64loPI   C5A 1019   2.048   9.514   7.622 -0.1399  0.3168 -0.0733
   64loPI   C6A 1020   1.906   9.152   7.393 -0.0768 -0.4164 -0.0955
   64loPI   C1B 1021   1.872   9.940   9.085 -0.2291  0.2968  0.0980
   64loPI   C2B 1022   1.858  10.130   8.650 -0.3154  0.0394  0.2821
   64loPI   C3B 1023   1.948  10.206   8.246  0.3192  0.0124 -0.2296
   64loPI   C4B 1024   1.927  10.076   7.758  0.0254  0.0086  0.0942
   65loPI    C1 1025   3.229   7.692  10.627  0.2631  0.0825  0.1816
   65loPI    C2 1026   3.167   7.814  10.251 -0.0287 -0.3079  0.0957
   65loPI    C3 1027   3.102   8.065  10.556  0.2478  0.0241 -0.1107
   65loPI   PO4 1028   3.145   7.406  10.592 -0.0973 -0.1904  0.0864
   65loPI   GL1 1029   3.183   7.271  10.169 -0.4734  0.0850  0.1903
   65loPI   GL2 1030   3.316   6.979  10.122 -0.1912  0.1184 -0.0158
   65loPI   C1A 1031   3.116   7.591   9.815 -0.0463 -0.2182 -0.2718
   65loPI   C2A 1032   2.975   7.491   9.451 -0.0155 -0.2105  0.2056
   65loPI   C3A 1033   2.937   7.462   9.079  0.1329  0.1493 -0.2239
   65loPI   C4A 1034   2.982   7.381   8.589  0.0073  0.0422 -0.2223
   65loPI   C5A 1035   3.028   7.418   8.244  0.0781  0.0822 -0.0898
   65loPI   C6A 1036   3.067   7.676   7.832  0.2684  0.0316 -0.0803
   65loPI   C1B 1037   3.203   6.725   9.789 -0.1172 -0.1961  0.1425
   65loPI   C2B 1038   3.109   6.600   9.406  0.0007  0.0891  0.0679
   65loPI   C3B 1039   3.081   6.567   8.968  0.0599  0.0225  0.0016
   65loPI   C4B 1040   3.239   6.435   8.512  0.2224 -0.0667  0.0670
   66loPI    C1 1041   1.146   3.212  10.763 -0.0432 -0.0360 -0.4572
   66loPI    C2 1042   1.454   3.303  11.002 -0.1693  0.1814 -0.3749
   66loPI    C3 1043   1.343   2.921  10.955 -0.0315  0.1219 -0.2263
   66loPI   PO4 1044   1.158   3.340  10.502  0.1729 -0.0601  0.6474
   66loPI   GL1 1045   1.196   3.270  10.151  0.1337  0.1348 -0.2161
   66loPI   GL2 1046   1.017   2.879  10.194  0.0074 -0.0267 -0.0882
   66loPI   C1A 1047   1.277   3.445   9.738  0.1404  0.0027 -0.2594
   66loPI   C2A 1048   1.268   3.284   9.322 -0.3182  0.1064 -0.1688
   66loPI   C3A 1049   1.277   3.438   8.973  0.4694  0.4888  0.0126
   66loPI   C4A 1050   1.173   3.336   8.514  0.2128  0.1163  0.1159
   66loPI   C5A 1051   0.891   3.278   8.184 -0.4746  0.0794 -0.4475
   66loPI   C6A 1052   0.986   3.281   7.775  0.0799 -0.2153 -0.0063
   66loPI   C1B 1053   1.054   2.797   9.801 -0.3215  0.1805  0.3531
   66loPI   C2B 1054   1.144   2.847   9.293 -0.1870 -0.0140 -0.1998
   66loPI   C3B 1055   1.114   2.823   8.889 -0.0272  0.3330 -0.1439
   66loPI   C4B 1056   1.050   2.742   8.422 -0.2027  0.1344 -0.0631
   67loPI    C1 1057   9.403  12.049  10.166  0.0662  0.0451  0.0186
   67loPI    C2 1058   9.440  11.857  10.515  0.4248  0.0943  0.0117
   67loPI    C3 1059   9.284  12.225  10.505 -0.0956 -0.1172  0.0472
   67loPI   PO4 1060   9.630  12.031  10.051  0.1908 -0.1900 -0.0949
   67loPI   GL1 1061   9.642  12.268   9.734 -0.1385  0.0866  0.0658
   67loPI   GL2 1062  10.016  12.224   9.733  0.2389  0.0347  0.1921
   67loPI   C1A 1063   9.506  12.310   9.321  0.0205 -0.1257  0.2886
   67loPI   C2A 1064   9.501  12.309   8.830 -0.0076  0.0369 -0.1610
   67loPI   C3A 1065   9.475  12.299   8.393  0.1752  0.2027  0.1691
   67loPI   C4A 1066   9.785  12.174   8.042 -0.1329 -0.2343 -0.3901
   67loPI   C5A 1067  10.141  12.151   8.046  0.1935 -0.3291 -0.0483
   67loPI   C6A 1068  10.307  12.606   8.020 -0.0073 -0.2119  0.3222
   67loPI   C1B 1069   9.978  12.523   9.442 -0.1647 -0.2782 -0.1861
   67loPI   C2B 1070   9.717  12.652   9.122  0.0138 -0.3269  0.4481
   67loPI   C3B 1071   9.598  12.829   8.690  0.2327 -0.3294 -0.0956
   67loPI   C4B 1072   9.389  12.891   8.317 -0.1390 -0.1123  0.0758
   68loPI    C1 1073   7.178   1.351  11.007  0.0162  0.0241 -0.1825
   68loPI    C2 1074   7.342   1.180  11.328 -0.2948 -0.0448 -0.0570
   68loPI    C3 1075   7.122   1.511  11.369  0.0245  0.1986 -0.2569
   68loPI   PO4 1076   7.144   1.154  10.795 -0.3168 -0.0266 -0.3077
   68loPI   GL1 1077   7.037   1.012  10.445 -0.1517 -0.2258  0.0534
   68loPI   GL2 1078   6.672   0.933  10.370  0.3841 -0.0049  0.2746
   68loPI   C1A 1079   7.038   0.903   9.997  0.0218  0.1923 -0.1376
   68loPI   C2A 1080   7.222   0.936   9.569  0.0716 -0.0218  0.3638
   68loPI   C3A 1081   7.259   1.049   9.168  0.0369  0.1352  0.1815
   68loPI   C4A 1082   7.127   1.116   8.820  0.1056 -0.1225  0.0436
   68loPI   C5A 1083   7.266   1.403   8.453  0.2510  0.1272 -0.2502
   68loPI   C6A 1084   7.461   1.589   8.103  0.2976 -0.1294 -0.3667
   68loPI   C1B 1085   6.553   0.912   9.969 -0.0870 -0.1341 -0.1962
   68loPI   C2B 1086   6.705   0.761   9.616  0.0868  0.0291  0.3197
   68loPI   C3B 1087   6.690   0.869   9.127 -0.3187 -0.1398 -0.0919
   68loPI   C4B 1088   6.628   0.877   8.590  0.0913  0.3951  0.5240
   69loPI    C1 1089   8.597  15.924  10.728  0.2062 -0.2456  0.3264
   69loPI    C2 1090   8.276  15.858  10.958 -0.0200 -0.1469  0.0446
   69loPI    C3 1091   8.536  16.146  11.055 -0.1220 -0.0954  0.1676
   69loPI   PO4 1092   8.559  15.922  10.511 -0.2960  0.0949 -0.2490
   69loPI   GL1 1093   8.561  15.635  10.223 -0.0874 -0.1336  0.0377
   69loPI   GL2 1094   8.481  15.368  10.168  0.0662 -0.0388  0.2958
   69loPI   C1A 1095   8.467  15.748   9.743 -0.4186  0.1851  0.0053
   69loPI   C2A 1096   8.550  15.767   9.280 -0.0485 -0.0013  0.2028
   69loPI   C3A 1097   8.391  15.822   8.852 -0.1849  0.0834  0.1207
   69loPI   C4A 1098   8.333  15.975   8.457 -0.0469 -0.1130  0.0793
   69loPI   C5A 1099   8.568  16.366   8.222 -0.0657 -0.1417 -0.1867
   69loPI   C6A 1100   8.917  16.660   8.079  0.1668 -0.0859  0.3406
   69loPI   C1B 1101   8.341  15.236   9.826 -0.0347 -0.1864 -0.0409
   69loPI   C2B 1102   8.366  15.271   9.425  0.1167 -0.0057 -0.2290
   69loPI   C3B 1103   8.326  15.292   8.947 -0.0947 -0.2607 -0.1224
   69loPI   C4B 1104   8.219  15.380   8.558 -0.0079  0.1595  0.0358
   70loPI    C1 1105  12.761   4.828  10.942  0.1623  0.1999  0.0737
   70loPI    C2 1106  12.912   4.523  11.152  0.2853  0.1337 -0.1078
   70loPI    C3 1107  12.666   4.785  11.328  0.1241 -0.1080  0.0324
   70loPI   PO4 1108  12.580   4.760  10.717  0.3055 -0.0866 -0.0084
   70loPI   GL1 1109  12.658   4.610  10.247 -0.2446  0.0315  0.0156
   70loPI   GL2 1110  12.375   4.913  10.213  0.1625 -0.3008  0.0033
   70loPI   C1A 1111  12.540   4.694   9.791 -0.1601  0.2965  0.1609
   70loPI   C2A 1112  12.661   4.680   9.362 -0.0067 -0.3271  0.3814
   70loPI   C3A 1113  12.667   4.605   8.934 -0.0607  0.3072  0.2714
   70loPI   C4A 1114  12.624   4.524   8.546  0.3111 -0.3873  0.3415
   70loPI   C5A 1115  12.683   4.521   8.071 -0.0163 -0.2795  0.0824
   70loPI   C6A 1116  12.819   4.518   7.586 -0.0683 -0.1517  0.1567
   70loPI   C1B 1117  12.101   4.699  10.033 -0.1647 -0.1115  0.1493
   70loPI   C2B 1118  12.026   4.552   9.589 -0.0846  0.2121 -0.1073
   70loPI   C3B 1119  12.208   4.528   9.141  0.2489  0.0081 -0.0107
   70loPI   C4B 1120  12.140   4.453   8.723  0.2535 -0.0095  0.2022
   71loPI    C1 1121  12.879   2.595  11.186  0.3630  0.2215 -0.0845
   71loPI    C2 1122  12.873   2.683  11.576 -0.3287 -0.0266 -0.0237
   71loPI    C3 1123  13.126   2.406  11.437 -0.1746 -0.0362  0.2686
   71loPI   PO4 1124  12.593   2.629  11.126 -0.0239 -0.0436 -0.1534
   71loPI   GL1 1125  12.511   2.783  10.753 -0.1500 -0.0574  0.0190
   71loPI   GL2 1126  12.384   3.001  10.594 -0.2315  0.4621  0.2277
   71loPI   C1A 1127  12.663   2.606  10.361 -0.2058  0.2072 -0.0687
   71loPI   C2A 1128  12.800   2.407   9.971 -0.2747 -0.2721 -0.0893
   71loPI   C3A 1129  12.760   2.389   9.496  0.2120  0.0818 -0.1101
   71loPI   C4A 1130  12.886   2.329   9.038  0.0827  0.0936 -0.1754
   71loPI   C5A 1131  12.982   2.368   8.624  0.1898 -0.1379 -0.4802
   71loPI   C6A 1132  13.139   2.135   8.207  0.2135  0.0069 -0.1701
   71loPI   C1B 1133  12.360   2.904  10.136  0.1538 -0.0638 -0.0091
   71loPI   C2B 1134  12.441   2.741   9.779 -0.0605 -0.1070 -0.1263
   71loPI   C3B 1135  12.477   2.750   9.393  0.0982  0.0688  0.0504
   71loPI   C4B 1136  12.493   2.623   8.934 -0.1070  0.0416  0.0778
   72loPI    C1 1137   8.174  16.407  10.823 -0.1909  0.0313  0.2400
   72loPI    C2 1138   7.925  16.704  10.723 -0.0943  0.0291 -0.0168
   72loPI    C3 1139   8.101  16.702  11.083 -0.3827  0.0846  0.1277
   72loPI   PO4 1140   8.311  16.354  10.633  0.0382 -0.2348 -0.0555
   72loPI   GL1 1141   8.386  16.500  10.254  0.2119 -0.0398  0.0716
   72loPI   GL2 1142   8.278  16.170  10.198  0.2529  0.0138 -0.0051
   72loPI   C1A 1143   8.379  16.624   9.864 -0.1698 -0.1855 -0.3570
   72loPI   C2A 1144   8.276  16.658   9.477 -0.4239  0.1492 -0.0760
   72loPI   C3A 1145   8.292  16.612   9.055 -0.0469 -0.1349 -0.1212
   72loPI   C4A 1146   8.237  16.577   8.628  0.2078 -0.5501 -0.2062
   72loPI   C5A 1147   8.021  16.792   8.292 -0.2933 -0.2465  0.0340
   72loPI   C6A 1148   7.891  17.122   7.935  0.0880 -0.2195  0.0407
   72loPI   C1B 1149   8.138  16.113   9.709 -0.0695  0.3829 -0.1429
   72loPI   C2B 1150   8.091  16.138   9.180 -0.0808  0.1794 -0.1486
   72loPI   C3B 1151   7.987  16.150   8.770  0.0953  0.3367  0.1054
   72loPI   C4B 1152   7.949  16.228   8.267  0.2251 -0.0983 -0.0782
   73loPI    C1 1153  14.217   6.417  10.569  0.0065 -0.0669  0.2454
   73loPI    C2 1154  14.102   6.795  10.504  0.0665 -0.0960 -0.0439
   73loPI    C3 1155  13.863   6.545  10.704  0.0475  0.1069  0.1919
   73loPI   PO4 1156  14.337   6.365  10.314 -0.0292 -0.1557 -0.2511
   73loPI   GL1 1157  14.310   6.161   9.976  0.3097  0.2858  0.0073
   73loPI   GL2 1158  13.961   6.254   9.733 -0.1118 -0.1381  0.0558
   73loPI   C1A 1159  14.409   6.081   9.615  0.0069 -0.2097 -0.0284
   73loPI   C2A 1160  14.376   6.039   9.146  0.0682 -0.1752 -0.0551
   73loPI   C3A 1161  14.419   5.873   8.646 -0.0127 -0.3899 -0.1065
   73loPI   C4A 1162  14.513   5.780   8.241 -0.1192 -0.1320  0.0615
   73loPI   C5A 1163  14.568   5.712   7.784 -0.0840  0.0117 -0.0678
   73loPI   C6A 1164  14.593   5.500   7.341  0.0917  0.0975  0.0309
   73loPI   C1B 1165  14.051   6.439   9.335 -0.2424  0.3636  0.2497
   73loPI   C2B 1166  14.038   6.332   8.828 -0.1952  0.4200  0.0796
   73loPI   C3B 1167  14.200   6.255   8.428 -0.2579  0.0656  0.1226
   73loPI   C4B 1168  14.246   6.105   7.961 -0.1485 -0.1163  0.2520
   74loPI    C1 1169   1.367   2.490  11.222 -0.1522 -0.2208 -0.1526
   74loPI    C2 1170   1.549   2.175  11.387  0.1425  0.0369  0.0262
   74loPI    C3 1171   1.457   2.493  11.612 -0.0819  0.1120 -0.1678
   74loPI   PO4 1172   1.452   2.438  10.946 -0.1166 -0.0971 -0.1967
   74loPI   GL1 1173   1.332   2.461  10.555 -0.3981  0.0254  0.2583
   74loPI   GL2 1174   1.379   2.839  10.460 -0.1205 -0.0083 -0.0417
   74loPI   C1A 1175   1.254   2.070  10.273  0.1630  0.2258  0.3813
   74loPI   C2A 1176   1.253   1.895   9.925  0.1171  0.0657  0.2632
   74loPI   C3A 1177   1.270   1.945   9.417  0.0433  0.0023 -0.0905
   74loPI   C4A 1178   1.310   1.902   9.042  0.1890  0.5149  0.1662
   74loPI   C5A 1179   1.323   1.944   8.596  0.0059  0.0291 -0.0423
   74loPI   C6A 1180   1.667   2.037   8.231  0.2215  0.2559 -0.1327
   74loPI   C1B 1181   1.544   2.958   9.951 -0.1068 -0.0332  0.2325
   74loPI   C2B 1182   1.576   2.908   9.580  0.1735 -0.1107  0.1447
   74loPI   C3B 1183   1.581   2.987   9.041 -0.0573  0.5330  0.0226
   74loPI   C4B 1184   1.522   2.969   8.548 -0.1925  0.0275  0.0557
   75loPI    C1 1185   5.739  16.692  11.026  0.2054 -0.1770  0.1580
   75loPI    C2 1186   5.562  16.642  11.382 -0.0446  0.0186  0.0644
   75loPI    C3 1187   5.907  16.843  11.356  0.0373 -0.1013  0.2103
   75loPI   PO4 1188   5.511  16.817  10.889  0.1233 -0.2245 -0.0248
   75loPI   GL1 1189   5.507  16.897  10.426 -0.0507  0.0559 -0.1630
   75loPI   GL2 1190   5.176  16.711  10.352  0.3609  0.1779  0.1056
   75loPI   C1A 1191   5.478  17.002  10.072 -0.3044  0.0992  0.2421
   75loPI   C2A 1192   5.533  16.860   9.740 -0.1522  0.0125 -0.0126
   75loPI   C3A 1193   5.547  16.888   9.318  0.4105  0.1662 -0.0434
   75loPI   C4A 1194   5.483  17.070   8.911 -0.0306 -0.0651 -0.1194
   75loPI   C5A 1195   5.561  16.809   8.497 -0.1679  0.2624  0.0775
   75loPI   C6A 1196   5.307  16.497   8.435 -0.0227 -0.2630 -0.1208
   75loPI   C1B 1197   5.048  16.741   9.942 -0.0812 -0.0993  0.0090
   75loPI   C2B 1198   4.951  16.831   9.514 -0.0465 -0.1474 -0.1615
   75loPI   C3B 1199   5.051  16.798   9.146 -0.0989  0.4390  0.0385
   75loPI   C4B 1200   5.079  16.825   8.741 -0.0026 -0.0564 -0.0652
   76loPI    C1 1201   2.300  11.383  10.422 -0.1532  0.0090  0.0740
   76loPI    C2 1202   2.656  11.419  10.602 -0.0901 -0.0233 -0.0431
   76loPI    C3 1203   2.326  11.360  10.821 -0.0517  0.2054  0.0803
   76loPI   PO4 1204   2.365  11.161  10.223  0.2249 -0.0652 -0.1604
   76loPI   GL1 1205   2.459  10.912   9.804 -0.2530 -0.0187  0.3652
   76loPI   GL2 1206   2.664  11.132   9.853 -0.0315  0.1818  0.0633
   76loPI   C1A 1207   2.303  11.006   9.367 -0.1154 -0.2648 -0.4031
   76loPI   C2A 1208   2.174  11.120   8.894  0.3336 -0.0933  0.0275
   76loPI   C3A 1209   2.102  11.087   8.469 -0.1350 -0.0227  0.1830
   76loPI   C4A 1210   2.066  11.156   8.062  0.0913  0.1727  0.0258
   76loPI   C5A 1211   2.287  11.055   7.668  0.3175  0.0642  0.1948
   76loPI   C6A 1212   2.221  11.003   7.232  0.0059  0.2498 -0.0798
   76loPI   C1B 1213   2.738  11.161   9.446  0.1343 -0.1093  0.4925
   76loPI   C2B 1214   2.654  11.246   9.004 -0.0322 -0.3385  0.1280
   76loPI   C3B 1215   2.616  11.146   8.591  0.0162 -0.1672  0.0420
   76loPI   C4B 1216   2.665  11.228   8.184  0.0424 -0.1454 -0.0806
   77loPI    C1 1217   7.791  11.934  10.737  0.1421 -0.1864  0.0591
   77loPI    C2 1218   7.431  11.818  10.866  0.1154  0.0692  0.2201
   77loPI    C3 1219   7.734  11.852  11.124  0.1461  0.2640  0.1599
   77loPI   PO4 1220   7.776  11.997  10.531 -0.4270 -0.1607 -0.0032
   77loPI   GL1 1221   7.619  12.125  10.150 -0.0602  0.0915  0.1552
   77loPI   GL2 1222   7.328  12.044   9.949 -0.4038 -0.0768  0.1681
   77loPI   C1A 1223   7.797  12.085   9.742 -0.1551  0.2495  0.0126
   77loPI   C2A 1224   7.696  12.082   9.227  0.2073 -0.0162  0.1159
   77loPI   C3A 1225   7.669  12.040   8.779 -0.1010  0.4023  0.2328
   77loPI   C4A 1226   7.590  12.094   8.285 -0.0187 -0.0810  0.1128
   77loPI   C5A 1227   7.369  12.281   7.967 -0.0149  0.0692  0.1325
   77loPI   C6A 1228   7.373  12.599   7.643  0.2588 -0.0143 -0.3012
   77loPI   C1B 1229   7.450  12.399   9.603  0.3069  0.1646 -0.1384
   77loPI   C2B 1230   7.341  12.459   9.242 -0.1698  0.0172 -0.4804
   77loPI   C3B 1231   7.389  12.442   8.897 -0.2072  0.0900  0.0355
   77loPI   C4B 1232   7.239  12.283   8.589  0.2514 -0.3198  0.1794
   78loPI    C1 1233  15.337  15.514  11.332  0.0014  0.1945  0.2075
   78loPI    C2 1234  15.321  15.899  11.440  0.1110  0.2169  0.1447
   78loPI    C3 1235  15.443  15.623  11.702  0.2879  0.2596  0.1089
   78loPI   PO4 1236  15.505  15.509  11.091 -0.1379 -0.2089  0.3001
   78loPI   GL1 1237  15.288  15.399  10.751  0.1877  0.3885 -0.0463
   78loPI   GL2 1238  15.456  15.097  10.731 -0.1296 -0.0002 -0.1846
   78loPI   C1A 1239  15.124  15.375  10.401 -0.0785 -0.0532  0.3522
   78loPI   C2A 1240  15.086  15.363   9.993  0.0283  0.0026  0.2381
   78loPI   C3A 1241  15.109  15.399   9.558  0.1541  0.0483 -0.1276
   78loPI   C4A 1242  15.083  15.369   9.097 -0.2873  0.0000 -0.1229
   78loPI   C5A 1243  14.864  15.485   8.630 -0.3568 -0.0549 -0.1087
   78loPI   C6A 1244  14.971  15.675   8.268  0.3403  0.3169  0.1967
   78loPI   C1B 1245  15.532  15.110  10.369  0.1043 -0.2703  0.0582
   78loPI   C2B 1246  15.459  14.910   9.982 -0.2900 -0.1428 -0.2569
   78loPI   C3B 1247  15.461  15.015   9.530 -0.0754  0.0794  0.2796
   78loPI   C4B 1248  15.474  15.031   9.088  0.0007  0.0337 -0.0087
   79loPI    C1 1249  10.841  15.024  11.115 -0.0778  0.0415  0.0538
   79loPI    C2 1250  10.712  15.336  11.330 -0.0654  0.0113  0.1055
   79loPI    C3 1251  11.104  15.262  11.301 -0.0761 -0.1030  0.2402
   79loPI   PO4 1252  10.791  15.025  10.875 -0.1596  0.3994  0.2899
   79loPI   GL1 1253  10.922  15.076  10.513 -0.0458 -0.1698 -0.4815
   79loPI   GL2 1254  10.737  15.329  10.421  0.1028  0.3037 -0.0175
   79loPI   C1A 1255  11.050  14.935   9.989 -0.0947 -0.1176 -0.0444
   79loPI   C2A 1256  11.056  14.893   9.526 -0.3329 -0.2385 -0.0961
   79loPI   C3A 1257  11.182  14.905   9.150  0.1681  0.1810 -0.0355
   79loPI   C4A 1258  11.135  15.080   8.752 -0.0454  0.1610 -0.1013
   79loPI   C5A 1259  11.230  14.856   8.396 -0.0545 -0.2110  0.0052
   79loPI   C6A 1260  11.448  14.758   8.005 -0.1199 -0.1725  0.1526
   79loPI   C1B 1261  10.779  15.405  10.064 -0.0864 -0.0487  0.0359
   79loPI   C2B 1262  10.777  15.354   9.585 -0.0623 -0.1632  0.0103
   79loPI   C3B 1263  10.770  15.331   9.178 -0.1723  0.2989 -0.1425
   79loPI   C4B 1264  10.744  15.467   8.739  0.0407  0.1600  0.1173
   80loPI    C1 1265   1.440  17.787  11.280  0.0165  0.1806 -0.0935
   80loPI    C2 1266   1.117  17.995  11.389 -0.0452  0.0564 -0.0379
   80loPI    C3 1267   1.235  17.681  11.606  0.0563  0.0422 -0.1130
   80loPI   PO4 1268   1.416  17.816  11.004  0.1284  0.4344 -0.2264
   80loPI   GL1 1269   1.188  17.665  10.568  0.0089  0.3499 -0.2464
   80loPI   GL2 1270   1.401  17.659  10.492 -0.1471 -0.4287  0.1159
   80loPI   C1A 1271   0.863  17.387  10.269  0.1628 -0.1182 -0.3521
   80loPI   C2A 1272   0.766  17.380   9.843 -0.0889  0.1029  0.0383
   80loPI   C3A 1273   0.865  17.389   9.432  0.0456 -0.0999  0.0783
   80loPI   C4A 1274   0.838  17.265   9.071 -0.0616 -0.0277  0.2756
   80loPI   C5A 1275   0.955  17.307   8.655 -0.0316  0.1565  0.0525
   80loPI   C6A 1276   1.267  17.300   8.324 -0.0611 -0.0192  0.0831
   80loPI   C1B 1277   1.407  17.403  10.165 -0.0220  0.2854  0.1061
   80loPI   C2B 1278   1.313  17.366   9.844 -0.0247 -0.0305  0.1976
   80loPI   C3B 1279   1.407  17.433   9.516 -0.1047  0.0443  0.3115
   80loPI   C4B 1280   1.356  17.392   9.026  0.0014  0.0598 -0.1270
   81loPI    C1 1281  15.815   0.355  11.264 -0.5548  0.0312  0.2908
   81loPI    C2 1282  16.083   0.116  11.440 -0.3032  0.0898 -0.0051
   81loPI    C3 1283  15.861   0.364  11.661  0.0763  0.2336  0.2242
   81loPI   PO4 1284  15.845   0.233  10.977 -0.2743 -0.2578  0.2996
   81loPI   GL1 1285  15.988   0.407  10.562  0.1027  0.2887 -0.1859
   81loPI   GL2 1286  16.093   0.719  10.496  0.3720  0.2497 -0.2535
   81loPI   C1A 1287  15.982   0.183  10.212 -0.1281 -0.1923 -0.0548
   81loPI   C2A 1288  15.905   0.186   9.796 -0.2623  0.0726 -0.1325
   81loPI   C3A 1289  16.085   0.387   9.548  0.0194  0.1039 -0.0486
   81loPI   C4A 1290  16.147   0.407   9.079 -0.0406 -0.0550  0.0454
   81loPI   C5A 1291  16.196   0.302   8.701  0.0937  0.0807 -0.0466
   81loPI   C6A 1292  16.478   0.037   8.615 -0.0264 -0.4448 -0.0107
   81loPI   C1B 1293  16.069   0.636  10.048 -0.1094  0.0195  0.0540
   81loPI   C2B 1294  16.072   0.862   9.712 -0.1157  0.2035  0.0750
   81loPI   C3B 1295  16.144   0.872   9.263 -0.1583  0.2259 -0.4078
   81loPI   C4B 1296  16.310   0.822   8.812  0.1415 -0.1155 -0.3175
   82loPI    C1 1297  10.480   8.783  10.192  0.0378  0.1263 -0.1085
   82loPI    C2 1298  10.871   8.720  10.251 -0.0286 -0.1511  0.0563
   82loPI    C3 1299  10.655   8.911  10.529 -0.0250 -0.0594 -0.0036
   82loPI   PO4 1300  10.448   8.849   9.982  0.1420  0.2033  0.3294
   82loPI   GL1 1301  10.418   8.768   9.648  0.3088 -0.1829 -0.3206
   82loPI   GL2 1302  10.106   8.753   9.443  0.0854  0.0756  0.1536
   82loPI   C1A 1303  10.502   8.957   9.315 -0.5007 -0.1985 -0.1576
   82loPI   C2A 1304  10.456   8.928   8.848  0.0096  0.0033  0.0963
   82loPI   C3A 1305  10.611   8.956   8.463  0.0602  0.2356  0.3869
   82loPI   C4A 1306  10.574   9.010   8.034 -0.2807  0.0102  0.1561
   82loPI   C5A 1307  10.511   9.006   7.516 -0.0495 -0.1194  0.0052
   82loPI   C6A 1308  10.624   8.737   7.143  0.0900 -0.1483  0.2730
   82loPI   C1B 1309  10.210   8.590   9.062 -0.2146 -0.1479  0.1291
   82loPI   C2B 1310  10.332   8.561   8.550  0.3756 -0.0140  0.1421
   82loPI   C3B 1311  10.391   8.496   8.184 -0.0774  0.2398  0.0591
   82loPI   C4B 1312  10.470   8.594   7.781 -0.1843  0.1989  0.2294
   83loPI    C1 1313  17.209  10.885  10.772  0.0174  0.1150 -0.1515
   83loPI    C2 1314  16.903  10.730  10.977  0.0049  0.0128 -0.2464
   83loPI    C3 1315  17.150  10.991  11.153 -0.0635  0.0013 -0.1320
   83loPI   PO4 1316  17.090  11.084  10.499  0.3584  0.0773  0.0046
   83loPI   GL1 1317  17.199  11.431  10.162 -0.1382 -0.0594  0.0832
   83loPI   GL2 1318  16.844  11.485  10.194  0.0281 -0.2578 -0.1844
   83loPI   C1A 1319  17.139  11.265   9.728  0.0706  0.2884  0.3021
   83loPI   C2A 1320  17.136  11.266   9.277 -0.4037 -0.2845 -0.0838
   83loPI   C3A 1321  17.055  11.311   8.754  0.0775  0.0285 -0.1802
   83loPI   C4A 1322  17.000  11.242   8.365 -0.0590  0.1735  0.0125
   83loPI   C5A 1323  17.162  11.249   7.973 -0.2270  0.1729  0.2759
   83loPI   C6A 1324  17.228  10.979   7.600 -0.2445 -0.2710 -0.1111
   83loPI   C1B 1325  16.850  11.635   9.714  0.0658 -0.0101 -0.3209
   83loPI   C2B 1326  16.847  11.714   9.293  0.0723  0.1444 -0.2149
   83loPI   C3B 1327  16.780  11.698   8.958 -0.0297 -0.4280 -0.2418
   83loPI   C4B 1328  16.853  11.686   8.496 -0.1527 -0.1577 -0.3911
   84loPI    C1 1329   0.632  13.164  10.920  0.0749  0.1181 -0.0197
   84loPI    C2 1330   0.789  13.094  11.281  0.2540 -0.3009 -0.1727
   84loPI    C3 1331   0.962  12.941  10.954 -0.0058 -0.0730 -0.4227
   84loPI   PO4 1332   0.613  13.443  10.796  0.0205 -0.2251 -0.0894
   84loPI   GL1 1333   0.657  13.481  10.342  0.4227  0.0894 -0.0758
   84loPI   GL2 1334   0.341  13.407  10.344  0.1589  0.1529  0.3140
   84loPI   C1A 1335   0.620  13.464   9.915 -0.0145 -0.1739 -0.1273
   84loPI   C2A 1336   0.611  13.464   9.478 -0.1630 -0.1090 -0.1465
   84loPI   C3A 1337   0.655  13.517   9.010 -0.1504 -0.0626  0.2342
   84loPI   C4A 1338   0.659  13.466   8.586 -0.1791 -0.1060 -0.1597
   84loPI   C5A 1339   0.492  13.520   8.170  0.0179  0.1175 -0.2477
   84loPI   C6A 1340   0.095  13.389   7.978  0.3043  0.4231 -0.1714
   84loPI   C1B 1341   0.148  13.385   9.883  0.0969 -0.1376 -0.2049
   84loPI   C2B 1342   0.155  13.496   9.375  0.1071  0.0217 -0.0981
   84loPI   C3B 1343   0.160  13.460   8.908 -0.0175 -0.0073 -0.0619
   84loPI   C4B 1344   0.050  13.584   8.531 -0.1297  0.0593  0.1268
   85loPI    C1 1345  17.525   2.029  11.092  0.1518 -0.0264 -0.0794
   85loPI    C2 1346  17.519   1.646  11.208 -0.0407 -0.0443 -0.1449
   85loPI    C3 1347  17.804   1.892  11.344  0.1212 -0.2257 -0.1520
   85loPI   PO4 1348  17.483   2.017  10.837 -0.1236 -0.0894  0.2424
   85loPI   GL1 1349  17.376   2.237  10.488 -0.0611  0.0679  0.2356
   85loPI   GL2 1350  17.207   2.464  10.400 -0.1501 -0.1766 -0.0579
   85loPI   C1A 1351  17.505   2.117  10.145 -0.0684 -0.0022 -0.0238
   85loPI   C2A 1352  17.529   2.017   9.729 -0.0588  0.0574 -0.0432
   85loPI   C3A 1353  17.432   2.012   9.300 -0.0637 -0.1178  0.2696
   85loPI   C4A 1354  17.562   1.989   8.869 -0.0843 -0.3947 -0.0393
   85loPI   C5A 1355  17.815   1.876   8.454  0.2621  0.1819 -0.1908
   85loPI   C6A 1356  18.109   1.684   8.285 -0.0016 -0.0998 -0.3654
   85loPI   C1B 1357  16.988   2.416   9.947 -0.0807  0.1234  0.0005
   85loPI   C2B 1358  17.077   2.382   9.438  0.0443  0.0629 -0.0860
   85loPI   C3B 1359  17.147   2.398   9.009 -0.3161  0.0568 -0.0143
   85loPI   C4B 1360  17.249   2.281   8.634  0.1004  0.1247  0.0670
   86loPI    C1 1361  13.939  10.725  10.381 -0.1615 -0.2114 -0.1493
   86loPI    C2 1362  13.933  10.756  10.780 -0.1936  0.2118 -0.1774
   86loPI    C3 1363  13.616  10.606  10.586 -0.1200 -0.1348 -0.0384
   86loPI   PO4 1364  13.965  10.916  10.251 -0.0380 -0.0490  0.0534
   86loPI   GL1 1365  14.233  11.015   9.974  0.0220 -0.4237 -0.1040
   86loPI   GL2 1366  14.454  10.814   9.854 -0.1945  0.0183 -0.0081
   86loPI   C1A 1367  14.267  11.112   9.551  0.0594  0.0361  0.2773
   86loPI   C2A 1368  14.204  11.061   9.136 -0.0568 -0.1553  0.0744
   86loPI   C3A 1369  14.247  11.046   8.692 -0.3394  0.1176 -0.4379
   86loPI   C4A 1370  14.244  11.016   8.267 -0.0140 -0.0532  0.2454
   86loPI   C5A 1371  14.450  11.134   7.939 -0.2332  0.0158  0.3079
   86loPI   C6A 1372  14.281  11.173   7.565  0.4252  0.4199  0.1468
   86loPI   C1B 1373  14.607  10.677   9.439 -0.3455  0.3846  0.1289
   86loPI   C2B 1374  14.618  10.694   8.969  0.0577 -0.1626 -0.2058
   86loPI   C3B 1375  14.571  10.705   8.503 -0.0408  0.0231  0.1778
   86loPI   C4B 1376  14.614  10.690   8.064  0.2658  0.2083  0.2915
   87loPI    C1 1377   2.998  15.539  11.484 -0.0670 -0.1023  0.1113
   87loPI    C2 1378   3.319  15.776  11.453 -0.1413 -0.0384 -0.2078
   87loPI    C3 1379   3.345  15.428  11.650  0.0821  0.0358 -0.1033
   87loPI   PO4 1380   2.894  15.614  11.177 -0.2667 -0.1342  0.3079
   87loPI   GL1 1381   2.763  15.801  10.802  0.1446  0.0651  0.0235
   87loPI   GL2 1382   2.987  15.489  10.652 -0.2558  0.2045  0.0897
   87loPI   C1A 1383   2.608  15.874  10.345 -0.1600 -0.0333 -0.1187
   87loPI   C2A 1384   2.675  15.834   9.959  0.3039 -0.0429 -0.1684
   87loPI   C3A 1385   2.778  15.825   9.628 -0.2090  0.2007  0.3357
   87loPI   C4A 1386   2.730  15.847   9.125 -0.2688  0.0609 -0.0219
   87loPI   C5A 1387   2.810  15.770   8.698 -0.3136  0.0979 -0.2734
   87loPI   C6A 1388   2.851  15.657   8.317  0.3579 -0.0280 -0.2378
   87loPI   C1B 1389   3.075  15.514  10.187 -0.1083 -0.1000  0.1288
   87loPI   C2B 1390   3.182  15.464   9.713  0.2970 -0.1276 -0.0897
   87loPI   C3B 1391   3.219  15.479   9.269  0.1001  0.2686  0.1473
   87loPI   C4B 1392   3.176  15.477   8.827 -0.0113  0.0478  0.1581
   88loPI    C1 1393   9.569   8.163  10.310 -0.3130 -0.0079 -0.1418
   88loPI    C2 1394   9.232   7.994  10.444 -0.2470  0.1713  0.2646
   88loPI    C3 1395   9.577   7.932  10.636 -0.0877  0.1792 -0.0125
   88loPI   PO4 1396   9.440   8.158   9.992  0.0930  0.3937 -0.1732
   88loPI   GL1 1397   9.482   7.848   9.693  0.0094  0.1129 -0.1805
   88loPI   GL2 1398   9.280   7.574   9.620  0.3568 -0.0433 -0.1043
   88loPI   C1A 1399   9.785   7.625   9.518 -0.2631 -0.0266  0.0866
   88loPI   C2A 1400   9.915   7.646   9.150 -0.0988  0.0942 -0.1420
   88loPI   C3A 1401   9.982   7.658   8.741  0.0400 -0.0950  0.2325
   88loPI   C4A 1402  10.093   7.612   8.308  0.0960  0.0599  0.0278
   88loPI   C5A 1403  10.091   7.517   7.860  0.4390 -0.0059  0.0328
   88loPI   C6A 1404  10.494   7.339   7.680  0.2216  0.1380  0.2081
   88loPI   C1B 1405   9.375   7.621   9.217 -0.0399  0.5537  0.0327
   88loPI   C2B 1406   9.402   7.521   8.877 -0.4382 -0.2243  0.0519
   88loPI   C3B 1407   9.476   7.553   8.503 -0.2460 -0.0659 -0.2286
   88loPI   C4B 1408   9.131   7.651   8.093  0.2979 -0.0497  0.0230
   89loPI    C1 1409  10.786  10.181  10.068 -0.3430  0.1224  0.1833
   89loPI    C2 1410  11.092  10.041  10.284 -0.1272  0.0017 -0.1921
   89loPI    C3 1411  10.727  10.061  10.446  0.0542  0.0470  0.2260
   89loPI   PO4 1412  10.763  10.106   9.881  0.2695  0.0500 -0.0329
   89loPI   GL1 1413  10.689  10.122   9.507  0.0865  0.0283  0.0958
   89loPI   GL2 1414  10.533   9.950   9.161  0.1174 -0.0708 -0.0472
   89loPI   C1A 1415  11.152  10.266   9.386  0.0902 -0.2661 -0.1866
   89loPI   C2A 1416  11.318  10.230   9.021  0.0029  0.0177  0.0389
   89loPI   C3A 1417  11.340  10.249   8.624  0.2106 -0.0441 -0.0189
   89loPI   C4A 1418  11.116  10.345   8.218 -0.1382 -0.1573 -0.4867
   89loPI   C5A 1419  11.490  10.615   7.821 -0.0022  0.0513 -0.1250
   89loPI   C6A 1420  11.718  10.684   7.483 -0.1952  0.0168 -0.1370
   89loPI   C1B 1421  10.496   9.850   8.787 -0.1625  0.2469 -0.1799
   89loPI   C2B 1422  10.604   9.876   8.377  0.1107 -0.4803  0.0092
   89loPI   C3B 1423  10.737  10.047   8.061 -0.0278  0.2477 -0.0057
   89loPI   C4B 1424  10.878   9.845   7.655  0.1118  0.0409  0.1256
   90loPI    C1 1425   5.470   4.871  10.669 -0.0916  0.0415 -0.0097
   90loPI    C2 1426   5.616   5.010  11.015 -0.1000 -0.0869  0.0463
   90loPI    C3 1427   5.240   5.095  10.908 -0.1367 -0.1474  0.1267
   90loPI   PO4 1428   5.483   4.626  10.616 -0.1388 -0.3014 -0.0392
   90loPI   GL1 1429   5.446   4.458  10.287 -0.1137 -0.0986  0.0470
   90loPI   GL2 1430   5.736   4.601  10.148  0.0230  0.0447 -0.1829
   90loPI   C1A 1431   5.293   4.409   9.903  0.0941 -0.0802  0.0065
   90loPI   C2A 1432   5.219   4.333   9.490  0.0660  0.0292  0.1887
   90loPI   C3A 1433   5.310   4.245   9.138  0.1639 -0.1342  0.1407
   90loPI   C4A 1434   5.312   4.326   8.655  0.2304  0.3916 -0.1098
   90loPI   C5A 1435   5.327   4.132   8.282  0.2366  0.1014 -0.3226
   90loPI   C6A 1436   5.349   3.834   7.941 -0.1586 -0.1713  0.2560
   90loPI   C1B 1437   5.733   4.497   9.788 -0.1742 -0.3053 -0.0837
   90loPI   C2B 1438   5.782   4.393   9.290 -0.4126 -0.1643  0.1943
   90loPI   C3B 1439   5.784   4.358   8.880  0.1734  0.0798 -0.0254
   90loPI   C4B 1440   5.777   4.141   8.507 -0.1192  0.1342  0.0501
   91loPI    C1 1441   3.062  10.421  10.584  0.0265  0.1354  0.0771
   91loPI    C2 1442   3.360  10.430  10.851  0.0853 -0.0304  0.0184
   91loPI    C3 1443   2.980  10.405  10.975  0.1150 -0.1510  0.0858
   91loPI   PO4 1444   3.138  10.499  10.423  0.2191  0.0200  0.0732
   91loPI   GL1 1445   3.132  10.499   9.953  0.1684  0.0530 -0.1863
   91loPI   GL2 1446   2.941  10.746   9.925 -0.1780  0.1151 -0.0346
   91loPI   C1A 1447   3.048  10.273   9.501  0.2500  0.1033 -0.1636
   91loPI   C2A 1448   2.982  10.328   9.071  0.1499  0.0387  0.2285
   91loPI   C3A 1449   2.980  10.370   8.616  0.0862  0.0796  0.5325
   91loPI   C4A 1450   2.835  10.358   8.186 -0.1141  0.1477  0.0516
   91loPI   C5A 1451   2.969  10.478   7.847  0.1532  0.3193 -0.1849
   91loPI   C6A 1452   2.860  10.881   7.835 -0.1187 -0.0419  0.1343
   91loPI   C1B 1453   3.039  10.789   9.474  0.0911  0.1909 -0.3060
   91loPI   C2B 1454   2.972  10.876   9.041 -0.1943 -0.0055 -0.0421
   91loPI   C3B 1455   2.973  10.838   8.729 -0.0024 -0.0069  0.1056
   91loPI   C4B 1456   3.031  10.863   8.320 -0.3105 -0.1981  0.0699
   92loPI    C1 1457   3.595  10.614  10.082 -0.2168 -0.1455 -0.1979
   92loPI    C2 1458   3.651  10.537  10.470 -0.0487  0.2513 -0.1387
   92loPI    C3 1459   3.480  10.880  10.357 -0.3883  0.0007 -0.4077
   92loPI   PO4 1460   3.690  10.376   9.985 -0.0799 -0.0898 -0.3168
   92loPI   GL1 1461   3.543  10.217   9.580 -0.0210 -0.0721  0.3230
   92loPI   GL2 1462   3.822  10.074   9.496  0.0453  0.0498 -0.0957
   92loPI   C1A 1463   3.477  10.380   9.170 -0.1450  0.1993 -0.1119
   92loPI   C2A 1464   3.392  10.554   8.751 -0.0614  0.0770 -0.3845
   92loPI   C3A 1465   3.420  10.515   8.285 -0.0240 -0.3454  0.0152
   92loPI   C4A 1466   3.461  10.716   7.916  0.1667  0.0542  0.1004
   92loPI   C5A 1467   3.319  11.129   7.762 -0.2579 -0.0427  0.0270
   92loPI   C6A 1468   3.100  11.450   7.930  0.1811  0.1476 -0.0846
   92loPI   C1B 1469   3.869  10.131   9.009 -0.0291  0.0435  0.0626
   92loPI   C2B 1470   3.820  10.073   8.528 -0.0637  0.0028 -0.1138
   92loPI   C3B 1471   3.747  10.060   8.047  0.1800 -0.2535 -0.2594
   92loPI   C4B 1472   3.600  10.280   7.789  0.2115 -0.1575  0.3327
   93loPI    C1 1473  17.325   9.187  10.466  0.0355 -0.2001  0.0539
   93loPI    C2 1474  17.272   8.901  10.740 -0.1379 -0.0698  0.1583
   93loPI    C3 1475  17.289   9.284  10.852 -0.0336 -0.0287  0.0054
   93loPI   PO4 1476  17.175   9.128  10.146  0.0402  0.0796 -0.0057
   93loPI   GL1 1477  17.221   9.009   9.758  0.0345  0.0514 -0.0375
   93loPI   GL2 1478  16.891   8.776   9.710  0.0488  0.2714 -0.0451
   93loPI   C1A 1479  17.390   9.015   9.355 -0.2713  0.2357  0.1152
   93loPI   C2A 1480  17.321   9.009   9.015 -0.1009  0.0093  0.2101
   93loPI   C3A 1481  17.333   8.924   8.555 -0.0525  0.1650  0.1362
   93loPI   C4A 1482  17.284   8.758   8.136  0.0219 -0.4200  0.1624
   93loPI   C5A 1483  17.218   8.575   7.720 -0.0506 -0.0112 -0.0546
   93loPI   C6A 1484  17.069   8.634   7.337 -0.2410 -0.1763 -0.0479
   93loPI   C1B 1485  16.863   8.868   9.254  0.3179  0.1588  0.2292
   93loPI   C2B 1486  16.801   8.820   8.751  0.2260  0.0024 -0.2382
   93loPI   C3B 1487  16.818   8.799   8.327  0.0235 -0.3771  0.1357
   93loPI   C4B 1488  16.841   8.751   7.943 -0.0841  0.2545 -0.0927
   94loPI    C1 1489  12.625   7.952  10.219  0.0334 -0.4211 -0.1599
   94loPI    C2 1490  12.779   7.723  10.509  0.0417 -0.0717  0.1182
   94loPI    C3 1491  12.962   8.064  10.405 -0.0654 -0.0993 -0.1681
   94loPI   PO4 1492  12.627   7.931   9.961  0.1162  0.2650 -0.0508
   94loPI   GL1 1493  12.603   8.288   9.639  0.1358 -0.1448  0.1317
   94loPI   GL2 1494  12.638   8.047   9.443  0.3271  0.1903 -0.0479
   94loPI   C1A 1495  12.691   8.554   9.272 -0.2163 -0.0637  0.0912
   94loPI   C2A 1496  12.801   8.566   8.877  0.1458  0.3254  0.0936
   94loPI   C3A 1497  12.657   8.628   8.455 -0.2087 -0.1419 -0.1362
   94loPI   C4A 1498  12.505   8.698   8.035  0.0676 -0.0632 -0.0336
   94loPI   C5A 1499  12.663   8.450   7.679  0.0265 -0.0517  0.0719
   94loPI   C6A 1500  12.785   8.159   7.287  0.0530  0.0003 -0.3053
   94loPI   C1B 1501  12.649   8.066   9.014  0.2380 -0.1039  0.1913
   94loPI   C2B 1502  12.641   7.934   8.636  0.1045 -0.0692 -0.2579
   94loPI   C3B 1503  12.813   7.930   8.183  0.1247 -0.0335  0.0537
   94loPI   C4B 1504  12.647   7.857   7.705 -0.1758  0.1444  0.0753
   95loPI    C1 1505   7.905   6.310  10.288 -0.1986  0.1253  0.1919
   95loPI    C2 1506   8.125   6.476  10.577 -0.1535  0.1920  0.1199
   95loPI    C3 1507   8.304   6.310  10.260 -0.2008  0.0659  0.1587
   95loPI   PO4 1508   7.792   6.509  10.126  0.1442 -0.0086  0.5198
   95loPI   GL1 1509   7.824   6.456   9.722  0.2957 -0.3119 -0.1612
   95loPI   GL2 1510   7.759   6.722   9.669 -0.0581  0.1892  0.1089
   95loPI   C1A 1511   7.913   6.317   9.324  0.1820 -0.1312 -0.0672
   95loPI   C2A 1512   7.955   6.141   8.902  0.2648  0.1481 -0.0067
   95loPI   C3A 1513   7.855   6.085   8.486  0.0623  0.2234 -0.1821
   95loPI   C4A 1514   7.843   5.954   8.116  0.1494 -0.0490  0.0407
   95loPI   C5A 1515   7.758   5.835   7.675 -0.2289  0.0899  0.3756
   95loPI   C6A 1516   7.383   5.882   7.500 -0.1586 -0.2485  0.0167
   95loPI   C1B 1517   7.611   6.740   9.330 -0.2550  0.2132 -0.0575
   95loPI   C2B 1518   7.519   6.594   8.959  0.2108 -0.0355  0.0530
   95loPI   C3B 1519   7.576   6.610   8.660  0.1133  0.0479 -0.0747
   95loPI   C4B 1520   7.584   6.484   8.222  0.1407  0.0576  0.0781
   96loPI    C1 1521  13.348   0.211  11.044  0.2367 -0.2157 -0.1380
   96loPI    C2 1522  13.556   0.513  11.204 -0.3256  0.1129  0.0018
   96loPI    C3 1523  13.432   0.212  11.435 -0.0857 -0.0397 -0.0649
   96loPI   PO4 1524  13.472   0.156  10.736 -0.2508 -0.0684  0.0261
   96loPI   GL1 1525  13.737  -0.150  10.493 -0.3414 -0.4017  0.2578
   96loPI   GL2 1526  14.046  -0.244  10.340  0.1346 -0.1443 -0.0889
   96loPI   C1A 1527  13.628  -0.005  10.137 -0.3181  0.4209  0.3704
   96loPI   C2A 1528  13.649  -0.092   9.742  0.1520 -0.0118  0.1729
   96loPI   C3A 1529  13.485   0.083   9.486 -0.0897 -0.2076  0.0735
   96loPI   C4A 1530  13.605   0.244   9.034  0.1336  0.1966 -0.1134
   96loPI   C5A 1531  13.564   0.264   8.616 -0.1913  0.2316 -0.0967
   96loPI   C6A 1532  13.749   0.567   8.325 -0.0615 -0.0449 -0.1811
   96loPI   C1B 1533  14.075  -0.323   9.918 -0.1681 -0.0741  0.1956
   96loPI   C2B 1534  14.131  -0.171   9.670  0.2671  0.0812  0.0748
   96loPI   C3B 1535  13.960  -0.189   9.287  0.2229 -0.3750 -0.1546
   96loPI   C4B 1536  13.975  -0.140   8.793 -0.1321 -0.1744 -0.0600
   97loPI    C1 1537  15.530   5.310  10.627  0.0618  0.0808 -0.1763
   97loPI    C2 1538  15.790   5.561  10.798  0.0532 -0.0575  0.0434
   97loPI    C3 1539  15.402   5.582  10.891  0.0600 -0.1862  0.1034
   97loPI   PO4 1540  15.582   5.261  10.430 -0.0779 -0.2980 -0.0519
   97loPI   GL1 1541  15.394   5.388  10.098  0.1433  0.0680 -0.0027
   97loPI   GL2 1542  15.693   5.581   9.984 -0.0868 -0.3732  0.1599
   97loPI   C1A 1543  15.536   5.371   9.599 -0.2011 -0.1833 -0.2751
   97loPI   C2A 1544  15.608   5.272   9.161  0.1534  0.1647  0.0761
   97loPI   C3A 1545  15.740   5.279   8.711  0.4263  0.1569 -0.0599
   97loPI   C4A 1546  15.591   5.165   8.342 -0.2073 -0.2449  0.1506
   97loPI   C5A 1547  15.218   4.981   8.149  0.2886 -0.1667  0.2803
   97loPI   C6A 1548  14.832   4.893   8.041  0.2679  0.2612  0.0579
   97loPI   C1B 1549  15.760   5.801   9.485 -0.2718  0.3310 -0.0470
   97loPI   C2B 1550  15.849   5.859   9.037  0.1519 -0.1484  0.0109
   97loPI   C3B 1551  15.859   5.847   8.627  0.0460 -0.0989  0.1831
   97loPI   C4B 1552  15.802   5.614   8.292 -0.4433  0.1924  0.2443
   98loPI    C1 1553  12.790   3.138  10.933 -0.2412 -0.2878  0.0324
   98loPI    C2 1554  13.135   2.992  11.072 -0.1004  0.0618  0.0618
   98loPI    C3 1555  12.865   3.141  11.326 -0.2859 -0.2308  0.0407
   98loPI   PO4 1556  12.909   3.246  10.663 -0.1480  0.0760 -0.1155
   98loPI   GL1 1557  13.154   3.078  10.246  0.0731  0.0463  0.1131
   98loPI   GL2 1558  13.492   2.925  10.187 -0.4149  0.0669 -0.2113
   98loPI   C1A 1559  12.845   2.914  10.012 -0.1057  0.0324  0.3249
   98loPI   C2A 1560  12.919   2.859   9.597 -0.2231 -0.1978 -0.0933
   98loPI   C3A 1561  13.080   2.866   9.134  0.0763 -0.2702 -0.0173
   98loPI   C4A 1562  12.972   2.866   8.664 -0.2527  0.1461  0.0477
   98loPI   C5A 1563  12.629   2.701   8.458 -0.1150 -0.2435  0.0268
   98loPI   C6A 1564  12.279   2.452   8.323  0.3349 -0.0587  0.2047
   98loPI   C1B 1565  13.517   3.019   9.871  0.0786  0.1951  0.2146
   98loPI   C2B 1566  13.484   2.894   9.503  0.1723  0.0296  0.3242
   98loPI   C3B 1567  13.560   2.988   9.019  0.4740  0.1653  0.0622
   98loPI   C4B 1568  13.520   2.915   8.625  0.0589  0.3235  0.2084
   99loPI    C1 1569  11.032   0.563  11.319  0.2622  0.0903 -0.0152
   99loPI    C2 1570  11.035   0.219  11.522  0.0039  0.0303 -0.1082
   99loPI    C3 1571  11.165   0.555  11.696  0.1052 -0.0832  0.0382
   99loPI   PO4 1572  11.174   0.590  11.050  0.2358  0.0015  0.0800
   99loPI   GL1 1573  11.235   0.574  10.606  0.0748 -0.3305 -0.1294
   99loPI   GL2 1574  11.073   0.298  10.541  0.0855 -0.0933 -0.2502
   99loPI   C1A 1575  11.252   0.757  10.282 -0.1058 -0.1592 -0.0962
   99loPI   C2A 1576  11.356   0.705   9.929 -0.0880  0.4506  0.0290
   99loPI   C3A 1577  11.420   0.606   9.501 -0.1745 -0.1397 -0.2321
   99loPI   C4A 1578  11.313   0.613   9.029  0.2951 -0.2990 -0.2850
   99loPI   C5A 1579  11.390   0.627   8.551 -0.3861 -0.0541  0.1026
   99loPI   C6A 1580  11.489   0.984   8.287 -0.2491  0.0256 -0.1386
   99loPI   C1B 1581  11.224   0.286  10.173  0.3306  0.2733 -0.0639
   99loPI   C2B 1582  11.243   0.178   9.828  0.1602  0.0034 -0.0629
   99loPI   C3B 1583  11.143   0.080   9.461  0.0174 -0.1209 -0.1222
   99loPI   C4B 1584  11.172  -0.016   9.081 -0.1041 -0.3731 -0.2410
  100loPI    C1 1585  13.244   3.564  10.893 -0.1438  0.0377  0.2400
  100loPI    C2 1586  13.545   3.738  11.091  0.0617 -0.0646  0.0228
  100loPI    C3 1587  13.360   3.420  11.248  0.0802 -0.0146  0.1475
  100loPI   PO4 1588  13.355   3.499  10.632  0.0326 -0.2062 -0.0008
  100loPI   GL1 1589  13.539   3.440  10.273  0.1234  0.1040 -0.0493
  100loPI   GL2 1590  13.735   3.574  10.141 -0.1809 -0.1053  0.0033
  100loPI   C1A 1591  13.934   3.163  10.088 -0.1798  0.0422 -0.1178
  100loPI   C2A 1592  13.981   3.064   9.672  0.1269 -0.0106 -0.2221
  100loPI   C3A 1593  14.039   3.038   9.271  0.0124 -0.1963 -0.1284
  100loPI   C4A 1594  14.077   3.085   8.788  0.3865 -0.2750  0.0746
  100loPI   C5A 1595  13.959   2.956   8.354  0.0300  0.1794  0.3076
  100loPI   C6A 1596  13.503   2.993   8.109  0.1888 -0.1535 -0.0492
  100loPI   C1B 1597  13.680   3.449   9.715  0.1946 -0.2070 -0.5037
  100loPI   C2B 1598  13.688   3.373   9.331  0.1379 -0.0183  0.0938
  100loPI   C3B 1599  13.789   3.435   8.946  0.1207  0.1510 -0.1405
  100loPI   C4B 1600  13.594   3.479   8.508  0.1234 -0.2762 -0.3396
  101loPI    C1 1601  11.046   4.933  10.491  0.0781  0.1700 -0.1017
  101loPI    C2 1602  10.940   5.223  10.744  0.1760  0.1059  0.0140
  101loPI    C3 1603  11.172   4.923  10.870 -0.0873 -0.1297 -0.0510
  101loPI   PO4 1604  10.989   5.062  10.240  0.1134 -0.2853 -0.3038
  101loPI   GL1 1605  11.291   5.029   9.969 -0.1036  0.0243 -0.1098
  101loPI   GL2 1606  11.303   5.376  10.011  0.1552  0.0237 -0.0478
  101loPI   C1A 1607  11.192   4.798   9.590  0.0170  0.0445 -0.4359
  101loPI   C2A 1608  11.195   4.745   9.171 -0.1552 -0.1028 -0.0113
  101loPI   C3A 1609  11.314   4.784   8.818  0.1317 -0.0323  0.0593
  101loPI   C4A 1610  11.302   4.756   8.520 -0.2685 -0.2124 -0.0013
  101loPI   C5A 1611  11.352   4.503   8.130  0.0483 -0.2804  0.0924
  101loPI   C6A 1612  11.368   4.451   7.664  0.0667  0.0816 -0.1705
  101loPI   C1B 1613  11.329   5.290   9.540  0.2412 -0.1631 -0.1635
  101loPI   C2B 1614  11.299   5.241   9.122 -0.0626  0.1699  0.3121
  101loPI   C3B 1615  11.354   5.273   8.778  0.2188  0.0689 -0.2714
  101loPI   C4B 1616  11.476   5.213   8.413  0.3166  0.0971  0.0493
  102loPI    C1 1617   1.790  18.147  10.964  0.1335  0.2663 -0.1024
  102loPI    C2 1618   1.547  18.276  11.254  0.1290  0.0272  0.0023
  102loPI    C3 1619   1.940  18.341  11.280  0.1247  0.0366  0.0454
  102loPI   PO4 1620   1.747  18.254  10.814 -0.1870  0.3191  0.3246
  102loPI   GL1 1621   1.685  18.162  10.472  0.0448  0.0763 -0.1314
  102loPI   GL2 1622   1.508  18.448  10.305  0.3594 -0.2274 -0.2970
  102loPI   C1A 1623   1.549  17.869  10.103 -0.3450 -0.0551 -0.1347
  102loPI   C2A 1624   1.456  17.965   9.650  0.0298  0.3719 -0.1861
  102loPI   C3A 1625   1.522  17.885   9.225 -0.3386 -0.1067 -0.3516
  102loPI   C4A 1626   1.581  17.813   8.719  0.2559 -0.0661 -0.2365
  102loPI   C5A 1627   1.637  17.945   8.299  0.0071 -0.2020 -0.0837
  102loPI   C6A 1628   1.387  18.160   8.089 -0.2047  0.2064  0.2902
  102loPI   C1B 1629   1.617  18.326   9.906  0.0822  0.0926  0.0292
  102loPI   C2B 1630   1.600  18.384   9.415 -0.0053  0.0452  0.0911
  102loPI   C3B 1631   1.740  18.316   8.959 -0.0200  0.0233  0.2330
  102loPI   C4B 1632   1.880  18.292   8.491  0.2513 -0.1063  0.1017
  103loPI    C1 1633   4.010  17.691  11.227 -0.0036 -0.0879  0.1286
  103loPI    C2 1634   4.232  17.365  11.163  0.0750 -0.0174  0.0394
  103loPI    C3 1635   4.287  17.582  11.494  0.1727  0.0264 -0.0051
  103loPI   PO4 1636   3.962  17.707  10.936  0.1510  0.2745 -0.0172
  103loPI   GL1 1637   4.339  17.605  10.613 -0.1062  0.2086 -0.0240
  103loPI   GL2 1638   4.210  17.298  10.659  0.0285  0.0435  0.1694
  103loPI   C1A 1639   4.268  17.521  10.176 -0.2021 -0.1156  0.2075
  103loPI   C2A 1640   4.202  17.509   9.802  0.2424  0.1496  0.0269
  103loPI   C3A 1641   4.336  17.550   9.370 -0.1747  0.0010  0.1677
  103loPI   C4A 1642   4.362  17.681   8.920 -0.2452 -0.0829 -0.2100
  103loPI   C5A 1643   4.521  17.588   8.478 -0.1115  0.1293  0.1081
  103loPI   C6A 1644   4.546  17.861   8.077  0.0909  0.1524 -0.0773
  103loPI   C1B 1645   4.145  17.076  10.200 -0.1693  0.2303 -0.0707
  103loPI   C2B 1646   4.177  16.980   9.862 -0.0499 -0.1472 -0.1464
  103loPI   C3B 1647   4.063  17.109   9.485 -0.1538  0.2931 -0.3499
  103loPI   C4B 1648   4.165  17.062   9.091  0.0920 -0.1973 -0.0303
  104loPI    C1 1649  11.351  16.803  11.339 -0.0704 -0.1996  0.0660
  104loPI    C2 1650  11.485  16.862  11.711 -0.0947  0.0621  0.0349
  104loPI    C3 1651  11.615  16.549  11.499  0.1524  0.0819  0.1533
  104loPI   PO4 1652  11.402  17.022  11.176  0.2188 -0.2640 -0.1527
  104loPI   GL1 1653  11.274  16.888  10.749  0.1247  0.0272 -0.1146
  104loPI   GL2 1654  11.634  16.645  10.652  0.1603  0.1318  0.3913
  104loPI   C1A 1655  11.266  16.802  10.331 -0.1961 -0.3774  0.0280
  104loPI   C2A 1656  11.241  16.774   9.845 -0.0023 -0.1582 -0.1098
  104loPI   C3A 1657  11.146  16.766   9.388 -0.2887  0.1849 -0.0201
  104loPI   C4A 1658  11.126  16.887   8.948 -0.3312 -0.0625 -0.1213
  104loPI   C5A 1659  11.442  17.023   8.641  0.1544 -0.3516 -0.0217
  104loPI   C6A 1660  11.822  17.253   8.709 -0.1963 -0.2384  0.5527
  104loPI   C1B 1661  11.619  16.441  10.282 -0.1661 -0.0073  0.2975
  104loPI   C2B 1662  11.668  16.441   9.784  0.0161  0.0008 -0.1437
  104loPI   C3B 1663  11.667  16.421   9.277  0.3638 -0.4549 -0.0573
  104loPI   C4B 1664  11.447  16.501   9.015  0.0205 -0.0504  0.3362
  105loPI    C1 1665  17.904   2.412  11.310 -0.3154  0.0612 -0.2787
  105loPI    C2 1666  17.615   2.688  11.327 -0.1407  0.2303  0.0643
  105loPI    C3 1667  17.883   2.661  11.623  0.0531 -0.0823 -0.1334
  105loPI   PO4 1668  17.871   2.333  11.046  0.2454 -0.0782  0.1316
  105loPI   GL1 1669  17.842   2.338  10.624 -0.0886  0.4379 -0.0944
  105loPI   GL2 1670  17.897   2.106  10.447 -0.3207  0.1464 -0.2935
  105loPI   C1A 1671  18.297   2.401  10.352 -0.0432  0.0970  0.1532
  105loPI   C2A 1672  18.517   2.310  10.045 -0.2179 -0.2567 -0.1426
  105loPI   C3A 1673  18.588   2.202   9.631 -0.0358  0.0935 -0.2747
  105loPI   C4A 1674  18.422   2.215   9.301 -0.3146 -0.3046 -0.1992
  105loPI   C5A 1675  18.591   2.261   8.861  0.1461 -0.1750  0.2687
  105loPI   C6A 1676  18.468   2.147   8.447  0.1324 -0.1530  0.1956
  105loPI   C1B 1677  18.032   2.165  10.022  0.3921  0.0938 -0.0689
  105loPI   C2B 1678  18.074   2.115   9.645 -0.0456 -0.0853 -0.0292
  105loPI   C3B 1679  17.906   2.105   9.203  0.3806  0.0372 -0.0958
  105loPI   C4B 1680  18.127   2.089   8.818 -0.2355 -0.1530  0.3938
  106loPI    C1 1681   4.898   7.334  10.528 -0.2358 -0.0683  0.1737
  106loPI    C2 1682   5.197   7.599  10.535 -0.2170 -0.0772 -0.1624
  106loPI    C3 1683   5.182   7.307  10.808 -0.0415  0.0545 -0.0095
  106loPI   PO4 1684   4.880   7.251  10.332 -0.1391 -0.0669  0.0241
  106loPI   GL1 1685   4.614   7.366   9.987 -0.0802 -0.0565  0.0323
  106loPI   GL2 1686   4.787   7.142   9.812  0.1364 -0.0731  0.0229
  106loPI   C1A 1687   4.450   7.330   9.511 -0.1945  0.3013 -0.2170
  106loPI   C2A 1688   4.277   7.288   9.123  0.0060 -0.0907 -0.0824
  106loPI   C3A 1689   4.347   7.382   8.770  0.0170  0.1816  0.0315
  106loPI   C4A 1690   4.415   7.341   8.395  0.0261 -0.3123  0.2466
  106loPI   C5A 1691   4.410   7.078   8.083 -0.1474 -0.1931  0.0721
  106loPI   C6A 1692   4.422   6.786   7.733 -0.0994 -0.1609  0.3901
  106loPI   C1B 1693   4.781   6.961   9.504  0.0318  0.0777  0.1245
  106loPI   C2B 1694   4.709   6.865   9.110 -0.1244 -0.2000  0.3338
  106loPI   C3B 1695   4.659   6.997   8.755  0.0356 -0.1071 -0.2605
  106loPI   C4B 1696   4.712   6.926   8.445 -0.1210  0.1832  0.0914
  107loPI    C1 1697  12.172   9.175   9.877  0.1135  0.0873  0.0545
  107loPI    C2 1698  12.008   9.269  10.229 -0.0767 -0.0296 -0.0014
  107loPI    C3 1699  12.173   8.909  10.175 -0.2537 -0.0972 -0.1018
  107loPI   PO4 1700  12.234   9.397   9.812 -0.0842 -0.1481 -0.1709
  107loPI   GL1 1701  12.024   9.770   9.696  0.1231  0.1131  0.1135
  107loPI   GL2 1702  12.210   9.957   9.852 -0.1119 -0.2732 -0.1456
  107loPI   C1A 1703  12.059   9.741   9.243  0.0541 -0.1536 -0.3930
  107loPI   C2A 1704  12.024   9.815   8.865  0.2453 -0.1502  0.1043
  107loPI   C3A 1705  12.136   9.943   8.472 -0.2361  0.0247  0.0185
  107loPI   C4A 1706  12.099  10.279   8.121 -0.1854  0.0663  0.1553
  107loPI   C5A 1707  11.833  10.194   7.765  0.2030  0.3785  0.4795
  107loPI   C6A 1708  11.640  10.001   7.454 -0.0948 -0.0786 -0.0566
  107loPI   C1B 1709  12.079  10.215   9.479 -0.0535 -0.2112  0.2285
  107loPI   C2B 1710  11.842  10.230   9.051 -0.2323 -0.2200  0.0426
  107loPI   C3B 1711  11.809  10.324   8.577  0.4821  0.3559 -0.0518
  107loPI   C4B 1712  11.666  10.417   8.213 -0.0534 -0.2489  0.0299
  108loPI    C1 1713   4.958   5.874  10.565 -0.0161  0.0349 -0.2892
  108loPI    C2 1714   5.321   5.897  10.398  0.1553  0.0578  0.0777
  108loPI    C3 1715   5.208   6.168  10.670 -0.1325  0.0416 -0.0226
  108loPI   PO4 1716   4.789   5.803  10.413 -0.2380 -0.2184 -0.0533
  108loPI   GL1 1717   4.964   5.613  10.126  0.1654 -0.2725  0.1882
  108loPI   GL2 1718   5.211   5.363   9.971 -0.1634 -0.2819  0.1338
  108loPI   C1A 1719   4.845   5.603   9.724 -0.0374  0.1256  0.3288
  108loPI   C2A 1720   4.743   5.562   9.347  0.0798 -0.1878 -0.0751
  108loPI   C3A 1721   4.637   5.611   8.966  0.0672 -0.1064  0.1266
  108loPI   C4A 1722   4.710   5.535   8.448 -0.1888  0.0045 -0.1439
  108loPI   C5A 1723   4.580   5.619   8.082 -0.0494  0.0168  0.0226
  108loPI   C6A 1724   4.441   5.486   7.663  0.2335 -0.0750  0.1596
  108loPI   C1B 1725   5.179   5.195   9.511  0.0151  0.1407 -0.2138
  108loPI   C2B 1726   5.129   5.107   9.137  0.2325 -0.0361 -0.1209
  108loPI   C3B 1727   4.989   5.187   8.774  0.1884 -0.1145  0.1299
  108loPI   C4B 1728   5.033   5.158   8.312  0.2827  0.0876 -0.2835
  109loPI    C1 1729  14.486   8.158   9.665  0.3228 -0.0216  0.1963
  109loPI    C2 1730  14.302   8.125  10.019 -0.0173 -0.0761  0.0188
  109loPI    C3 1731  14.589   8.399   9.968 -0.1483  0.1101  0.2602
  109loPI   PO4 1732  14.453   7.902   9.556 -0.1624 -0.2303 -0.3014
  109loPI   GL1 1733  14.180   7.723   9.190  0.0361 -0.0297  0.2991
  109loPI   GL2 1734  14.407   7.487   9.287 -0.1696  0.2909 -0.1781
  109loPI   C1A 1735  14.074   7.701   8.800  0.0175  0.1087 -0.2014
  109loPI   C2A 1736  14.144   7.659   8.388 -0.0206  0.3620  0.0453
  109loPI   C3A 1737  14.010   7.810   8.071  0.0450  0.1301 -0.2690
  109loPI   C4A 1738  14.036   7.970   7.671 -0.1278 -0.0134  0.0521
  109loPI   C5A 1739  14.015   7.887   7.161  0.0382 -0.1527  0.1959
  109loPI   C6A 1740  14.388   7.695   6.900 -0.0946 -0.2959  0.0085
  109loPI   C1B 1741  14.402   7.339   8.883 -0.4425  0.0936  0.1094
  109loPI   C2B 1742  14.472   7.279   8.443 -0.1252  0.4197 -0.3126
  109loPI   C3B 1743  14.374   7.089   7.951  0.1148 -0.2307  0.3457
  109loPI   C4B 1744  14.209   6.906   7.628 -0.7097 -0.0781  0.1423
  110loPI    C1 1745  11.133  11.891  10.629 -0.1883 -0.0164  0.2544
  110loPI    C2 1746  11.313  11.546  10.725 -0.1239 -0.0508  0.0165
  110loPI    C3 1747  11.178  11.789  11.013 -0.1443 -0.2608  0.1862
  110loPI   PO4 1748  11.209  11.914  10.338  0.1210 -0.2627 -0.2230
  110loPI   GL1 1749  11.177  12.195  10.025  0.0437  0.2105 -0.1019
  110loPI   GL2 1750  10.917  12.354   9.915 -0.2597  0.0362 -0.0618
  110loPI   C1A 1751  11.454  12.358   9.785  0.1820 -0.1846  0.0102
  110loPI   C2A 1752  11.523  12.591   9.371 -0.1046  0.0502 -0.1766
  110loPI   C3A 1753  11.262  12.615   9.102  0.1931 -0.2782 -0.1587
  110loPI   C4A 1754  11.186  12.671   8.700 -0.0437 -0.2130  0.1733
  110loPI   C5A 1755  11.165  13.094   8.496 -0.2749  0.0766 -0.0569
  110loPI   C6A 1756  11.315  13.251   8.118 -0.0230  0.2857  0.1725
  110loPI   C1B 1757  10.903  12.451   9.488 -0.0260 -0.1049 -0.1127
  110loPI   C2B 1758  10.797  12.653   9.136  0.1107 -0.0375  0.2303
  110loPI   C3B 1759  10.554  12.626   8.783  0.1315  0.1100  0.1926
  110loPI   C4B 1760  10.396  12.448   8.474  0.2085  0.1935 -0.1948
  111loPI    C1 1761  17.286   0.375  11.054  0.1043 -0.1257 -0.0301
  111loPI    C2 1762  17.467   0.719  11.149  0.0777 -0.1174 -0.0091
  111loPI    C3 1763  17.262   0.518  11.427 -0.0297 -0.0756 -0.0574
  111loPI   PO4 1764  17.107   0.489  10.799 -0.1560 -0.1194  0.0189
  111loPI   GL1 1765  17.042   0.442  10.436 -0.0399 -0.1348 -0.2201
  111loPI   GL2 1766  16.934   0.154  10.390 -0.1840  0.0678 -0.1217
  111loPI   C1A 1767  17.000   0.645  10.030 -0.3950  0.0499  0.0542
  111loPI   C2A 1768  17.026   0.594   9.566 -0.2448  0.2655 -0.1920
  111loPI   C3A 1769  17.148   0.534   9.149 -0.0400  0.2297 -0.2176
  111loPI   C4A 1770  17.151   0.504   8.763 -0.2230  0.0843 -0.1326
  111loPI   C5A 1771  17.092   0.717   8.383  0.3849 -0.1542 -0.0476
  111loPI   C6A 1772  17.071   1.088   8.408  0.0399  0.0466  0.1187
  111loPI   C1B 1773  16.941   0.129  10.015 -0.1534 -0.2316 -0.1393
  111loPI   C2B 1774  16.947   0.062   9.611  0.0322  0.1767 -0.3017
  111loPI   C3B 1775  16.965   0.029   9.215  0.0325  0.0131 -0.0992
  111loPI   C4B 1776  17.073   0.042   8.741  0.1652  0.0085 -0.1406
  112loPI    C1 1777   9.932  16.386  11.085  0.4067 -0.2990 -0.2134
  112loPI    C2 1778  10.230  16.562  11.285  0.1561 -0.0914 -0.0144
  112loPI    C3 1779   9.992  16.300  11.471  0.0407 -0.0437 -0.0938
  112loPI   PO4 1780   9.818  16.543  10.924 -0.1067 -0.1402  0.0608
  112loPI   GL1 1781   9.777  16.484  10.548 -0.0959 -0.2229  0.2554
  112loPI   GL2 1782   9.582  16.762  10.375  0.1281 -0.0058  0.1600
  112loPI   C1A 1783   9.889  16.248  10.163 -0.1206  0.0064  0.0354
  112loPI   C2A 1784  10.056  16.230   9.713 -0.2607 -0.0133  0.2175
  112loPI   C3A 1785  10.078  16.195   9.277  0.0713  0.3854 -0.0133
  112loPI   C4A 1786   9.985  16.250   8.822 -0.3486 -0.0544 -0.1514
  112loPI   C5A 1787  10.001  16.224   8.465  0.0908  0.0275  0.1208
  112loPI   C6A 1788   9.589  16.455   8.285 -0.2506  0.0025 -0.4336
  112loPI   C1B 1789   9.739  16.659   9.953 -0.4915 -0.2241  0.0577
  112loPI   C2B 1790   9.744  16.579   9.603 -0.2581 -0.2164 -0.0083
  112loPI   C3B 1791   9.633  16.583   9.141  0.1479  0.1459 -0.2884
  112loPI   C4B 1792   9.613  16.618   8.733 -0.0999  0.2134  0.1333
  113loPI    C1 1793   6.548  10.067  10.571 -0.3738 -0.1750 -0.1925
  113loPI    C2 1794   6.859   9.818  10.541 -0.1236  0.1291 -0.1729
  113loPI    C3 1795   6.680   9.872  10.894 -0.0652  0.1107 -0.1403
  113loPI   PO4 1796   6.461  10.095  10.239 -0.1544 -0.3344  0.1476
  113loPI   GL1 1797   5.993  10.244   9.986  0.0124 -0.1294  0.2668
  113loPI   GL2 1798   5.759  10.156   9.890 -0.0031 -0.1568  0.0867
  113loPI   C1A 1799   6.292  10.183   9.615  0.1574  0.1760  0.1011
  113loPI   C2A 1800   6.221  10.151   9.154 -0.1978  0.0350  0.2328
  113loPI   C3A 1801   6.170  10.201   8.693  0.0059 -0.3550  0.1951
  113loPI   C4A 1802   6.122  10.194   8.265 -0.1036 -0.2761 -0.0622
  113loPI   C5A 1803   6.086  10.248   7.826 -0.1305  0.0259  0.2858
  113loPI   C6A 1804   5.959  10.014   7.444 -0.1760 -0.0647  0.1408
  113loPI   C1B 1805   5.780  10.032   9.325  0.1408  0.3226  0.2252
  113loPI   C2B 1806   5.750  10.065   8.857  0.0631 -0.1355 -0.1514
  113loPI   C3B 1807   5.686  10.034   8.463  0.2045  0.2175  0.0607
  113loPI   C4B 1808   5.647  10.179   8.047  0.0037  0.0340 -0.0328
  114loPI    C1 1809   3.457  11.751  10.691 -0.0734  0.0096 -0.1273
  114loPI    C2 1810   3.151  11.495  10.670 -0.0777  0.0223 -0.2221
  114loPI    C3 1811   3.167  11.764  10.966  0.0195 -0.2054 -0.0165
  114loPI   PO4 1812   3.486  11.883  10.452  0.0889  0.0771 -0.5509
  114loPI   GL1 1813   3.187  11.828  10.147 -0.1067  0.0191  0.1013
  114loPI   GL2 1814   2.985  11.733  10.219 -0.0752 -0.0135 -0.0374
  114loPI   C1A 1815   3.441  11.858   9.713  0.0406 -0.1473 -0.0509
  114loPI   C2A 1816   3.399  11.920   9.277 -0.3107 -0.2530  0.0152
  114loPI   C3A 1817   3.303  11.873   8.789 -0.1759 -0.2146 -0.1085
  114loPI   C4A 1818   3.281  11.927   8.318 -0.1459 -0.1655 -0.0380
  114loPI   C5A 1819   2.816  11.863   7.982  0.0016  0.1196 -0.0026
  114loPI   C6A 1820   2.393  11.527   7.854 -0.3267 -0.2332  0.1319
  114loPI   C1B 1821   2.986  11.595   9.776 -0.1954 -0.1279 -0.1615
  114loPI   C2B 1822   2.852  11.671   9.372 -0.1761 -0.2467  0.1571
  114loPI   C3B 1823   2.823  11.721   8.908 -0.2684 -0.2577 -0.0228
  114loPI   C4B 1824   2.808  11.733   8.460  0.0759 -0.2116 -0.1078
  115loPI    C1 1825   4.228  14.554  10.944  0.0373  0.0402 -0.2254
  115loPI    C2 1826   4.521  14.500  10.677  0.0737 -0.1519 -0.1484
  115loPI    C3 1827   4.563  14.364  11.051 -0.0495 -0.0401 -0.0930
  115loPI   PO4 1828   4.034  14.520  10.828  0.1020 -0.2214 -0.1496
  115loPI   GL1 1829   4.017  14.548  10.455 -0.0008  0.1336 -0.2207
  115loPI   GL2 1830   4.244  14.414  10.267 -0.0061  0.2451  0.1923
  115loPI   C1A 1831   3.858  14.731  10.136 -0.1541 -0.0097  0.1370
  115loPI   C2A 1832   3.835  14.728   9.692 -0.4533 -0.0453 -0.1873
  115loPI   C3A 1833   3.772  14.748   9.286 -0.1747  0.0784 -0.1466
  115loPI   C4A 1834   3.834  14.807   8.800 -0.1506 -0.2123  0.1403
  115loPI   C5A 1835   3.858  14.774   8.393 -0.1975  0.0904  0.4700
  115loPI   C6A 1836   4.258  14.664   8.147 -0.3509  0.1220  0.0890
  115loPI   C1B 1837   4.105  14.366   9.893 -0.2469  0.0607 -0.0286
  115loPI   C2B 1838   4.122  14.385   9.454 -0.2898 -0.1786  0.0424
  115loPI   C3B 1839   4.180  14.392   8.972 -0.0031 -0.1257 -0.2514
  115loPI   C4B 1840   4.231  14.423   8.588 -0.0156  0.1519 -0.1180
  116loPI    C1 1841  16.613   2.772  11.062  0.0116  0.0577 -0.0588
  116loPI    C2 1842  16.671   2.398  11.193 -0.2467  0.0169 -0.0564
  116loPI    C3 1843  16.653   2.701  11.454  0.0077  0.0386 -0.0618
  116loPI   PO4 1844  16.410   2.782  10.873 -0.1771  0.2078 -0.0424
  116loPI   GL1 1845  16.191   2.560  10.445  0.2426 -0.0077  0.1552
  116loPI   GL2 1846  16.233   2.835  10.359  0.0402 -0.0643  0.2429
  116loPI   C1A 1847  16.496   2.402  10.169 -0.0127 -0.0016  0.0388
  116loPI   C2A 1848  16.546   2.306   9.788  0.0566  0.0842  0.1596
  116loPI   C3A 1849  16.551   2.281   9.363 -0.0669  0.0464  0.1000
  116loPI   C4A 1850  16.627   2.156   8.944  0.1680 -0.1465 -0.5486
  116loPI   C5A 1851  16.701   2.193   8.522 -0.3538  0.1087 -0.1022
  116loPI   C6A 1852  16.963   2.080   8.262  0.0584 -0.1294 -0.2521
  116loPI   C1B 1853  16.221   2.736   9.981 -0.1385  0.1312 -0.0098
  116loPI   C2B 1854  16.233   2.647   9.504  0.0146 -0.1427 -0.1404
  116loPI   C3B 1855  16.258   2.695   9.042  0.0074  0.1705 -0.0125
  116loPI   C4B 1856  16.255   2.572   8.550 -0.0965 -0.0717 -0.0752
  117loPI    C1 1857  11.172   7.956  10.104 -0.2864 -0.1102 -0.0127
  117loPI    C2 1858  11.294   7.663   9.861 -0.1634 -0.0459 -0.0292
  117loPI    C3 1859  11.367   7.641  10.254  0.0462  0.0685 -0.0602
  117loPI   PO4 1860  10.886   8.001  10.048  0.2452  0.2580 -0.1579
  117loPI   GL1 1861  10.699   7.747   9.711  0.3298 -0.0191 -0.3417
  117loPI   GL2 1862  10.950   7.415   9.666 -0.1474 -0.0172  0.1294
  117loPI   C1A 1863  10.712   7.967   9.401 -0.0978  0.3688 -0.2887
  117loPI   C2A 1864  10.775   7.813   8.994 -0.1112  0.1164 -0.1951
  117loPI   C3A 1865  10.720   7.953   8.503  0.1213 -0.3402 -0.0372
  117loPI   C4A 1866  10.811   8.175   8.162 -0.4522 -0.0587 -0.1074
  117loPI   C5A 1867  10.908   8.135   7.688  0.0982 -0.1536 -0.1550
  117loPI   C6A 1868  10.913   8.464   7.438 -0.1184  0.1216 -0.4120
  117loPI   C1B 1869  10.861   7.391   9.239  0.2072  0.1708 -0.3390
  117loPI   C2B 1870  10.897   7.214   8.781 -0.1604  0.0448  0.0327
  117loPI   C3B 1871  11.046   7.093   8.464 -0.0505 -0.3090  0.0704
  117loPI   C4B 1872  11.193   7.304   8.170  0.2945  0.2594 -0.0425
  118loPI    C1 1873   5.009  15.991  11.093  0.3454  0.1009 -0.0087
  118loPI    C2 1874   4.915  15.658  11.294  0.1013  0.1152 -0.0964
  118loPI    C3 1875   5.297  15.768  11.258  0.1904 -0.1945 -0.1288
  118loPI   PO4 1876   4.846  15.910  10.861  0.2151 -0.1345 -0.0812
  118loPI   GL1 1877   4.837  15.643  10.428 -0.2762 -0.1810  0.0746
  118loPI   GL2 1878   4.986  15.355  10.329 -0.0764  0.0350  0.0395
  118loPI   C1A 1879   4.567  15.821  10.063 -0.0303 -0.2003 -0.0815
  118loPI   C2A 1880   4.703  15.753   9.604 -0.0199 -0.0337  0.2584
  118loPI   C3A 1881   4.673  15.760   9.077  0.2380 -0.0416 -0.1743
  118loPI   C4A 1882   4.712  15.810   8.766  0.0629 -0.1418  0.0550
  118loPI   C5A 1883   4.671  15.869   8.350  0.1419 -0.0491  0.0529
  118loPI   C6A 1884   4.739  15.865   7.909  0.1182  0.0131 -0.0691
  118loPI   C1B 1885   5.014  15.403   9.838  0.1129  0.0761  0.2146
  118loPI   C2B 1886   5.021  15.438   9.387 -0.0054  0.0045 -0.1988
  118loPI   C3B 1887   5.053  15.457   8.926  0.3897  0.0381 -0.0880
  118loPI   C4B 1888   5.042  15.397   8.440  0.0771 -0.1054  0.1440
  119loPI    C1 1889   2.480  13.993  10.992 -0.0949  0.1091 -0.0852
  119loPI    C2 1890   2.596  13.791  11.317 -0.2950  0.1106 -0.0113
  119loPI    C3 1891   2.658  14.185  11.295  0.2044  0.0286 -0.2064
  119loPI   PO4 1892   2.412  13.852  10.814 -0.1571 -0.3734 -0.1518
  119loPI   GL1 1893   2.186  13.914  10.453  0.1396  0.1120  0.1940
  119loPI   GL2 1894   2.439  13.553  10.225  0.2099 -0.2341  0.2902
  119loPI   C1A 1895   2.189  13.949   9.955 -0.0241  0.3235 -0.0374
  119loPI   C2A 1896   2.061  13.955   9.568 -0.0039  0.2490 -0.0320
  119loPI   C3A 1897   2.125  13.914   9.159  0.1497  0.1357  0.0984
  119loPI   C4A 1898   2.192  13.901   8.752  0.1562 -0.0651  0.0205
  119loPI   C5A 1899   2.143  13.964   8.276 -0.0370  0.1184 -0.0627
  119loPI   C6A 1900   2.224  14.314   8.108  0.1463 -0.0266  0.1463
  119loPI   C1B 1901   2.459  13.562   9.823  0.0355 -0.0142 -0.0718
  119loPI   C2B 1902   2.412  13.587   9.431 -0.6466 -0.2903 -0.4433
  119loPI   C3B 1903   2.547  13.620   9.005  0.1970  0.2143 -0.2862
  119loPI   C4B 1904   2.520  13.549   8.552 -0.1842  0.3641  0.2233
  120loPI    C1 1905   6.466  14.039  11.083 -0.1181 -0.4684  0.0876
  120loPI    C2 1906   6.798  13.964  10.874 -0.0921 -0.0684 -0.0225
  120loPI    C3 1907   6.761  13.824  11.247  0.2774  0.0327  0.0566
  120loPI   PO4 1908   6.283  13.978  10.855  0.3309 -0.4082  0.1304
  120loPI   GL1 1909   6.330  14.105  10.404 -0.0850 -0.1531  0.1966
  120loPI   GL2 1910   6.672  14.236  10.445 -0.0837 -0.1006  0.0606
  120loPI   C1A 1911   6.133  14.138  10.015 -0.0335  0.2226  0.1502
  120loPI   C2A 1912   6.131  14.322   9.557 -0.0668  0.0089  0.1733
  120loPI   C3A 1913   6.120  14.316   9.148 -0.1234  0.0686 -0.0498
  120loPI   C4A 1914   6.015  14.404   8.724  0.2401 -0.0273 -0.0213
  120loPI   C5A 1915   6.054  14.259   8.263 -0.1054 -0.1092 -0.0955
  120loPI   C6A 1916   5.867  14.136   7.869 -0.0433 -0.5580 -0.4082
  120loPI   C1B 1917   6.661  14.221   9.976 -0.2201  0.1370 -0.0492
  120loPI   C2B 1918   6.623  14.400   9.586 -0.1732 -0.0768  0.1926
  120loPI   C3B 1919   6.672  14.486   9.135 -0.1122 -0.3937 -0.1277
  120loPI   C4B 1920   6.604  14.547   8.700  0.3450 -0.2222 -0.2093
  121loPI    C1 1921  14.319  12.619  11.023  0.3117  0.1241  0.0931
  121loPI    C2 1922  14.382  12.464  11.386 -0.0906  0.0258  0.1266
  121loPI    C3 1923  14.321  12.857  11.345  0.2785  0.0861  0.1216
  121loPI   PO4 1924  14.371  12.471  10.869 -0.1467  0.1206 -0.0972
  121loPI   GL1 1925  14.441  12.481  10.474  0.2561 -0.2340  0.2176
  121loPI   GL2 1926  14.729  12.514  10.252  0.0759  0.2510  0.1025
  121loPI   C1A 1927  14.293  12.444  10.004  0.3219  0.0501  0.1818
  121loPI   C2A 1928  14.178  12.491   9.551  0.2525  0.0748 -0.2064
  121loPI   C3A 1929  14.195  12.470   9.131  0.0445 -0.0168  0.0390
  121loPI   C4A 1930  14.207  12.561   8.631  0.0099  0.2462 -0.1006
  121loPI   C5A 1931  14.258  12.440   8.206  0.0109  0.0196  0.0431
  121loPI   C6A 1932  14.405  12.020   8.043 -0.0319 -0.0383  0.3025
  121loPI   C1B 1933  14.731  12.506   9.709  0.0806 -0.1495 -0.1811
  121loPI   C2B 1934  14.663  12.511   9.316 -0.4639  0.0185 -0.0384
  121loPI   C3B 1935  14.675  12.677   8.851 -0.3738 -0.1454 -0.3638
  121loPI   C4B 1936  14.701  12.632   8.388 -0.0747  0.1461  0.0901
  122loPI    C1 1937   0.090  12.417  11.008  0.1429 -0.0123  0.0305
  122loPI    C2 1938  -0.285  12.291  11.062  0.0731  0.0244 -0.3431
  122loPI    C3 1939   0.009  12.146  11.291 -0.1406 -0.1382 -0.1671
  122loPI   PO4 1940   0.129  12.382  10.743  0.2182  0.0537  0.1248
  122loPI   GL1 1941   0.070  12.585  10.466  0.1625  0.0637  0.4485
  122loPI   GL2 1942   0.334  12.612  10.282 -0.0607 -0.0260 -0.1216
  122loPI   C1A 1943  -0.073  12.396  10.064  0.0518  0.1887 -0.0808
  122loPI   C2A 1944  -0.086  12.463   9.631  0.0124 -0.1850  0.0137
  122loPI   C3A 1945  -0.233  12.358   9.223  0.2505 -0.1801 -0.0336
  122loPI   C4A 1946  -0.287  12.468   8.865  0.0538  0.0701 -0.1054
  122loPI   C5A 1947  -0.213  12.295   8.524  0.0210  0.0838  0.1952
  122loPI   C6A 1948   0.160  12.102   8.249 -0.1879 -0.0482  0.0526
  122loPI   C1B 1949   0.393  12.621   9.824 -0.0898  0.0632  0.1633
  122loPI   C2B 1950   0.394  12.620   9.409  0.0258  0.2621 -0.0315
  122loPI   C3B 1951   0.239  12.453   9.043  0.0081 -0.1505  0.1218
  122loPI   C4B 1952   0.291  12.553   8.673 -0.1607 -0.1554  0.0389
  123loPI    C1 1953  17.826  13.196  10.886  0.2173 -0.0668  0.0066
  123loPI    C2 1954  17.695  13.537  11.049 -0.0720 -0.1350 -0.0776
  123loPI    C3 1955  17.722  13.206  11.272  0.1821 -0.0662 -0.0028
  123loPI   PO4 1956  17.718  13.182  10.692  0.1065  0.0004 -0.0287
  123loPI   GL1 1957  17.900  13.217  10.295 -0.0194  0.0572  0.1002
  123loPI   GL2 1958  18.073  13.012  10.357  0.1624 -0.0510  0.0278
  123loPI   C1A 1959  17.804  13.325   9.888 -0.1871  0.0782  0.2412
  123loPI   C2A 1960  17.802  13.349   9.541 -0.2668 -0.1017  0.0027
  123loPI   C3A 1961  17.889  13.278   9.124  0.0819  0.0482  0.1817
  123loPI   C4A 1962  17.826  13.330   8.735  0.2884 -0.0062  0.0164
  123loPI   C5A 1963  17.878  13.330   8.291 -0.0276 -0.2810 -0.1132
  123loPI   C6A 1964  17.706  13.045   8.047  0.3300 -0.3692  0.1215
  123loPI   C1B 1965  18.180  12.948   9.901 -0.1474  0.1073  0.0740
  123loPI   C2B 1966  18.226  13.031   9.508 -0.0919 -0.1144 -0.1048
  123loPI   C3B 1967  18.131  12.846   9.104  0.2345  0.1457  0.1678
  123loPI   C4B 1968  18.160  13.003   8.698 -0.1733 -0.0845 -0.0876
  124loPI    C1 1969  16.845  13.009  11.280  0.1077 -0.1535  0.0002
  124loPI    C2 1970  17.198  13.150  11.404  0.0511 -0.1380  0.1456
  124loPI    C3 1971  17.109  12.763  11.454  0.0199 -0.1273  0.1722
  124loPI   PO4 1972  16.816  13.169  11.066  0.0717 -0.3875  0.0381
  124loPI   GL1 1973  16.834  13.111  10.589 -0.1841 -0.1100 -0.0501
  124loPI   GL2 1974  16.987  13.419  10.506 -0.2070  0.1041  0.0363
  124loPI   C1A 1975  16.762  12.920  10.208 -0.2232 -0.1157  0.1894
  124loPI   C2A 1976  16.681  12.982   9.811  0.1605  0.0399 -0.0469
  124loPI   C3A 1977  16.813  13.033   9.446 -0.0557  0.2013 -0.2489
  124loPI   C4A 1978  16.853  13.169   9.035 -0.0939 -0.1158 -0.3589
  124loPI   C5A 1979  17.068  13.279   8.633  0.0848 -0.0967  0.1413
  124loPI   C6A 1980  17.383  13.156   8.442 -0.2964  0.0267  0.0648
  124loPI   C1B 1981  16.976  13.483  10.167  0.1680 -0.0639  0.1819
  124loPI   C2B 1982  16.970  13.544   9.827 -0.0354 -0.0427 -0.0442
  124loPI   C3B 1983  16.967  13.533   9.447  0.3996  0.0930  0.0961
  124loPI   C4B 1984  16.969  13.635   8.975 -0.0978 -0.0088 -0.0021
  125loPI    C1 1985   9.211  10.221  10.260  0.2200  0.0493 -0.2256
  125loPI    C2 1986   9.349  10.482  10.529  0.1058  0.0766 -0.1928
  125loPI    C3 1987   8.956  10.451  10.465  0.1216 -0.0587 -0.2260
  125loPI   PO4 1988   9.268  10.250  10.078  0.0216  0.0751  0.1390
  125loPI   GL1 1989   9.313  10.403   9.622  0.0274 -0.0005  0.0602
  125loPI   GL2 1990   9.037  10.228   9.506  0.2459  0.0740 -0.0941
  125loPI   C1A 1991   9.122  10.584   9.168 -0.3017 -0.0429  0.0425
  125loPI   C2A 1992   9.049  10.733   8.628 -0.3055  0.3005  0.1694
  125loPI   C3A 1993   8.975  10.933   8.332 -0.3200  0.2151  0.1842
  125loPI   C4A 1994   8.789  10.773   8.055  0.2217 -0.2471 -0.0654
  125loPI   C5A 1995   8.659  10.681   7.629 -0.0265 -0.0698  0.1794
  125loPI   C6A 1996   8.478  10.398   7.329 -0.0061 -0.1767  0.0014
  125loPI   C1B 1997   9.297  10.108   9.165  0.1206 -0.2178  0.0246
  125loPI   C2B 1998   9.271  10.223   8.757 -0.1214 -0.0587 -0.2391
  125loPI   C3B 1999   9.170  10.309   8.341  0.0121 -0.1364  0.2149
  125loPI   C4B 2000   9.269  10.075   7.941 -0.1903  0.0321 -0.1141
  126loPI    C1 2001  14.537  15.165  11.614  0.1059 -0.0921  0.1578
  126loPI    C2 2002  14.318  15.487  11.522  0.2689  0.0574  0.2859
  126loPI    C3 2003  14.161  15.196  11.747  0.1126  0.0344  0.1488
  126loPI   PO4 2004  14.684  15.178  11.351  0.1649  0.1694  0.1347
  126loPI   GL1 2005  14.513  15.224  10.937 -0.2567 -0.0490  0.1400
  126loPI   GL2 2006  14.669  15.321  10.711  0.3878 -0.3879 -0.1081
  126loPI   C1A 2007  14.429  14.855  10.570  0.1494 -0.0386  0.2562
  126loPI   C2A 2008  14.488  14.649  10.175  0.4278  0.0947  0.1253
  126loPI   C3A 2009  14.484  14.716   9.820  0.1129 -0.1782  0.1435
  126loPI   C4A 2010  14.528  14.757   9.286  0.2081 -0.1029  0.3589
  126loPI   C5A 2011  14.484  14.748   8.866  0.1903  0.1626 -0.1770
  126loPI   C6A 2012  14.367  14.557   8.453 -0.0682  0.1808  0.2487
  126loPI   C1B 2013  14.546  15.296  10.256 -0.1378  0.0089 -0.0088
  126loPI   C2B 2014  14.638  15.309   9.810  0.1020  0.1125  0.0861
  126loPI   C3B 2015  14.660  15.258   9.412 -0.0291 -0.0874  0.1148
  126loPI   C4B 2016  14.599  15.218   8.956  0.0663  0.2068  0.2099
  127loPI    C1 2017   1.660   5.993  10.553 -0.2686 -0.1295  0.0746
  127loPI    C2 2018   1.552   6.200  10.229 -0.1768 -0.0609  0.0876
  127loPI    C3 2019   1.411   6.304  10.589  0.0191  0.0997  0.1202
  127loPI   PO4 2020   1.767   5.727  10.491  0.0864  0.2271  0.1566
  127loPI   GL1 2021   1.597   5.483  10.238 -0.0302  0.2623  0.1736
  127loPI   GL2 2022   1.561   5.694  10.023 -0.0429  0.0404 -0.1407
  127loPI   C1A 2023   1.428   5.213   9.909  0.0824  0.2300  0.0836
  127loPI   C2A 2024   1.335   5.143   9.494  0.0805 -0.1370  0.2166
  127loPI   C3A 2025   1.259   5.113   9.148  0.0051 -0.2661  0.3540
  127loPI   C4A 2026   1.338   5.298   8.750  0.1671  0.1589  0.0157
  127loPI   C5A 2027   1.310   5.190   8.260  0.0864  0.0537  0.0443
  127loPI   C6A 2028   1.304   4.879   7.971 -0.2227  0.1423  0.0089
  127loPI   C1B 2029   1.531   6.042   9.781 -0.4330  0.1608 -0.0220
  127loPI   C2B 2030   1.524   5.956   9.384 -0.0615 -0.0242 -0.0331
  127loPI   C3B 2031   1.517   5.825   8.919  0.1711 -0.1257 -0.2385
  127loPI   C4B 2032   1.387   5.694   8.463 -0.4305 -0.0274 -0.2619
  128loPI    C1 2033   2.277   3.595  11.065  0.2680 -0.0503  0.2688
  128loPI    C2 2034   2.376   3.259  11.259  0.0148 -0.0912  0.3302
  128loPI    C3 2035   1.991   3.345  11.191  0.0982 -0.0937 -0.1831
  128loPI   PO4 2036   2.344   3.644  10.876  0.0385  0.2800 -0.0421
  128loPI   GL1 2037   2.290   3.584  10.440  0.1717 -0.1230  0.3324
  128loPI   GL2 2038   2.517   3.350  10.387 -0.0341 -0.0679  0.2583
  128loPI   C1A 2039   2.281   3.594   9.951  0.1653  0.1527  0.2566
  128loPI   C2A 2040   2.316   3.668   9.519  0.0910 -0.0663 -0.1441
  128loPI   C3A 2041   2.222   3.633   9.077 -0.3096 -0.0640  0.1092
  128loPI   C4A 2042   2.259   3.635   8.653  0.0179 -0.0636 -0.0307
  128loPI   C5A 2043   2.280   3.523   8.336 -0.2148 -0.0132 -0.2527
  128loPI   C6A 2044   2.400   3.170   8.188  0.3019 -0.2113  0.2414
  128loPI   C1B 2045   2.702   3.205  10.003  0.0316  0.2242  0.2120
  128loPI   C2B 2046   2.582   3.185   9.586 -0.0650 -0.0633  0.2423
  128loPI   C3B 2047   2.514   3.186   9.106 -0.1340 -0.0048  0.0951
  128loPI   C4B 2048   2.624   3.177   8.646  0.0092  0.1208 -0.2436
  129loPI    C1 2049  10.365   0.619  11.044 -0.0111 -0.1010  0.1099
  129loPI    C2 2050  10.086   0.473  10.797  0.0882 -0.1020 -0.0028
  129loPI    C3 2051   9.982   0.725  11.090 -0.0329 -0.1157 -0.0334
  129loPI   PO4 2052  10.532   0.696  10.890 -0.1071 -0.2560  0.0397
  129loPI   GL1 2053  10.411   0.634  10.457 -0.0273 -0.3597 -0.0218
  129loPI   GL2 2054  10.747   0.717  10.462  0.0778  0.3735  0.1323
  129loPI   C1A 2055  10.329   0.605  10.012 -0.0312 -0.0661 -0.0947
  129loPI   C2A 2056  10.359   0.335   9.591  0.2434  0.1323  0.1308
  129loPI   C3A 2057  10.393   0.330   9.231 -0.0554 -0.3740 -0.3282
  129loPI   C4A 2058  10.482   0.360   8.814 -0.0162 -0.4019  0.1164
  129loPI   C5A 2059  10.557   0.528   8.388  0.0197 -0.0888 -0.0061
  129loPI   C6A 2060  10.677   0.521   7.978  0.3389  0.1550 -0.2057
  129loPI   C1B 2061  10.832   0.624  10.026  0.2159  0.1380  0.1881
  129loPI   C2B 2062  10.937   0.614   9.535  0.3024 -0.0987  0.2415
  129loPI   C3B 2063  10.884   0.392   9.200 -0.0610  0.0573  0.0363
  129loPI   C4B 2064  10.927   0.289   8.693 -0.2826 -0.1702  0.1271
  130loPI    C1 2065  11.699   2.588  11.313  0.2427  0.0513 -0.1145
  130loPI    C2 2066  11.867   2.554  11.674 -0.0255  0.1864  0.0263
  130loPI    C3 2067  11.737   2.228  11.483 -0.0114  0.1288  0.1146
  130loPI   PO4 2068  11.884   2.758  11.190 -0.0662  0.0565 -0.0367
  130loPI   GL1 2069  12.016   2.609  10.809  0.4794  0.0868  0.0572
  130loPI   GL2 2070  11.737   2.608  10.611  0.1458  0.3126 -0.1146
  130loPI   C1A 2071  12.142   2.510  10.397 -0.1595  0.0254 -0.0537
  130loPI   C2A 2072  12.265   2.258   9.965 -0.2384  0.1117 -0.0648
  130loPI   C3A 2073  12.271   2.250   9.562 -0.1045 -0.0529 -0.0126
  130loPI   C4A 2074  12.329   2.214   9.157 -0.0846 -0.4401  0.0800
  130loPI   C5A 2075  12.327   2.161   8.743 -0.1340 -0.0093  0.1095
  130loPI   C6A 2076  12.647   1.994   8.511  0.1356  0.0187 -0.0153
  130loPI   C1B 2077  11.683   2.352  10.240  0.0143  0.2072  0.1103
  130loPI   C2B 2078  11.751   2.125   9.848 -0.1492 -0.1310 -0.3739
  130loPI   C3B 2079  11.740   2.104   9.459 -0.0917  0.0669  0.1098
  130loPI   C4B 2080  11.737   2.109   8.986  0.0279 -0.1634 -0.0068
  131loPI    C1 2081  10.486  10.577  10.080 -0.0626  0.1232  0.1004
  131loPI    C2 2082  10.095  10.502  10.119 -0.0681  0.1386  0.0731
  131loPI    C3 2083  10.280  10.738  10.383 -0.1052  0.2376  0.0110
  131loPI   PO4 2084  10.473  10.490   9.799  0.0405  0.1392  0.0369
  131loPI   GL1 2085  10.783  10.612   9.483  0.3089  0.1737  0.1358
  131loPI   GL2 2086  11.065  10.742   9.291  0.1524 -0.0454 -0.0993
  131loPI   C1A 2087  10.765  10.379   9.048 -0.1963  0.1403 -0.1330
  131loPI   C2A 2088  10.794  10.298   8.622  0.2212 -0.1632  0.3644
  131loPI   C3A 2089  10.523  10.412   8.275 -0.0680 -0.0001 -0.3190
  131loPI   C4A 2090  10.437  10.445   7.891  0.0819  0.0840 -0.1231
  131loPI   C5A 2091  10.173  10.570   7.565 -0.0050  0.2460  0.1604
  131loPI   C6A 2092   9.731  10.796   7.490  0.1587  0.0648  0.1096
  131loPI   C1B 2093  10.949  10.791   8.871  0.2316  0.2533 -0.2991
  131loPI   C2B 2094  11.020  10.834   8.454 -0.2592 -0.1332 -0.0208
  131loPI   C3B 2095  10.952  10.750   7.956 -0.0267  0.1725 -0.1055
  131loPI   C4B 2096  10.991  10.405   7.753 -0.0019  0.0190 -0.0774
  132loPI    C1 2097   7.739  11.100  10.666  0.1496 -0.0609  0.0733
  132loPI    C2 2098   7.456  10.969  10.917  0.1895 -0.0414  0.1286
  132loPI    C3 2099   7.608  11.336  10.962 -0.0169  0.0761 -0.1068
  132loPI   PO4 2100   7.581  10.920  10.357 -0.2193  0.1199  0.0778
  132loPI   GL1 2101   7.677  11.003   9.889 -0.1612 -0.1117 -0.2259
  132loPI   GL2 2102   7.888  11.098   9.781  0.0584 -0.1536 -0.1959
  132loPI   C1A 2103   7.492  10.791   9.674  0.1718  0.1967 -0.0251
  132loPI   C2A 2104   7.464  10.761   9.256  0.0887  0.0098 -0.0754
  132loPI   C3A 2105   7.398  10.816   8.879  0.1995 -0.0859  0.0131
  132loPI   C4A 2106   7.335  10.916   8.434  0.2134 -0.1765  0.3736
  132loPI   C5A 2107   7.684  11.046   8.010 -0.0622  0.1390  0.0356
  132loPI   C6A 2108   7.777  11.240   7.627 -0.2151  0.1884  0.3682
  132loPI   C1B 2109   7.895  11.004   9.401  0.3698 -0.0698  0.2298
  132loPI   C2B 2110   7.846  11.110   8.995  0.0594  0.0442 -0.0793
  132loPI   C3B 2111   7.928  11.123   8.469  0.2266  0.0023 -0.0236
  132loPI   C4B 2112   8.085  11.319   8.078 -0.0699 -0.2229  0.2623
  133loPI    C1 2113  13.081  17.567  11.335  0.0479  0.2654 -0.0758
  133loPI    C2 2114  13.192  17.945  11.268  0.1412  0.2412 -0.0599
  133loPI    C3 2115  13.158  17.810  11.643 -0.1648  0.3132 -0.0588
  133loPI   PO4 2116  13.034  17.508  11.045  0.1103 -0.1003  0.0815
  133loPI   GL1 2117  12.990  17.498  10.581 -0.3618  0.3239 -0.3316
  133loPI   GL2 2118  13.020  17.223  10.454  0.0459  0.2151  0.2150
  133loPI   C1A 2119  12.789  17.632  10.324  0.0664  0.0471 -0.3449
  133loPI   C2A 2120  12.786  17.703   9.863 -0.0280 -0.0060  0.1490
  133loPI   C3A 2121  12.901  17.716   9.469  0.2392 -0.1482  0.1836
  133loPI   C4A 2122  12.903  17.641   9.102 -0.0957  0.2183  0.0828
  133loPI   C5A 2123  12.926  17.831   8.689 -0.1643  0.1559  0.2336
  133loPI   C6A 2124  12.710  17.892   8.329 -0.3428 -0.3677  0.1640
  133loPI   C1B 2125  13.127  17.289  10.070  0.1425 -0.1290 -0.2431
  133loPI   C2B 2126  13.189  17.367   9.682 -0.0235  0.0462 -0.0611
  133loPI   C3B 2127  13.267  17.341   9.303  0.1052  0.3282 -0.0258
  133loPI   C4B 2128  13.335  17.390   8.910  0.1227  0.0534 -0.3300
  134loPI    C1 2129  15.466  17.632  11.283 -0.0464 -0.0648  0.2418
  134loPI    C2 2130  15.743  17.400  11.112  0.0341  0.0811  0.1729
  134loPI    C3 2131  15.557  17.277  11.444  0.1001 -0.0670  0.1557
  134loPI   PO4 2132  15.347  17.697  11.046 -0.0834 -0.0388  0.2058
  134loPI   GL1 2133  15.516  17.858  10.636  0.0090 -0.1658 -0.0195
  134loPI   GL2 2134  15.570  18.190  10.549  0.1432 -0.0671 -0.1193
  134loPI   C1A 2135  15.400  17.820  10.169  0.0445 -0.2513 -0.1052
  134loPI   C2A 2136  15.339  17.809   9.722  0.4051 -0.0187  0.1877
  134loPI   C3A 2137  15.449  17.852   9.253 -0.4977 -0.0328  0.0718
  134loPI   C4A 2138  15.256  17.921   8.836  0.3945 -0.0024  0.1409
  134loPI   C5A 2139  15.333  18.168   8.461  0.0544 -0.1839 -0.0590
  134loPI   C6A 2140  14.965  18.072   8.176  0.3803 -0.0004  0.1875
  134loPI   C1B 2141  15.491  18.344  10.159  0.1630  0.0158  0.3553
  134loPI   C2B 2142  15.446  18.330   9.735 -0.1326  0.2179 -0.1902
  134loPI   C3B 2143  15.527  18.344   9.333 -0.4110  0.0603  0.5084
  134loPI   C4B 2144  15.550  18.370   8.903  0.1900  0.2017 -0.0239
  135loPI    C1 2145   3.647   2.061  11.171 -0.2996 -0.0362  0.0412
  135loPI    C2 2146   3.669   2.248  11.524  0.0041 -0.0389  0.0263
  135loPI    C3 2147   3.771   1.863  11.496 -0.2859 -0.1153 -0.0122
  135loPI   PO4 2148   3.437   2.125  11.042 -0.2333 -0.2799  0.2189
  135loPI   GL1 2149   3.321   2.209  10.610  0.1994 -0.1328 -0.0438
  135loPI   GL2 2150   3.097   2.040  10.626 -0.2362 -0.1669  0.1080
  135loPI   C1A 2151   3.365   2.502  10.198  0.2339  0.2204  0.2627
  135loPI   C2A 2152   3.340   2.557   9.757  0.0356 -0.2435 -0.2579
  135loPI   C3A 2153   3.357   2.578   9.340  0.0510  0.0672  0.0158
  135loPI   C4A 2154   3.307   2.462   8.921  0.1637 -0.1598 -0.4133
  135loPI   C5A 2155   3.366   2.317   8.477  0.0813 -0.0535  0.0454
  135loPI   C6A 2156   3.163   2.024   8.291  0.0115  0.0633  0.0891
  135loPI   C1B 2157   3.151   1.909  10.280 -0.0238  0.1689  0.0761
  135loPI   C2B 2158   3.112   1.923   9.753  0.2572 -0.1714  0.0616
  135loPI   C3B 2159   3.117   1.931   9.254  0.2338  0.0754 -0.0218
  135loPI   C4B 2160   3.221   1.962   8.822 -0.0928  0.0282 -0.1009
  136loPI    C1 2161   7.475   9.732  10.088 -0.0202  0.2886 -0.0594
  136loPI    C2 2162   7.336   9.623  10.447  0.0595  0.1694 -0.0642
  136loPI    C3 2163   7.675   9.464  10.307 -0.0183  0.1485 -0.2309
  136loPI   PO4 2164   7.457   9.984  10.074 -0.2085 -0.3045 -0.4537
  136loPI   GL1 2165   7.538  10.226   9.776  0.3374  0.3196 -0.2368
  136loPI   GL2 2166   7.654   9.834   9.631  0.3345  0.0615 -0.1707
  136loPI   C1A 2167   7.310  10.351   9.420  0.0362  0.1533 -0.2247
  136loPI   C2A 2168   7.307  10.361   9.014 -0.0792  0.0715 -0.0577
  136loPI   C3A 2169   7.205  10.445   8.634 -0.3856 -0.0725 -0.0902
  136loPI   C4A 2170   7.178  10.429   8.299  0.2453 -0.2137  0.4710
  136loPI   C5A 2171   7.227  10.802   7.929  0.0278  0.1345 -0.0028
  136loPI   C6A 2172   7.353  10.840   7.520  0.0681 -0.1417  0.2192
  136loPI   C1B 2173   7.650  10.036   9.170  0.0036  0.1992 -0.4210
  136loPI   C2B 2174   7.641  10.021   8.816  0.2601 -0.0486  0.2964
  136loPI   C3B 2175   7.518  10.084   8.450 -0.0314 -0.1777 -0.2042
  136loPI   C4B 2176   7.555  10.095   8.027  0.1457  0.0451  0.2002
  137loPI    C1 2177   8.759  13.559  10.674 -0.1967  0.1368 -0.0354
  137loPI    C2 2178   8.532  13.612  11.000 -0.1291  0.0639  0.0239
  137loPI    C3 2179   8.622  13.242  10.876 -0.1160  0.0918 -0.0509
  137loPI   PO4 2180   8.669  13.825  10.553  0.2604 -0.2157 -0.3561
  137loPI   GL1 2181   8.827  13.921  10.124  0.0577 -0.1206 -0.1147
  137loPI   GL2 2182   9.129  13.848  10.003 -0.1254  0.0839  0.1237
  137loPI   C1A 2183   8.593  13.760   9.809 -0.2220 -0.0228 -0.1248
  137loPI   C2A 2184   8.535  13.957   9.447  0.0366 -0.1194  0.1150
  137loPI   C3A 2185   8.410  13.918   9.049 -0.3112 -0.2791  0.0476
  137loPI   C4A 2186   8.342  13.970   8.625  0.1620 -0.0545 -0.0607
  137loPI   C5A 2187   8.360  14.072   8.257  0.0735 -0.0398  0.1164
  137loPI   C6A 2188   8.530  14.017   7.980 -0.1464 -0.0587 -0.1524
  137loPI   C1B 2189   9.042  13.946   9.551 -0.0137 -0.0162 -0.1725
  137loPI   C2B 2190   8.961  14.102   9.185  0.2659 -0.2420  0.0845
  137loPI   C3B 2191   8.851  14.012   8.762 -0.0354 -0.0788 -0.1896
  137loPI   C4B 2192   8.871  14.194   8.386  0.1618  0.1286 -0.1144
  138loPI    C1 2193   4.614   9.626  10.127  0.2939  0.0374  0.1285
  138loPI    C2 2194   4.684   9.781  10.489 -0.2275  0.1804  0.1761
  138loPI    C3 2195   4.616   9.389  10.449  0.2257  0.0964  0.1727
  138loPI   PO4 2196   4.828   9.741   9.988  0.3023 -0.1905 -0.2033
  138loPI   GL1 2197   4.985   9.899   9.583  0.1074 -0.3403  0.1629
  138loPI   GL2 2198   5.312   9.828   9.497 -0.0505  0.1325  0.1840
  138loPI   C1A 2199   4.898  10.145   9.276  0.0784 -0.2568  0.1690
  138loPI   C2A 2200   4.940  10.271   8.871  0.1332  0.0136  0.2937
  138loPI   C3A 2201   4.744  10.370   8.603  0.0936  0.0675 -0.0597
  138loPI   C4A 2202   4.709  10.283   8.153 -0.0055  0.1038 -0.1248
  138loPI   C5A 2203   4.511  10.116   7.729  0.2495  0.5387  0.0197
  138loPI   C6A 2204   4.563  10.081   7.238  0.0849  0.3598 -0.0287
  138loPI   C1B 2205   5.228   9.843   9.101 -0.1024  0.0454 -0.2076
  138loPI   C2B 2206   5.260   9.907   8.665 -0.2683  0.1106  0.0319
  138loPI   C3B 2207   5.102  10.027   8.264  0.1077  0.2100 -0.0895
  138loPI   C4B 2208   5.048  10.018   7.855 -0.2578 -0.1134 -0.1675
  139loPI    C1 2209   4.887  13.993  10.933 -0.1293  0.0743  0.0097
  139loPI    C2 2210   5.162  14.222  11.112  0.0649 -0.1540  0.0087
  139loPI    C3 2211   4.873  14.051  11.329  0.1666 -0.2469  0.0715
  139loPI   PO4 2212   4.825  14.076  10.731  0.2308 -0.1883  0.2005
  139loPI   GL1 2213   4.976  14.115  10.339  0.0417 -0.2533  0.1895
  139loPI   GL2 2214   4.837  14.419  10.259 -0.0322 -0.4630 -0.4388
  139loPI   C1A 2215   5.021  14.081   9.891 -0.0804  0.1800 -0.4076
  139loPI   C2A 2216   4.968  14.064   9.385 -0.2791  0.1797 -0.0321
  139loPI   C3A 2217   5.144  14.114   9.055  0.0861  0.0518  0.1382
  139loPI   C4A 2218   5.078  14.100   8.649 -0.3537  0.0677 -0.1134
  139loPI   C5A 2219   4.738  14.082   8.339  0.1220 -0.3664 -0.2411
  139loPI   C6A 2220   4.412  13.896   8.373  0.0767  0.2348 -0.1741
  139loPI   C1B 2221   4.637  14.424   9.906 -0.2109 -0.1496  0.4501
  139loPI   C2B 2222   4.698  14.495   9.435  0.1709 -0.1735  0.1567
  139loPI   C3B 2223   4.766  14.399   9.051  0.2073  0.0176  0.3183
  139loPI   C4B 2224   4.690  14.528   8.667 -0.1153  0.0528  0.2686
  140loPI    C1 2225   8.512   3.989  10.933  0.0405 -0.3577 -0.0912
  140loPI    C2 2226   8.698   3.651  11.039  0.0267 -0.3184  0.0612
  140loPI    C3 2227   8.800   3.997  11.211 -0.1315 -0.2840  0.0873
  140loPI   PO4 2228   8.592   4.031  10.731  0.0279  0.1523 -0.0684
  140loPI   GL1 2229   8.700   4.016  10.366  0.0626 -0.2067  0.1170
  140loPI   GL2 2230   8.620   4.276  10.151  0.4356  0.1705  0.2778
  140loPI   C1A 2231   8.446   3.780  10.074 -0.2559  0.2605 -0.1306
  140loPI   C2A 2232   8.399   3.640   9.635 -0.0349  0.0530 -0.2743
  140loPI   C3A 2233   8.525   3.655   9.207 -0.0493  0.0568  0.0394
  140loPI   C4A 2234   8.462   3.658   8.727  0.0408 -0.0164 -0.1449
  140loPI   C5A 2235   8.366   3.720   8.305 -0.0603  0.0121 -0.0469
  140loPI   C6A 2236   8.122   3.646   7.938 -0.0044 -0.1511 -0.2184
  140loPI   C1B 2237   8.518   4.279   9.809 -0.1375 -0.1197 -0.2825
  140loPI   C2B 2238   8.640   4.185   9.407  0.3021  0.1293  0.1063
  140loPI   C3B 2239   8.559   4.167   8.984 -0.1990  0.0202 -0.1778
  140loPI   C4B 2240   8.585   4.074   8.535 -0.1270 -0.0376  0.4216
  141loPI    C1 2241   1.336  16.000  11.318  0.1468 -0.0687  0.1595
  141loPI    C2 2242   1.191  16.341  11.469 -0.0250 -0.0532 -0.0354
  141loPI    C3 2243   1.105  15.992  11.645  0.0254 -0.0100  0.0759
  141loPI   PO4 2244   1.290  16.019  11.098 -0.0419 -0.0869 -0.0314
  141loPI   GL1 2245   1.291  16.055  10.643 -0.1137 -0.0407 -0.2004
  141loPI   GL2 2246   1.072  15.915  10.528  0.3669  0.1616 -0.1282
  141loPI   C1A 2247   1.445  16.058  10.221 -0.0926 -0.0787  0.0538
  141loPI   C2A 2248   1.365  15.979   9.811 -0.0660 -0.2595  0.0056
  141loPI   C3A 2249   1.350  15.962   9.410  0.4215  0.1241 -0.1819
  141loPI   C4A 2250   1.473  16.022   8.980  0.0281 -0.4625  0.2081
  141loPI   C5A 2251   1.465  16.013   8.457 -0.1759 -0.1337  0.0154
  141loPI   C6A 2252   1.835  15.969   8.149  0.0740  0.0349  0.1879
  141loPI   C1B 2253   0.945  15.929  10.086  0.0468 -0.0261  0.1199
  141loPI   C2B 2254   0.904  15.844   9.651  0.2896  0.2744 -0.2370
  141loPI   C3B 2255   0.939  15.830   9.251 -0.0742 -0.1906 -0.0871
  141loPI   C4B 2256   0.993  15.908   8.813 -0.0483 -0.3559  0.4399
  142loPI    C1 2257   0.142  16.149  11.330 -0.0450  0.0850  0.1262
  142loPI    C2 2258   0.490  16.072  11.511 -0.1237  0.1253  0.2968
  142loPI    C3 2259   0.153  15.906  11.648 -0.1702  0.0752  0.1235
  142loPI   PO4 2260   0.182  16.204  11.063  0.0529  0.0594  0.3819
  142loPI   GL1 2261   0.216  16.095  10.597 -0.1345  0.1457  0.0130
  142loPI   GL2 2262  -0.034  15.823  10.685  0.1672 -0.0715 -0.0368
  142loPI   C1A 2263   0.043  16.226  10.172  0.1305 -0.0851 -0.2677
  142loPI   C2A 2264  -0.024  16.134   9.861  0.0536  0.0737  0.0882
  142loPI   C3A 2265   0.039  16.145   9.430 -0.0640  0.1547 -0.0104
  142loPI   C4A 2266   0.103  16.139   9.041 -0.4031  0.0286 -0.1035
  142loPI   C5A 2267   0.091  15.912   8.715  0.0300  0.3835 -0.2030
  142loPI   C6A 2268  -0.007  16.000   8.312  0.1071 -0.0716 -0.0010
  142loPI   C1B 2269  -0.060  15.722  10.312 -0.2695 -0.3728 -0.0961
  142loPI   C2B 2270  -0.071  15.522   9.976 -0.0993 -0.2063 -0.0016
  142loPI   C3B 2271  -0.078  15.684   9.544 -0.2593  0.0246 -0.0767
  142loPI   C4B 2272  -0.106  15.643   9.108  0.0080 -0.1634 -0.0000
  143loPI    C1 2273   0.404   8.628  10.447 -0.1588  0.1177  0.2154
  143loPI    C2 2274   0.475   8.549  10.833 -0.1073  0.2517  0.2338
  143loPI    C3 2275   0.525   8.920  10.692 -0.0425  0.1852  0.0789
  143loPI   PO4 2276   0.303   8.484  10.246  0.1223  0.2025 -0.3359
  143loPI   GL1 2277   0.484   8.475   9.880  0.3181  0.1837 -0.0784
  143loPI   GL2 2278   0.528   8.230   9.617  0.0885  0.2280 -0.0919
  143loPI   C1A 2279   0.423   8.744   9.654 -0.0176  0.0176 -0.1828
  143loPI   C2A 2280   0.091   8.679   9.461 -0.0157 -0.4436  0.0786
  143loPI   C3A 2281  -0.001   8.699   9.020 -0.0631 -0.1114 -0.1420
  143loPI   C4A 2282  -0.040   8.640   8.568  0.0255 -0.0817  0.2320
  143loPI   C5A 2283   0.084   8.768   8.227  0.2578  0.2705  0.3847
  143loPI   C6A 2284   0.020   9.115   7.941 -0.1089 -0.3242  0.0002
  143loPI   C1B 2285   0.371   8.343   9.199  0.1820  0.0753  0.2467
  143loPI   C2B 2286   0.293   8.317   8.813 -0.3425 -0.0066 -0.0485
  143loPI   C3B 2287   0.446   8.414   8.347  0.1641  0.0288 -0.2556
  143loPI   C4B 2288   0.753   8.533   7.949 -0.0603  0.3802  0.0640
  144loPI    C1 2289  14.281   0.632  10.850  0.0435 -0.0094 -0.1235
  144loPI    C2 2290  14.431   0.870  11.134  0.0322  0.1519 -0.2507
  144loPI    C3 2291  14.044   0.894  11.036 -0.0667 -0.2120  0.0254
  144loPI   PO4 2292  14.453   0.685  10.599  0.0694 -0.0555 -0.0183
  144loPI   GL1 2293  14.393   0.781  10.162 -0.4518 -0.0117 -0.1882
  144loPI   GL2 2294  14.709   1.010  10.296  0.0098 -0.0098  0.2012
  144loPI   C1A 2295  14.333   0.724   9.766  0.4191 -0.4050 -0.2471
  144loPI   C2A 2296  14.380   0.684   9.435  0.2214  0.0333  0.1153
  144loPI   C3A 2297  14.547   0.431   9.171  0.0367 -0.0292  0.0166
  144loPI   C4A 2298  14.512   0.539   8.834 -0.1374  0.2480  0.2846
  144loPI   C5A 2299  14.756   0.744   8.510 -0.0565  0.1047 -0.4353
  144loPI   C6A 2300  15.125   0.775   8.249 -0.0383 -0.0114  0.0947
  144loPI   C1B 2301  14.748   0.995   9.840 -0.2501  0.1117 -0.1334
  144loPI   C2B 2302  14.818   0.996   9.410 -0.0734 -0.1840  0.1060
  144loPI   C3B 2303  14.612   0.966   9.068  0.0000 -0.1495  0.0323
  144loPI   C4B 2304  14.205   0.880   8.987 -0.1331  0.1373  0.1758
  145loPI    C1 2305   6.023  12.772  10.531 -0.1117  0.0876  0.0910
  145loPI    C2 2306   6.045  12.384  10.625 -0.0294  0.1057  0.1474
  145loPI    C3 2307   6.314  12.641  10.772 -0.1482  0.2016  0.1978
  145loPI   PO4 2308   5.929  12.775  10.335 -0.0529 -0.1699 -0.0320
  145loPI   GL1 2309   6.026  12.585   9.855  0.0015 -0.0127 -0.0955
  145loPI   GL2 2310   6.141  12.894   9.830 -0.0580 -0.0205 -0.0679
  145loPI   C1A 2311   6.083  12.442   9.337 -0.2090  0.0153 -0.3602
  145loPI   C2A 2312   5.926  12.421   8.970  0.2880  0.0355 -0.1444
  145loPI   C3A 2313   5.830  12.494   8.560 -0.2824 -0.4787  0.3724
  145loPI   C4A 2314   5.775  12.572   8.102  0.0783  0.1525  0.1500
  145loPI   C5A 2315   5.548  12.963   7.904  0.0926 -0.0304 -0.3258
  145loPI   C6A 2316   5.130  13.179   8.174  0.1834 -0.0748  0.0672
  145loPI   C1B 2317   6.139  12.937   9.475 -0.1128  0.1467  0.0034
  145loPI   C2B 2318   6.106  12.919   9.082 -0.0229 -0.2312  0.2808
  145loPI   C3B 2319   6.077  12.984   8.687  0.2501 -0.1305 -0.1028
  145loPI   C4B 2320   5.925  12.969   8.389  0.1893  0.0684 -0.1837
  146loPI    C1 2321   1.021  12.116  10.818  0.0503  0.0901 -0.0096
  146loPI    C2 2322   1.325  12.151  11.076  0.0137  0.2757  0.0101
  146loPI    C3 2323   0.979  11.989  11.195  0.0596  0.1875  0.0244
  146loPI   PO4 2324   1.055  12.333  10.676 -0.5353  0.2705 -0.0733
  146loPI   GL1 2325   1.289  12.454  10.293  0.2812 -0.1302  0.0257
  146loPI   GL2 2326   1.582  12.508  10.274 -0.1629  0.0182  0.2735
  146loPI   C1A 2327   1.230  12.263   9.825  0.1329  0.1273  0.0748
  146loPI   C2A 2328   1.243  12.328   9.432 -0.0121  0.4043  0.1660
  146loPI   C3A 2329   1.133  12.300   8.983  0.1899  0.3542  0.1350
  146loPI   C4A 2330   1.109  12.174   8.545  0.3177 -0.3033  0.0165
  146loPI   C5A 2331   1.108  12.256   8.065  0.0707  0.0442 -0.0920
  146loPI   C6A 2332   0.912  12.052   7.705 -0.2996  0.0268 -0.0563
  146loPI   C1B 2333   1.448  12.714   9.864  0.3945 -0.0380 -0.1010
  146loPI   C2B 2334   1.369  12.835   9.449 -0.0051 -0.0789 -0.0816
  146loPI   C3B 2335   1.325  12.827   9.030  0.2395 -0.1040  0.0693
  146loPI   C4B 2336   1.299  12.717   8.558  0.1160  0.0397  0.2820
  147loPI    C1 2337   9.270   1.797  11.251 -0.1471 -0.0730  0.0921
  147loPI    C2 2338   9.071   1.647  11.564  0.1617 -0.0760  0.2906
  147loPI    C3 2339   9.064   2.040  11.492 -0.1722 -0.1118  0.1100
  147loPI   PO4 2340   9.273   1.702  11.069  0.0607 -0.0608  0.0210
  147loPI   GL1 2341   9.253   1.884  10.671 -0.0133  0.2483  0.0123
  147loPI   GL2 2342   9.418   1.661  10.408 -0.3179 -0.2592  0.0115
  147loPI   C1A 2343   8.976   1.927  10.253 -0.0591 -0.0876  0.0320
  147loPI   C2A 2344   8.878   1.936   9.809 -0.3177  0.3373  0.1607
  147loPI   C3A 2345   8.957   2.012   9.514  0.0435  0.4111  0.4266
  147loPI   C4A 2346   9.010   1.854   9.105 -0.0410  0.2341 -0.1304
  147loPI   C5A 2347   8.959   1.979   8.643 -0.1575  0.3029 -0.0158
  147loPI   C6A 2348   9.072   1.736   8.315 -0.2427  0.0323  0.4500
  147loPI   C1B 2349   9.644   1.659  10.080  0.1329 -0.3208  0.0553
  147loPI   C2B 2350   9.773   1.661   9.748 -0.0814 -0.1439  0.1317
  147loPI   C3B 2351   9.893   1.588   9.272 -0.0076  0.1180  0.1260
  147loPI   C4B 2352   9.778   1.618   8.792  0.0352 -0.1258  0.2373
  148loPI    C1 2353  10.896  16.695  11.286 -0.1660 -0.1440 -0.0367
  148loPI    C2 2354  10.858  17.071  11.155  0.0945 -0.1281 -0.0729
  148loPI    C3 2355  10.590  16.920  11.410  0.1185  0.1619  0.1290
  148loPI   PO4 2356  10.887  16.585  11.098  0.0882 -0.2414  0.0802
  148loPI   GL1 2357  10.815  16.432  10.669  0.2855  0.1311 -0.2820
  148loPI   GL2 2358  11.173  16.305  10.572  0.1406  0.0728  0.1010
  148loPI   C1A 2359  10.479  16.264  10.285 -0.0607  0.2783  0.4176
  148loPI   C2A 2360  10.578  16.238   9.933 -0.3821  0.0314 -0.2349
  148loPI   C3A 2361  10.608  16.233   9.538  0.1250 -0.1155 -0.1298
  148loPI   C4A 2362  10.497  16.299   9.043 -0.1475  0.0944  0.0114
  148loPI   C5A 2363  10.435  16.344   8.573  0.1444  0.0987 -0.0956
  148loPI   C6A 2364  10.386  16.171   8.110 -0.1176 -0.2379 -0.1833
  148loPI   C1B 2365  11.091  16.368  10.130  0.0200  0.0976 -0.0603
  148loPI   C2B 2366  11.158  16.325   9.694  0.1793 -0.3094 -0.0458
  148loPI   C3B 2367  11.012  16.321   9.240 -0.1517 -0.2321 -0.0969
  148loPI   C4B 2368  10.937  16.389   8.870  0.3283  0.0257  0.0399
  149loPI    C1 2369  10.894   1.425  11.176  0.1290 -0.1248  0.2599
  149loPI    C2 2370  10.628   1.182  11.001  0.1899  0.0264 -0.0505
  149loPI    C3 2371  11.007   1.064  11.047  0.1557 -0.0445  0.0542
  149loPI   PO4 2372  10.860   1.698  11.033 -0.0078  0.2064  0.1999
  149loPI   GL1 2373  10.790   1.744  10.587 -0.1315  0.1654 -0.0672
  149loPI   GL2 2374  10.713   1.435  10.574 -0.3559  0.1346 -0.0949
  149loPI   C1A 2375  11.088   1.574  10.235 -0.0550  0.0780 -0.0356
  149loPI   C2A 2376  11.091   1.605   9.802 -0.0320  0.0003  0.0056
  149loPI   C3A 2377  11.160   1.531   9.368  0.2374 -0.2141  0.2751
  149loPI   C4A 2378  11.169   1.468   9.036 -0.0165  0.2097  0.0332
  149loPI   C5A 2379  11.097   1.097   8.724 -0.1425  0.0845  0.1241
  149loPI   C6A 2380  10.932   0.809   8.775 -0.3323  0.2457 -0.0816
  149loPI   C1B 2381  10.626   1.474  10.106  0.0418  0.2364 -0.2336
  149loPI   C2B 2382  10.563   1.468   9.658 -0.1901 -0.0977 -0.0468
  149loPI   C3B 2383  10.656   1.368   9.264  0.2432  0.0274 -0.0663
  149loPI   C4B 2384  10.623   1.284   8.862  0.0404  0.2309 -0.2943
  150loPI    C1 2385  12.061  16.511  11.212  0.0331  0.0418 -0.2614
  150loPI    C2 2386  12.046  16.729  11.547 -0.0224 -0.0168 -0.2252
  150loPI    C3 2387  12.395  16.579  11.421 -0.0308 -0.1489 -0.0937
  150loPI   PO4 2388  11.925  16.662  11.095  0.0307 -0.1465 -0.0117
  150loPI   GL1 2389  12.057  16.931  10.834  0.0467  0.2835  0.0192
  150loPI   GL2 2390  11.741  17.107  10.813  0.2831 -0.1224 -0.3007
  150loPI   C1A 2391  12.103  16.682  10.446 -0.1330  0.3277  0.0618
  150loPI   C2A 2392  12.067  16.591   9.933  0.3283  0.2587  0.1979
  150loPI   C3A 2393  12.064  16.576   9.491  0.1484 -0.0764 -0.4613
  150loPI   C4A 2394  12.120  16.647   8.991 -0.0069 -0.0297 -0.3153
  150loPI   C5A 2395  11.764  16.699   8.705 -0.5693 -0.1815  0.1851
  150loPI   C6A 2396  11.347  16.469   8.534 -0.0357 -0.1915  0.1283
  150loPI   C1B 2397  11.705  17.146  10.417 -0.0118 -0.1604  0.2335
  150loPI   C2B 2398  11.701  16.981  10.013  0.1925  0.2957  0.1532
  150loPI   C3B 2399  11.641  16.900   9.565 -0.0816 -0.1451 -0.0429
  150loPI   C4B 2400  11.761  16.966   9.164  0.1648  0.1953  0.3109
  151loPI    C1 2401   7.726   8.577  10.001 -0.0159 -0.1836  0.0320
  151loPI    C2 2402   7.646   8.307  10.286  0.0379 -0.0714  0.1544
  151loPI    C3 2403   7.886   8.617  10.366 -0.1166  0.0769  0.0491
  151loPI   PO4 2404   7.812   8.416   9.725  0.2444 -0.4965 -0.0313
  151loPI   GL1 2405   7.856   8.200   9.395  0.2577  0.0304 -0.2189
  151loPI   GL2 2406   8.128   8.098   9.167 -0.1291  0.1860 -0.2648
  151loPI   C1A 2407   7.613   8.163   9.030 -0.0087  0.3296  0.0766
  151loPI   C2A 2408   7.554   8.229   8.646 -0.0785  0.0228  0.4747
  151loPI   C3A 2409   7.436   8.314   8.240  0.1775  0.4226  0.3819
  151loPI   C4A 2410   7.119   8.667   8.028  0.0616  0.1578  0.0302
  151loPI   C5A 2411   6.792   8.880   7.732 -0.0320 -0.0283  0.3475
  151loPI   C6A 2412   6.619   9.234   7.606 -0.0853 -0.0576 -0.0491
  151loPI   C1B 2413   8.065   8.027   8.757 -0.1260  0.0963 -0.1249
  151loPI   C2B 2414   7.847   8.068   8.300 -0.0580 -0.0703  0.1479
  151loPI   C3B 2415   7.927   8.211   7.812 -0.3242 -0.0679  0.2011
  151loPI   C4B 2416   8.149   8.075   7.501 -0.0202  0.0844  0.4406
  152loPI    C1 2417   2.648  10.829  10.465 -0.0041  0.0835  0.0154
  152loPI    C2 2418   2.314  10.869  10.682 -0.0034 -0.2814  0.0905
  152loPI    C3 2419   2.670  10.946  10.847 -0.0412  0.0182  0.0378
  152loPI   PO4 2420   2.603  10.582  10.310 -0.2769 -0.2022 -0.1140
  152loPI   GL1 2421   2.485  10.442   9.992  0.0449 -0.1362  0.0491
  152loPI   GL2 2422   2.533  10.146   9.844  0.0858  0.2165 -0.0298
  152loPI   C1A 2423   2.646  10.547   9.570 -0.0591 -0.1188  0.0350
  152loPI   C2A 2424   2.562  10.632   9.194  0.3695  0.1696  0.0768
  152loPI   C3A 2425   2.514  10.772   8.830 -0.3100  0.1283  0.0496
  152loPI   C4A 2426   2.516  10.687   8.457 -0.2040 -0.2152  0.0441
  152loPI   C5A 2427   2.421  10.663   8.053  0.1492  0.0726 -0.1603
  152loPI   C6A 2428   2.162  10.465   7.798  0.1007  0.1325 -0.0385
  152loPI   C1B 2429   2.520  10.062   9.391 -0.1848 -0.1360  0.1149
  152loPI   C2B 2430   2.477  10.069   9.001 -0.1545 -0.1871  0.0188
  152loPI   C3B 2431   2.431  10.156   8.494 -0.0783  0.0783 -0.1194
  152loPI   C4B 2432   2.395  10.134   8.065  0.2029  0.0437 -0.3024
  153loPI    C1 2433   9.129  10.750  10.161 -0.2939  0.0244  0.0480
  153loPI    C2 2434   9.293  11.108  10.228 -0.0414 -0.0548 -0.1340
  153loPI    C3 2435   9.124  10.906  10.529  0.2960 -0.0207  0.0839
  153loPI   PO4 2436   9.025  10.777   9.904 -0.1202 -0.2988 -0.0312
  153loPI   GL1 2437   8.887  10.990   9.546 -0.3513  0.2605 -0.1295
  153loPI   GL2 2438   8.771  10.743   9.444 -0.0626  0.1294 -0.1116
  153loPI   C1A 2439   8.990  11.174   9.201  0.2161 -0.0891  0.2739
  153loPI   C2A 2440   8.989  11.234   8.754  0.0197  0.1546 -0.2790
  153loPI   C3A 2441   8.976  11.448   8.442 -0.0800  0.0814 -0.1952
  153loPI   C4A 2442   9.226  11.383   8.065  0.1951  0.3163  0.2109
  153loPI   C5A 2443   9.519  11.215   7.791 -0.1267  0.0059 -0.3201
  153loPI   C6A 2444   9.720  11.318   7.496 -0.2029  0.0791  0.0663
  153loPI   C1B 2445   8.672  10.860   9.001 -0.1522 -0.1381  0.0554
  153loPI   C2B 2446   8.480  11.079   8.612 -0.1641  0.2926  0.0214
  153loPI   C3B 2447   8.573  11.235   8.235 -0.1462 -0.1831 -0.2239
  153loPI   C4B 2448   8.783  11.301   7.802 -0.1951  0.1638  0.1434
  154loPI    C1 2449  13.899   6.486  10.148 -0.0851  0.0175  0.1291
  154loPI    C2 2450  13.551   6.314  10.245 -0.1106  0.0448  0.0860
  154loPI    C3 2451  13.880   6.090  10.204 -0.1804 -0.0187 -0.1443
  154loPI   PO4 2452  13.846   6.734  10.022 -0.0872  0.1663 -0.0273
  154loPI   GL1 2453  13.477   6.744   9.680 -0.0484  0.2322 -0.1137
  154loPI   GL2 2454  13.435   6.483   9.765  0.0643  0.1734 -0.0577
  154loPI   C1A 2455  13.205   6.698   9.313  0.0467  0.4456  0.2585
  154loPI   C2A 2456  13.113   6.635   8.851  0.0347 -0.4782  0.1277
  154loPI   C3A 2457  13.248   6.605   8.398  0.0174  0.1523  0.4214
  154loPI   C4A 2458  13.383   6.343   7.968  0.1568  0.0470  0.1470
  154loPI   C5A 2459  13.299   6.244   7.602  0.0076  0.1240  0.1914
  154loPI   C6A 2460  12.988   6.508   7.554 -0.0277 -0.0770  0.0914
  154loPI   C1B 2461  13.543   6.328   9.399  0.0706  0.2602  0.2267
  154loPI   C2B 2462  13.515   6.131   9.047 -0.2010 -0.2497  0.0053
  154loPI   C3B 2463  13.634   6.147   8.618 -0.0984  0.2311 -0.1303
  154loPI   C4B 2464  13.809   6.183   8.219  0.2422 -0.2275 -0.1496
  155loPI    C1 2465   3.172   0.574  11.366 -0.1715 -0.0331  0.0635
  155loPI    C2 2466   3.088   0.907  11.571 -0.1610  0.0756 -0.1068
  155loPI    C3 2467   2.808   0.626  11.521 -0.0534 -0.1296  0.3824
  155loPI   PO4 2468   3.276   0.690  11.134  0.3075 -0.0684  0.0572
  155loPI   GL1 2469   3.220   0.644  10.704  0.1505 -0.3476 -0.3436
  155loPI   GL2 2470   3.146   1.009  10.727 -0.1919  0.0002 -0.1141
  155loPI   C1A 2471   3.191   0.593  10.265 -0.2793 -0.3520  0.0119
  155loPI   C2A 2472   3.248   0.521   9.871 -0.0907 -0.1101  0.4060
  155loPI   C3A 2473   3.294   0.513   9.404  0.2905  0.0530 -0.1040
  155loPI   C4A 2474   3.326   0.558   8.983  0.1641 -0.0942 -0.2418
  155loPI   C5A 2475   3.320   0.387   8.659  0.0403  0.0246  0.2363
  155loPI   C6A 2476   3.561   0.185   8.297 -0.0202 -0.0256 -0.4443
  155loPI   C1B 2477   3.353   1.049  10.235 -0.0021 -0.0125 -0.0847
  155loPI   C2B 2478   3.372   1.008   9.822  0.0857  0.0111  0.0412
  155loPI   C3B 2479   3.385   0.987   9.412  0.0691  0.0388 -0.0591
  155loPI   C4B 2480   3.427   1.116   8.956  0.1991 -0.1048 -0.1805
  156loPI    C1 2481  15.148  17.194  11.217  0.0079 -0.1068 -0.2588
  156loPI    C2 2482  14.753  17.256  11.200 -0.0207 -0.1427  0.1631
  156loPI    C3 2483  14.983  17.495  11.423  0.1914 -0.1532 -0.0407
  156loPI   PO4 2484  15.239  17.217  11.013 -0.2959 -0.0793 -0.1175
  156loPI   GL1 2485  15.425  17.328  10.629  0.0201 -0.2717  0.2380
  156loPI   GL2 2486  15.659  17.137  10.658  0.1591 -0.4682  0.1576
  156loPI   C1A 2487  15.155  17.266  10.256 -0.0445 -0.0629 -0.1075
  156loPI   C2A 2488  15.157  17.290   9.838 -0.3574  0.1831  0.0623
  156loPI   C3A 2489  15.108  17.430   9.477  0.0106  0.1317  0.0437
  156loPI   C4A 2490  15.168  17.359   9.087  0.0272 -0.1299 -0.1377
  156loPI   C5A 2491  15.269  17.394   8.689 -0.2803  0.1529  0.1025
  156loPI   C6A 2492  15.568  17.283   8.351 -0.2178  0.1587 -0.1062
  156loPI   C1B 2493  15.565  16.967  10.270  0.1257  0.0930 -0.1008
  156loPI   C2B 2494  15.421  16.903   9.878  0.0819  0.1211  0.0300
  156loPI   C3B 2495  15.497  17.090   9.439  0.0230  0.0295 -0.1448
  156loPI   C4B 2496  15.631  17.139   9.032  0.2812  0.0119 -0.1004
  157loPI    C1 2497   8.404   2.358  11.304  0.2453 -0.0124 -0.1716
  157loPI    C2 2498   8.789   2.442  11.378  0.2192  0.1108 -0.1733
  157loPI    C3 2499   8.579   2.221  11.637  0.2316  0.2266 -0.0641
  157loPI   PO4 2500   8.420   2.402  11.065  0.0181 -0.3785  0.2339
  157loPI   GL1 2501   8.527   2.552  10.685 -0.4010 -0.1005 -0.1534
  157loPI   GL2 2502   8.701   2.810  10.484 -0.1219  0.3342  0.0160
  157loPI   C1A 2503   8.562   2.243  10.358 -0.1662  0.0682 -0.0505
  157loPI   C2A 2504   8.518   2.337   9.819  0.1035  0.5364  0.1526
  157loPI   C3A 2505   8.537   2.314   9.449 -0.0785 -0.0033 -0.0331
  157loPI   C4A 2506   8.533   2.244   9.009  0.2689 -0.0089  0.1057
  157loPI   C5A 2507   8.636   2.327   8.581  0.0475  0.1321  0.1303
  157loPI   C6A 2508   8.888   2.544   8.280 -0.1825 -0.3571  0.0301
  157loPI   C1B 2509   8.515   2.905  10.062 -0.2916 -0.1453  0.0948
  157loPI   C2B 2510   8.707   2.783   9.647  0.0509  0.1946  0.2114
  157loPI   C3B 2511   8.760   2.763   9.138 -0.1284  0.0076  0.1204
  157loPI   C4B 2512   8.783   2.844   8.710  0.2129  0.0911 -0.3722
  158loPI    C1 2513  10.437   7.420  10.451  0.1506  0.0577 -0.0998
  158loPI    C2 2514  10.201   7.474  10.769 -0.1053  0.2419 -0.3161
  158loPI    C3 2515  10.596   7.439  10.817 -0.1757 -0.1240  0.0557
  158loPI   PO4 2516  10.318   7.227  10.279 -0.1333 -0.2025  0.2191
  158loPI   GL1 2517  10.394   7.289   9.842  0.3201 -0.1416 -0.1489
  158loPI   GL2 2518  10.321   6.971   9.831 -0.1058 -0.0313 -0.1235
  158loPI   C1A 2519  10.293   7.487   9.590 -0.1796  0.0322  0.0864
  158loPI   C2A 2520  10.375   7.486   9.110 -0.2766 -0.0722 -0.0535
  158loPI   C3A 2521  10.451   7.496   8.616 -0.0761 -0.2209  0.0673
  158loPI   C4A 2522  10.671   7.366   8.297 -0.1611  0.0632  0.1679
  158loPI   C5A 2523  10.753   7.661   8.022 -0.1106  0.0625  0.2237
  158loPI   C6A 2524  10.553   7.833   7.621 -0.1706  0.2440 -0.1418
  158loPI   C1B 2525  10.461   7.064   9.356  0.4170 -0.3960 -0.0214
  158loPI   C2B 2526  10.454   6.993   8.950 -0.0182  0.0025 -0.2429
  158loPI   C3B 2527  10.203   6.984   8.584 -0.0176 -0.2327 -0.0772
  158loPI   C4B 2528  10.174   7.133   8.197 -0.0260  0.0179  0.0120
  159loPI    C1 2529  12.940   5.949  10.549  0.1285 -0.1645 -0.0153
  159loPI    C2 2530  12.716   5.747  10.811 -0.0411 -0.0272 -0.0521
  159loPI    C3 2531  12.867   6.104  10.910  0.3189 -0.1988  0.0394
  159loPI   PO4 2532  12.822   5.884  10.348 -0.1574 -0.1332  0.1071
  159loPI   GL1 2533  12.915   5.971   9.939  0.1028 -0.0713 -0.3235
  159loPI   GL2 2534  13.156   6.098   9.772 -0.1119  0.0257  0.2214
  159loPI   C1A 2535  12.900   5.647   9.572  0.0818 -0.1108  0.0009
  159loPI   C2A 2536  12.880   5.531   9.138  0.3285 -0.0718  0.1542
  159loPI   C3A 2537  12.863   5.479   8.753 -0.0512 -0.2916 -0.1560
  159loPI   C4A 2538  13.032   5.513   8.244  0.0792 -0.0831  0.1359
  159loPI   C5A 2539  13.202   5.544   7.870 -0.0986 -0.0106  0.0630
  159loPI   C6A 2540  13.299   5.282   7.517  0.0964 -0.0471 -0.0227
  159loPI   C1B 2541  13.077   6.113   9.320  0.1494 -0.0040  0.0520
  159loPI   C2B 2542  12.940   6.130   8.852 -0.0998 -0.0485 -0.2180
  159loPI   C3B 2543  13.146   6.125   8.452  0.2540 -0.0204 -0.2989
  159loPI   C4B 2544  13.009   5.961   8.037 -0.0914 -0.0790  0.2557
  160loPI    C1 2545   8.868  16.855  10.808  0.0273  0.2077  0.1257
  160loPI    C2 2546   8.510  16.824  10.634  0.0697 -0.1330  0.0913
  160loPI    C3 2547   8.576  16.649  10.987  0.1382  0.1190  0.2064
  160loPI   PO4 2548   9.062  16.845  10.596  0.0855 -0.3094 -0.0279
  160loPI   GL1 2549   9.063  16.767  10.240  0.0281 -0.1492  0.1500
  160loPI   GL2 2550   8.845  16.624  10.198  0.0547 -0.0710  0.0490
  160loPI   C1A 2551   9.331  16.955   9.920  0.0097 -0.1194 -0.0036
  160loPI   C2A 2552   9.338  16.999   9.443 -0.1739 -0.0759  0.2505
  160loPI   C3A 2553   9.258  16.929   9.112  0.0933 -0.0033  0.1131
  160loPI   C4A 2554   9.263  16.953   8.723  0.2116 -0.2095 -0.0040
  160loPI   C5A 2555   9.561  16.989   8.312 -0.0936  0.1655 -0.0552
  160loPI   C6A 2556   9.970  16.845   8.168 -0.2144  0.0263  0.2390
  160loPI   C1B 2557   8.836  16.903   9.835  0.3305  0.2191  0.1533
  160loPI   C2B 2558   8.853  16.916   9.406 -0.3448  0.0922 -0.2376
  160loPI   C3B 2559   8.776  16.756   8.979  0.1655  0.2166  0.2416
  160loPI   C4B 2560   8.808  16.883   8.475  0.2011  0.0269  0.1143
  161loPI    C1 2561  15.252   9.474  10.230  0.0922  0.1011  0.1073
  161loPI    C2 2562  15.078   9.320  10.556 -0.0662  0.2078  0.0747
  161loPI    C3 2563  15.408   9.151  10.406 -0.0808  0.0664  0.1999
  161loPI   PO4 2564  14.955   9.482  10.087 -0.1688  0.1880 -0.1463
  161loPI   GL1 2565  14.828   9.749   9.692 -0.1046  0.0167  0.0583
  161loPI   GL2 2566  14.446   9.755   9.510 -0.0163  0.0033  0.1330
  161loPI   C1A 2567  14.764   9.831   9.140 -0.0241 -0.0458  0.1251
  161loPI   C2A 2568  14.697   9.867   8.754 -0.1084 -0.2519 -0.1306
  161loPI   C3A 2569  14.706   9.858   8.408  0.2044  0.0815 -0.1461
  161loPI   C4A 2570  14.845   9.793   8.014 -0.0404  0.0775  0.1895
  161loPI   C5A 2571  15.086   9.868   7.615  0.0170  0.2243  0.1114
  161loPI   C6A 2572  15.297  10.061   7.246 -0.1730 -0.0397 -0.2254
  161loPI   C1B 2573  14.306   9.741   9.084 -0.1334 -0.0185  0.2593
  161loPI   C2B 2574  14.224   9.814   8.626  0.0300  0.3495 -0.5038
  161loPI   C3B 2575  14.166   9.781   8.327 -0.1639  0.0241  0.1471
  161loPI   C4B 2576  14.053   9.999   7.878  0.1803  0.1239 -0.0626
  162loPI    C1 2577   0.832   4.174  10.730 -0.0620 -0.0530 -0.0422
  162loPI    C2 2578   1.032   4.041  11.050 -0.3460 -0.1371  0.1037
  162loPI    C3 2579   0.755   4.327  11.091 -0.0290  0.2160 -0.1471
  162loPI   PO4 2580   1.065   4.160  10.550  0.2459 -0.0870 -0.1565
  162loPI   GL1 2581   1.024   4.276  10.091 -0.2568  0.0074  0.1123
  162loPI   GL2 2582   0.748   4.244  10.007  0.1463  0.0688 -0.0934
  162loPI   C1A 2583   1.124   4.210   9.700 -0.1054  0.1275 -0.0450
  162loPI   C2A 2584   1.032   4.188   9.302  0.0985 -0.1965  0.0214
  162loPI   C3A 2585   0.937   4.173   8.866  0.0052 -0.1787  0.1994
  162loPI   C4A 2586   1.071   4.244   8.420 -0.1879 -0.4747 -0.3363
  162loPI   C5A 2587   0.889   4.592   8.111  0.0130  0.0769  0.2553
  162loPI   C6A 2588   0.801   5.011   8.088 -0.1935 -0.2016  0.0379
  162loPI   C1B 2589   0.577   4.107   9.522  0.3544  0.1739 -0.0099
  162loPI   C2B 2590   0.521   4.041   9.082  0.2360 -0.3175 -0.2769
  162loPI   C3B 2591   0.484   4.107   8.718  0.0751  0.1333  0.0485
  162loPI   C4B 2592   0.574   4.232   8.253 -0.0975 -0.0470 -0.2512
  163loPI    C1 2593   7.317   5.120  10.594 -0.0240 -0.1733 -0.2111
  163loPI    C2 2594   6.974   5.243  10.761  0.0191 -0.1095 -0.1690
  163loPI    C3 2595   7.185   4.948  10.931  0.0875 -0.0118 -0.0831
  163loPI   PO4 2596   7.296   5.024  10.349 -0.1079 -0.0788  0.2759
  163loPI   GL1 2597   7.380   5.065   9.966  0.1679 -0.2590  0.0845
  163loPI   GL2 2598   7.140   5.288   9.779 -0.2675 -0.0140 -0.2515
  163loPI   C1A 2599   7.476   4.992   9.524  0.2574 -0.0919  0.1424
  163loPI   C2A 2600   7.362   4.827   9.171  0.1495 -0.0265 -0.0707
  163loPI   C3A 2601   7.285   4.750   8.716  0.0075 -0.1693 -0.0782
  163loPI   C4A 2602   7.456   4.601   8.331 -0.0531 -0.0838  0.2951
  163loPI   C5A 2603   7.717   4.213   8.156  0.0323 -0.1509  0.1265
  163loPI   C6A 2604   7.884   4.016   7.677 -0.0057 -0.2381 -0.1758
  163loPI   C1B 2605   7.039   5.234   9.375  0.1605 -0.2294  0.0435
  163loPI   C2B 2606   6.957   5.110   8.988 -0.0031  0.0227  0.1445
  163loPI   C3B 2607   6.922   5.191   8.541 -0.2345  0.0612 -0.2089
  163loPI   C4B 2608   7.018   5.521   8.132 -0.3345 -0.0930 -0.2196
  164loPI    C1 2609   3.668   1.771  10.714  0.0356 -0.0391 -0.1160
  164loPI    C2 2610   3.677   1.566  11.057  0.0932 -0.0573 -0.1282
  164loPI    C3 2611   3.329   1.622  10.866  0.0766 -0.1399 -0.1228
  164loPI   PO4 2612   3.928   1.863  10.712 -0.2502 -0.1317 -0.0255
  164loPI   GL1 2613   4.091   1.891  10.366  0.0833 -0.1434 -0.1347
  164loPI   GL2 2614   3.941   1.623  10.191  0.0622  0.0098 -0.0379
  164loPI   C1A 2615   4.426   1.756  10.012 -0.0227 -0.0049  0.1361
  164loPI   C2A 2616   4.575   1.783   9.646 -0.1931 -0.0001  0.3286
  164loPI   C3A 2617   4.616   1.894   9.257  0.0682 -0.0174 -0.1792
  164loPI   C4A 2618   4.631   1.768   8.755  0.0462 -0.0196  0.0036
  164loPI   C5A 2619   4.801   1.694   8.252 -0.2873 -0.2029 -0.0055
  164loPI   C6A 2620   4.782   1.746   7.878 -0.1601 -0.3106  0.4675
  164loPI   C1B 2621   4.018   1.613   9.686 -0.1272 -0.3067  0.2828
  164loPI   C2B 2622   4.066   1.687   9.265  0.2212 -0.0633  0.1675
  164loPI   C3B 2623   4.024   1.671   8.875  0.0723 -0.1404 -0.1002
  164loPI   C4B 2624   4.222   1.385   8.539  0.2019  0.1382  0.0116
  165loPI    C1 2625   8.710  17.665  11.238 -0.2337  0.1278  0.1194
  165loPI    C2 2626   8.887  17.619  11.594  0.1783  0.1673 -0.0741
  165loPI    C3 2627   8.676  17.318  11.434  0.1865  0.0693  0.0977
  165loPI   PO4 2628   8.658  17.925  11.137  0.1021 -0.0619 -0.2920
  165loPI   GL1 2629   8.607  18.087  10.681 -0.0046 -0.0164  0.0108
  165loPI   GL2 2630   8.934  18.276  10.603 -0.1396 -0.2882 -0.0616
  165loPI   C1A 2631   8.553  18.145  10.286 -0.0652  0.0909  0.2245
  165loPI   C2A 2632   8.777  18.254   9.789  0.0630 -0.0751  0.0256
  165loPI   C3A 2633   8.811  18.246   9.307 -0.1292  0.2709 -0.4880
  165loPI   C4A 2634   8.727  18.185   8.882  0.1489 -0.0977 -0.1346
  165loPI   C5A 2635   8.582  18.317   8.492  0.0663  0.0523 -0.0088
  165loPI   C6A 2636   8.298  18.691   8.422 -0.0424  0.0260  0.2056
  165loPI   C1B 2637   9.120  18.168  10.164 -0.0304 -0.1184 -0.4126
  165loPI   C2B 2638   9.097  17.855   9.782  0.0419  0.2980  0.2225
  165loPI   C3B 2639   9.150  17.821   9.375 -0.0477  0.0967 -0.0198
  165loPI   C4B 2640   9.085  17.778   8.926 -0.0052 -0.2282 -0.0945
  166loPI    C1 2641   5.423  14.845  10.993  0.0802 -0.0869 -0.1343
  166loPI    C2 2642   5.519  14.503  10.808  0.1741 -0.1140 -0.0364
  166loPI    C3 2643   5.540  14.528  11.207 -0.1088 -0.0821 -0.0215
  166loPI   PO4 2644   5.246  14.982  10.798  0.4721 -0.2151  0.2207
  166loPI   GL1 2645   5.208  14.927  10.453 -0.0511  0.1439  0.2830
  166loPI   GL2 2646   5.443  14.995  10.254  0.0967  0.1720 -0.4663
  166loPI   C1A 2647   4.912  14.943  10.002  0.4357 -0.0457  0.0421
  166loPI   C2A 2648   4.866  14.971   9.641  0.1067 -0.0010  0.2335
  166loPI   C3A 2649   4.850  14.940   9.207  0.1314  0.0850  0.2330
  166loPI   C4A 2650   4.843  15.009   8.762  0.1647 -0.1779  0.0296
  166loPI   C5A 2651   4.777  14.898   8.340  0.1519 -0.2072  0.0303
  166loPI   C6A 2652   4.717  14.635   7.994 -0.0673  0.0026 -0.0865
  166loPI   C1B 2653   5.394  15.018   9.807  0.1831  0.1438 -0.2080
  166loPI   C2B 2654   5.305  15.040   9.385 -0.2875 -0.2749 -0.0871
  166loPI   C3B 2655   5.331  15.050   8.966 -0.2630  0.0597 -0.2500
  166loPI   C4B 2656   5.252  14.986   8.502  0.0484  0.1148 -0.0258
  167loPI    C1 2657   8.138  17.137  10.868 -0.0142 -0.0051 -0.0807
  167loPI    C2 2658   8.511  17.165  11.011 -0.0216  0.0384 -0.0701
  167loPI    C3 2659   8.206  17.331  11.211 -0.0787 -0.2006  0.0446
  167loPI   PO4 2660   8.117  17.192  10.652 -0.0547  0.1984 -0.1649
  167loPI   GL1 2661   7.780  17.243  10.472 -0.0357  0.1240 -0.0070
  167loPI   GL2 2662   7.984  16.993  10.204  0.0355 -0.1384  0.0422
  167loPI   C1A 2663   7.658  17.314  10.052  0.1451 -0.1452  0.0826
  167loPI   C2A 2664   7.706  17.469   9.567  0.3919 -0.1399 -0.0323
  167loPI   C3A 2665   7.529  17.412   9.159 -0.0196 -0.0444 -0.1665
  167loPI   C4A 2666   7.519  17.556   8.842 -0.2350  0.2955  0.3306
  167loPI   C5A 2667   7.569  17.675   8.390 -0.2406  0.1992 -0.1081
  167loPI   C6A 2668   7.535  17.725   7.951  0.0916  0.1452  0.1905
  167loPI   C1B 2669   7.943  16.997   9.716 -0.1545  0.0576 -0.1076
  167loPI   C2B 2670   7.929  17.115   9.291 -0.0547 -0.1750  0.1213
  167loPI   C3B 2671   7.830  17.132   8.840 -0.0767 -0.2277 -0.0681
  167loPI   C4B 2672   7.784  17.184   8.422  0.0880 -0.0700  0.1325
  168loPI    C1 2673   9.627   5.321  10.921 -0.1645  0.1395  0.0142
  168loPI    C2 2674   9.269   5.163  11.004 -0.0438 -0.0941  0.0993
  168loPI    C3 2675   9.492   5.318  11.297  0.1977 -0.5303  0.1545
  168loPI   PO4 2676   9.619   5.352  10.666 -0.2238 -0.0081 -0.1758
  168loPI   GL1 2677   9.564   5.346  10.233 -0.1958  0.0703  0.0268
  168loPI   GL2 2678   9.711   5.036  10.082  0.1681 -0.3587 -0.0308
  168loPI   C1A 2679   9.357   5.404   9.847 -0.0791  0.0796  0.0682
  168loPI   C2A 2680   9.393   5.304   9.469  0.0439  0.1138 -0.2398
  168loPI   C3A 2681   9.483   5.316   9.036 -0.3003  0.0418  0.0972
  168loPI   C4A 2682   9.423   5.247   8.542 -0.2827  0.0650 -0.2006
  168loPI   C5A 2683   9.704   5.272   8.186 -0.0271 -0.1896  0.2468
  168loPI   C6A 2684  10.229   5.401   8.183  0.1459  0.3029 -0.4001
  168loPI   C1B 2685   9.794   4.986   9.641 -0.3057 -0.4984  0.3197
  168loPI   C2B 2686   9.726   4.914   9.251 -0.1446  0.1757 -0.1083
  168loPI   C3B 2687   9.743   4.884   8.860 -0.0559  0.2282 -0.1751
  168loPI   C4B 2688   9.822   4.842   8.430  0.3624 -0.2237  0.1508
  169loPI    C1 2689   0.175   7.423  10.251 -0.0429  0.1620  0.0574
  169loPI    C2 2690   0.545   7.548  10.168 -0.0593  0.0375 -0.2143
  169loPI    C3 2691   0.426   7.514  10.548  0.1491  0.2453 -0.1283
  169loPI   PO4 2692   0.047   7.507   9.978  0.0799  0.0455  0.2207
  169loPI   GL1 2693  -0.109   7.405   9.598  0.0268 -0.0402 -0.0235
  169loPI   GL2 2694  -0.463   7.492   9.668  0.0485 -0.2952  0.1031
  169loPI   C1A 2695   0.044   7.349   9.308  0.0657 -0.1647  0.1827
  169loPI   C2A 2696   0.022   7.394   9.011  0.1179  0.2402  0.0838
  169loPI   C3A 2697   0.108   7.318   8.658  0.0387 -0.0818  0.1786
  169loPI   C4A 2698   0.177   7.357   8.263  0.0350  0.1691 -0.0221
  169loPI   C5A 2699   0.087   7.291   7.869  0.4312  0.0837  0.0686
  169loPI   C6A 2700   0.376   7.268   7.578  0.1930  0.0598  0.0986
  169loPI   C1B 2701  -0.428   7.186   9.366  0.1140 -0.0651  0.2033
  169loPI   C2B 2702  -0.444   7.188   8.893 -0.0123  0.0585 -0.0385
  169loPI   C3B 2703  -0.399   7.233   8.475  0.1347  0.0948 -0.1886
  169loPI   C4B 2704  -0.412   7.230   7.933 -0.1258  0.1943  0.2081
  170loPI    C1 2705   3.849   3.909  10.926 -0.2048  0.0944 -0.1854
  170loPI    C2 2706   3.660   4.030  11.258 -0.1513 -0.1351 -0.0692
  170loPI    C3 2707   4.060   4.018  11.248 -0.1467  0.0716 -0.2158
  170loPI   PO4 2708   3.736   4.073  10.777 -0.0060  0.0252  0.0253
  170loPI   GL1 2709   3.748   4.398  10.449 -0.0957  0.1108  0.3124
  170loPI   GL2 2710   3.616   4.052  10.295  0.1552 -0.0367 -0.1303
  170loPI   C1A 2711   4.030   4.454  10.003 -0.1611 -0.2374  0.1959
  170loPI   C2A 2712   3.976   4.453   9.585 -0.0670  0.1907 -0.1725
  170loPI   C3A 2713   3.901   4.388   9.215  0.1468 -0.2001  0.0794
  170loPI   C4A 2714   3.929   4.344   8.878 -0.1842  0.0655  0.0443
  170loPI   C5A 2715   3.894   4.346   8.509  0.0976 -0.0730 -0.0269
  170loPI   C6A 2716   3.897   4.163   8.054 -0.2899 -0.2195  0.1312
  170loPI   C1B 2717   3.758   4.009   9.872  0.2083 -0.1407  0.3549
  170loPI   C2B 2718   3.727   3.937   9.470 -0.0369  0.0685  0.0561
  170loPI   C3B 2719   3.679   3.857   9.036 -0.0516 -0.1551 -0.2428
  170loPI   C4B 2720   3.798   3.861   8.550 -0.0210 -0.1014 -0.0059
  171loPI    C1 2721  16.459   4.564  10.680 -0.0763  0.1194 -0.0183
  171loPI    C2 2722  16.823   4.649  10.821 -0.0177 -0.2858  0.0871
  171loPI    C3 2723  16.534   4.531  11.071 -0.1121 -0.3352 -0.0447
  171loPI   PO4 2724  16.591   4.449  10.385 -0.1440  0.2331  0.1615
  171loPI   GL1 2725  16.736   3.983  10.158 -0.0880  0.1672  0.1853
  171loPI   GL2 2726  16.912   4.269  10.004 -0.2491 -0.1663  0.1252
  171loPI   C1A 2727  17.111   3.825   9.769  0.0368 -0.0009  0.1238
  171loPI   C2A 2728  17.109   3.606   9.404 -0.0013  0.0290  0.0833
  171loPI   C3A 2729  17.060   3.592   8.898 -0.2564 -0.3520 -0.1279
  171loPI   C4A 2730  17.067   3.626   8.529 -0.1097  0.2370 -0.3053
  171loPI   C5A 2731  17.216   3.482   8.057  0.1971  0.0935  0.3150
  171loPI   C6A 2732  17.134   3.362   7.634 -0.2566  0.0654  0.0778
  171loPI   C1B 2733  16.736   4.126   9.609  0.0323 -0.1220  0.2882
  171loPI   C2B 2734  16.714   4.111   9.178  0.1351  0.0268 -0.1134
  171loPI   C3B 2735  16.801   3.985   8.808  0.0468 -0.1685  0.1100
  171loPI   C4B 2736  16.902   3.959   8.261  0.0337 -0.0279 -0.1798
  172loPI    C1 2737  10.161   8.423  10.103  0.2459  0.0421  0.0548
  172loPI    C2 2738  10.444   8.254  10.329  0.1433 -0.2054  0.0002
  172loPI    C3 2739  10.057   8.202  10.419  0.1109  0.0360  0.0069
  172loPI   PO4 2740  10.186   8.388   9.923  0.2090 -0.1974  0.0127
  172loPI   GL1 2741  10.261   8.341   9.644 -0.0667  0.2568  0.2048
  172loPI   GL2 2742  10.251   7.980   9.613 -0.1232 -0.2055  0.1881
  172loPI   C1A 2743  10.589   8.425   9.346  0.1407  0.0263  0.1588
  172loPI   C2A 2744  10.667   8.319   8.936 -0.2764  0.0398 -0.1735
  172loPI   C3A 2745  10.810   8.492   8.531  0.0932 -0.0817 -0.1267
  172loPI   C4A 2746  10.897   8.670   8.086 -0.1074 -0.1991  0.2347
  172loPI   C5A 2747  10.974   8.903   7.683  0.0694  0.2777  0.1028
  172loPI   C6A 2748  11.288   9.225   7.590  0.1089 -0.2731  0.2671
  172loPI   C1B 2749  10.298   8.005   9.196  0.1457  0.1344 -0.1062
  172loPI   C2B 2750  10.243   8.123   8.751  0.1761  0.0738 -0.2115
  172loPI   C3B 2751  10.192   8.100   8.397  0.0000 -0.0678  0.2484
  172loPI   C4B 2752  10.243   8.053   7.979 -0.2492  0.0983  0.1691
  173loPI    C1 2753  10.043  11.688   9.944 -0.2629 -0.1713  0.0975
  173loPI    C2 2754   9.954  11.644  10.332 -0.0041 -0.2469  0.1504
  173loPI    C3 2755  10.178  11.953  10.212 -0.3610 -0.0346  0.0131
  173loPI   PO4 2756  10.063  11.428   9.905  0.1178 -0.0754  0.3233
  173loPI   GL1 2757  10.205  11.237   9.455  0.2647 -0.0369  0.5339
  173loPI   GL2 2758  10.380  10.890   9.481  0.1504 -0.0715 -0.0925
  173loPI   C1A 2759  10.373  11.272   9.037 -0.0079  0.2056  0.1275
  173loPI   C2A 2760  10.301  11.446   8.549 -0.2904  0.1304 -0.2798
  173loPI   C3A 2761  10.289  11.576   8.065 -0.0997 -0.4441  0.1694
  173loPI   C4A 2762  10.218  11.715   7.699 -0.1349  0.1177  0.0714
  173loPI   C5A 2763  10.120  11.943   7.388  0.0619  0.0985 -0.0781
  173loPI   C6A 2764   9.821  12.075   7.088  0.1693 -0.2305  0.2789
  173loPI   C1B 2765  10.431  10.801   9.008 -0.0578 -0.1925 -0.0334
  173loPI   C2B 2766  10.512  10.833   8.587 -0.1588  0.0639  0.0354
  173loPI   C3B 2767  10.573  10.891   8.208 -0.0685 -0.3618 -0.1878
  173loPI   C4B 2768  10.464  10.934   7.850  0.2930 -0.1051 -0.3070
  174loPI    C1 2769  14.783   2.169  11.026  0.0168 -0.2487 -0.0228
  174loPI    C2 2770  14.734   1.930  11.344 -0.1453 -0.1756  0.0083
  174loPI    C3 2771  14.925   2.279  11.383 -0.0718 -0.2150  0.0023
  174loPI   PO4 2772  14.517   2.146  10.917 -0.1150 -0.3077 -0.1766
  174loPI   GL1 2773  14.392   2.163  10.458 -0.0150  0.1149 -0.0442
  174loPI   GL2 2774  14.103   2.334  10.322 -0.1097  0.6240  0.0902
  174loPI   C1A 2775  14.513   1.959  10.115  0.0163  0.0006 -0.1172
  174loPI   C2A 2776  14.565   1.835   9.755  0.2712  0.0454 -0.2556
  174loPI   C3A 2777  14.546   1.835   9.279  0.2109  0.3856 -0.2207
  174loPI   C4A 2778  14.615   1.803   8.887 -0.2893 -0.0891  0.3122
  174loPI   C5A 2779  14.582   1.681   8.418  0.2644  0.1617  0.0486
  174loPI   C6A 2780  14.525   1.233   8.307  0.0589  0.1440  0.1589
  174loPI   C1B 2781  14.174   2.289   9.985 -0.1125  0.2155  0.2294
  174loPI   C2B 2782  14.210   2.159   9.527  0.1904 -0.1002  0.2012
  174loPI   C3B 2783  14.213   2.263   9.115  0.0804 -0.1111  0.0740
  174loPI   C4B 2784  14.301   2.146   8.678 -0.0361 -0.2586 -0.0071
  175loPI    C1 2785  13.019  10.229  10.091 -0.1361 -0.2201  0.3189
  175loPI    C2 2786  12.890  10.307  10.461 -0.1524 -0.0387  0.2759
  175loPI    C3 2787  13.122  10.571  10.270 -0.1841 -0.1094  0.1382
  175loPI   PO4 2788  13.075   9.963  10.024  0.6687  0.1701  0.0604
  175loPI   GL1 2789  13.227  10.010   9.652  0.0486 -0.1613 -0.0561
  175loPI   GL2 2790  13.493  10.123   9.648  0.0384 -0.1766  0.1328
  175loPI   C1A 2791  12.984  10.316   9.351  0.0510  0.0465  0.0480
  175loPI   C2A 2792  12.902  10.396   8.957 -0.0698  0.1166 -0.1710
  175loPI   C3A 2793  12.964  10.367   8.510 -0.1135  0.2977 -0.0160
  175loPI   C4A 2794  13.020  10.494   8.106  0.3558 -0.0077  0.0401
  175loPI   C5A 2795  13.025  10.399   7.706 -0.1949 -0.0794 -0.1596
  175loPI   C6A 2796  13.301  10.584   7.537 -0.0380  0.0341 -0.1062
  175loPI   C1B 2797  13.418  10.037   9.185  0.0638  0.1225  0.0567
  175loPI   C2B 2798  13.380  10.117   8.734  0.2885 -0.3315 -0.1461
  175loPI   C3B 2799  13.260  10.026   8.225  0.3227 -0.1103  0.2766
  175loPI   C4B 2800  13.449  10.137   7.871 -0.1798 -0.1596 -0.1110
  176loPI    C1 2801   1.275  11.674  10.904  0.0517 -0.0357 -0.0157
  176loPI    C2 2802   1.537  11.398  11.026  0.0977  0.0199  0.0120
  176loPI    C3 2803   1.222  11.489  11.255  0.0870 -0.0036  0.0067
  176loPI   PO4 2804   1.182  11.608  10.658  0.0454  0.2034  0.1313
  176loPI   GL1 2805   1.197  11.540  10.171  0.1503  0.2663 -0.1283
  176loPI   GL2 2806   0.860  11.415  10.323  0.1755 -0.3960  0.0383
  176loPI   C1A 2807   1.087  11.790   9.844 -0.4469 -0.2642  0.1328
  176loPI   C2A 2808   1.073  11.877   9.459  0.2219 -0.1417 -0.1041
  176loPI   C3A 2809   0.981  11.853   9.140 -0.0600  0.0639  0.0551
  176loPI   C4A 2810   0.977  11.679   8.726  0.0105  0.2716  0.0723
  176loPI   C5A 2811   0.947  11.774   8.125  0.0267  0.2100 -0.2668
  176loPI   C6A 2812   1.348  11.917   7.847 -0.1991 -0.0702 -0.1383
  176loPI   C1B 2813   0.605  11.703  10.054  0.0426 -0.0884 -0.0220
  176loPI   C2B 2814   0.556  11.794   9.573 -0.3410 -0.0450  0.0749
  176loPI   C3B 2815   0.503  11.765   9.261 -0.2624  0.4561 -0.4127
  176loPI   C4B 2816   0.436  11.637   8.863 -0.0430  0.3208  0.2267
  177loPI    C1 2817   2.764   1.702  11.535 -0.0041  0.0011  0.0477
  177loPI    C2 2818   2.496   1.883  11.300  0.1750  0.1648 -0.0318
  177loPI    C3 2819   2.414   1.823  11.686 -0.0529  0.0435 -0.0979
  177loPI   PO4 2820   2.912   1.458  11.351  0.2155  0.2867  0.0931
  177loPI   GL1 2821   2.790   1.363  10.912 -0.1850 -0.0023  0.0915
  177loPI   GL2 2822   2.614   1.693  10.815 -0.0433 -0.0591 -0.1763
  177loPI   C1A 2823   2.949   1.330  10.474  0.0548 -0.0274 -0.2962
  177loPI   C2A 2824   2.971   1.484  10.004 -0.0993 -0.4421  0.0705
  177loPI   C3A 2825   3.061   1.328   9.574  0.1430 -0.4892  0.1244
  177loPI   C4A 2826   3.062   1.433   9.124  0.0698  0.1898 -0.3522
  177loPI   C5A 2827   2.985   1.383   8.641  0.0183 -0.0359 -0.2223
  177loPI   C6A 2828   3.236   1.044   8.456  0.3022 -0.0896 -0.4121
  177loPI   C1B 2829   2.659   1.841  10.379 -0.0311  0.2849  0.0534
  177loPI   C2B 2830   2.593   1.836   9.895 -0.0488 -0.2181  0.1350
  177loPI   C3B 2831   2.716   1.910   9.516  0.1110  0.2839  0.1614
  177loPI   C4B 2832   2.690   1.772   9.071  0.0324  0.0250 -0.0428
  178loPI    C1 2833   9.776   1.621  10.879 -0.0632 -0.0889 -0.0376
  178loPI    C2 2834   9.710   1.490  11.251  0.0227 -0.4192 -0.1353
  178loPI    C3 2835  10.003   1.753  11.181 -0.0314 -0.3111  0.0374
  178loPI   PO4 2836   9.781   1.412  10.715  0.0775 -0.0760  0.0108
  178loPI   GL1 2837   9.986   1.321  10.307 -0.2535 -0.2861  0.3532
  178loPI   GL2 2838  10.207   1.528  10.428  0.1070  0.2451 -0.1766
  178loPI   C1A 2839  10.145   1.313   9.938 -0.1325  0.0385  0.0663
  178loPI   C2A 2840  10.140   1.263   9.550 -0.0834 -0.1376  0.0020
  178loPI   C3A 2841  10.162   1.171   9.096  0.3292 -0.3638 -0.2196
  178loPI   C4A 2842   9.980   1.064   8.768 -0.0056 -0.1314 -0.2593
  178loPI   C5A 2843  10.076   0.603   8.580  0.0379 -0.0311 -0.1984
  178loPI   C6A 2844  10.097   0.212   8.547  0.0584 -0.0457  0.1668
  178loPI   C1B 2845  10.127   1.805  10.158  0.0958 -0.0631  0.0522
  178loPI   C2B 2846  10.239   1.797   9.732  0.1672 -0.2184 -0.1988
  178loPI   C3B 2847  10.377   1.847   9.376  0.0108  0.2635  0.0488
  178loPI   C4B 2848  10.314   1.651   9.004 -0.0401 -0.0687 -0.0843
  179loPI    C1 2849   2.790   8.376  10.306  0.2336  0.1284 -0.1369
  179loPI    C2 2850   3.010   8.523  10.606  0.1912  0.0848 -0.0844
  179loPI    C3 2851   2.671   8.706  10.499  0.0468 -0.0722  0.0967
  179loPI   PO4 2852   3.000   8.283  10.120  0.1319  0.1078  0.2445
  179loPI   GL1 2853   3.236   8.462   9.777 -0.2247 -0.3003 -0.1676
  179loPI   GL2 2854   2.893   8.527   9.697 -0.1542 -0.0045  0.2031
  179loPI   C1A 2855   3.377   8.556   9.334 -0.1123  0.0236  0.2265
  179loPI   C2A 2856   3.542   8.557   8.912  0.0483 -0.1211  0.2232
  179loPI   C3A 2857   3.556   8.635   8.495 -0.1541  0.0355  0.0991
  179loPI   C4A 2858   3.281   8.532   8.163  0.2075 -0.0253 -0.0511
  179loPI   C5A 2859   3.517   8.588   7.725 -0.1887 -0.0858 -0.0425
  179loPI   C6A 2860   3.491   8.457   7.268  0.0303  0.1228  0.2435
  179loPI   C1B 2861   2.883   8.445   9.344  0.1519  0.4958  0.2526
  179loPI   C2B 2862   2.703   8.368   8.963 -0.0644  0.0303 -0.1765
  179loPI   C3B 2863   2.717   8.356   8.515  0.0724 -0.1383 -0.1135
  179loPI   C4B 2864   2.742   8.188   8.068 -0.1301 -0.0152 -0.0035
  180loPI    C1 2865   1.166  16.887  11.404  0.0673 -0.0974  0.1400
  180loPI    C2 2866   1.404  17.196  11.492  0.1443 -0.1030 -0.0436
  180loPI    C3 2867   1.050  17.158  11.675  0.1426  0.0831 -0.0060
  180loPI   PO4 2868   1.213  16.954  11.079 -0.0381 -0.0333 -0.1961
  180loPI   GL1 2869   1.273  17.016  10.609 -0.1455  0.1584  0.1229
  180loPI   GL2 2870   1.619  17.088  10.515  0.0930  0.3157  0.1412
  180loPI   C1A 2871   1.164  16.953  10.203 -0.2099  0.2463  0.0066
  180loPI   C2A 2872   1.240  16.842   9.734  0.0925 -0.5773 -0.2621
  180loPI   C3A 2873   1.193  16.967   9.315  0.1474  0.0137  0.1901
  180loPI   C4A 2874   1.335  16.881   8.877  0.0799 -0.1654 -0.0733
  180loPI   C5A 2875   1.626  16.896   8.430 -0.3310 -0.3351  0.1119
  180loPI   C6A 2876   1.790  17.237   8.184  0.0294  0.1258 -0.1185
  180loPI   C1B 2877   1.710  17.009  10.067 -0.0697  0.0367 -0.0162
  180loPI   C2B 2878   1.716  17.032   9.629  0.0087  0.1891  0.1202
  180loPI   C3B 2879   1.689  17.073   9.288 -0.0807  0.3224 -0.1648
  180loPI   C4B 2880   1.898  16.910   8.848  0.1757 -0.1301  0.2520
  181loPI    C1 2881   1.853   4.360  10.835  0.1541  0.1003  0.0924
  181loPI    C2 2882   1.472   4.239  10.830  0.2140 -0.0941  0.1443
  181loPI    C3 2883   1.562   4.612  10.942  0.0094  0.0684 -0.2167
  181loPI   PO4 2884   1.973   4.321  10.679 -0.0953 -0.1240 -0.1745
  181loPI   GL1 2885   2.108   4.005  10.266 -0.1244  0.1785  0.3838
  181loPI   GL2 2886   2.376   4.142  10.062  0.0896 -0.0512 -0.1135
  181loPI   C1A 2887   1.954   4.046   9.794  0.1710 -0.1843 -0.1909
  181loPI   C2A 2888   1.973   4.061   9.378  0.2241 -0.0388  0.1305
  181loPI   C3A 2889   1.842   3.983   8.880 -0.1459 -0.0197 -0.1271
  181loPI   C4A 2890   1.917   3.955   8.459 -0.1095 -0.2456  0.1962
  181loPI   C5A 2891   1.671   3.750   8.172  0.0839 -0.0628 -0.2233
  181loPI   C6A 2892   1.161   3.778   8.070  0.1516  0.1476  0.1852
  181loPI   C1B 2893   2.424   4.137   9.668 -0.4529  0.3146 -0.1011
  181loPI   C2B 2894   2.427   4.151   9.191 -0.1164  0.2687 -0.2692
  181loPI   C3B 2895   2.438   4.063   8.713  0.0606  0.0019  0.0857
  181loPI   C4B 2896   2.436   3.983   8.288 -0.1433 -0.1640 -0.1249
  182loPI    C1 2897  11.729   1.679  11.446 -0.0471 -0.0615 -0.0442
  182loPI    C2 2898  11.615   1.782  11.816 -0.1081  0.1063 -0.1092
  182loPI    C3 2899  11.511   1.426  11.667 -0.1147  0.0533  0.0214
  182loPI   PO4 2900  11.574   1.794  11.231 -0.0914  0.0517 -0.0474
  182loPI   GL1 2901  11.317   1.920  10.802  0.3729 -0.2085 -0.1324
  182loPI   GL2 2902  11.280   1.519  10.758  0.3460  0.1738  0.2191
  182loPI   C1A 2903  11.467   1.860  10.390  0.0243  0.3872 -0.1649
  182loPI   C2A 2904  11.549   1.730  10.020 -0.0846 -0.0046  0.1852
  182loPI   C3A 2905  11.591   1.656   9.671  0.1255 -0.2909  0.0886
  182loPI   C4A 2906  11.643   1.584   9.184  0.1604  0.1041 -0.0053
  182loPI   C5A 2907  11.784   1.606   8.831 -0.4490 -0.6023 -0.0008
  182loPI   C6A 2908  11.514   1.339   8.650 -0.2547  0.0669 -0.0202
  182loPI   C1B 2909  11.511   1.319  10.390  0.1217  0.2201 -0.1863
  182loPI   C2B 2910  11.420   1.181   9.982 -0.1874 -0.0513 -0.0031
  182loPI   C3B 2911  11.459   1.117   9.453  0.0488 -0.1419 -0.1504
  182loPI   C4B 2912  11.551   1.042   9.066  0.1513  0.2019 -0.0542
  183loPI    C1 2913   7.741  17.049  11.132 -0.0397  0.0961  0.0459
  183loPI    C2 2914   7.434  17.023  11.387 -0.0534  0.1222  0.0320
  183loPI    C3 2915   7.747  17.256  11.475 -0.0760  0.1624  0.0067
  183loPI   PO4 2916   7.521  17.129  10.896 -0.0120  0.1237 -0.3385
  183loPI   GL1 2917   7.267  17.101  10.592 -0.1758  0.1647  0.2406
  183loPI   GL2 2918   7.519  16.833  10.448 -0.3374  0.0100 -0.3854
  183loPI   C1A 2919   7.005  17.258  10.239 -0.1871 -0.1699 -0.2861
  183loPI   C2A 2920   7.082  17.324   9.857 -0.2455  0.0711 -0.1239
  183loPI   C3A 2921   7.141  17.327   9.378  0.2272  0.3318 -0.0711
  183loPI   C4A 2922   6.995  17.369   8.959  0.0269 -0.0939 -0.1460
  183loPI   C5A 2923   7.099  17.535   8.498  0.0370 -0.0888 -0.3196
  183loPI   C6A 2924   6.894  17.675   8.032  0.1836 -0.0115 -0.1662
  183loPI   C1B 2925   7.500  16.796  10.063 -0.0022 -0.1592  0.0107
  183loPI   C2B 2926   7.372  16.927   9.609  0.0978 -0.0359 -0.1220
  183loPI   C3B 2927   7.436  16.850   9.122 -0.0862 -0.0613 -0.1374
  183loPI   C4B 2928   7.324  17.100   8.756  0.0039 -0.0930 -0.0091
  184loPI    C1 2929  12.145  12.125  10.639 -0.0547  0.1815  0.0402
  184loPI    C2 2930  12.103  12.168  11.035  0.0944 -0.0034  0.0778
  184loPI    C3 2931  12.430  11.991  10.886 -0.0044 -0.0200 -0.1237
  184loPI   PO4 2932  11.983  12.220  10.537 -0.1258  0.1124  0.1341
  184loPI   GL1 2933  12.037  12.385  10.142  0.1690 -0.2375 -0.1946
  184loPI   GL2 2934  11.749  12.626  10.046 -0.1549 -0.2371 -0.2119
  184loPI   C1A 2935  12.345  12.195   9.804  0.1696 -0.2209 -0.2606
  184loPI   C2A 2936  12.350  12.383   9.412 -0.0891  0.2914 -0.0324
  184loPI   C3A 2937  12.378  12.448   8.986  0.2095 -0.0975  0.0978
  184loPI   C4A 2938  12.158  12.504   8.581 -0.0208 -0.1370 -0.0512
  184loPI   C5A 2939  12.133  12.722   8.136 -0.1881 -0.1039 -0.0614
  184loPI   C6A 2940  12.239  12.930   7.786  0.3758  0.1575  0.0976
  184loPI   C1B 2941  12.028  12.667   9.685 -0.3233  0.2147 -0.3039
  184loPI   C2B 2942  12.005  12.710   9.236  0.0003  0.0396 -0.0816
  184loPI   C3B 2943  11.994  12.891   8.845 -0.1171 -0.0016  0.1197
  184loPI   C4B 2944  12.233  13.142   8.392  0.2242  0.0269  0.1595
  185loPI    C1 2945  18.155  13.633  11.202  0.3154  0.2112 -0.1185
  185loPI    C2 2946  17.954  13.816  11.495  0.0560  0.0252 -0.1761
  185loPI    C3 2947  18.175  13.492  11.576 -0.0688 -0.0657 -0.1951
  185loPI   PO4 2948  18.111  13.825  11.040 -0.0491 -0.2552 -0.0664
  185loPI   GL1 2949  18.179  13.965  10.664  0.1104  0.2591 -0.2484
  185loPI   GL2 2950  18.458  13.863  10.569  0.1442 -0.1847  0.0915
  185loPI   C1A 2951  18.053  14.181  10.331  0.1831  0.1724 -0.1316
  185loPI   C2A 2952  18.071  14.240   9.895 -0.1643  0.0036 -0.0171
  185loPI   C3A 2953  18.065  14.363   9.440 -0.2144  0.4299  0.2140
  185loPI   C4A 2954  18.105  14.313   8.985 -0.1483 -0.1421  0.0820
  185loPI   C5A 2955  17.906  14.584   8.700  0.3534  0.2496  0.3093
  185loPI   C6A 2956  17.554  14.712   8.452 -0.2601  0.0977 -0.0792
  185loPI   C1B 2957  18.519  13.844  10.068 -0.1865  0.0496  0.1321
  185loPI   C2B 2958  18.522  13.852   9.659 -0.1388 -0.0637 -0.2453
  185loPI   C3B 2959  18.526  13.908   9.186 -0.1593 -0.2315 -0.2008
  185loPI   C4B 2960  18.479  13.952   8.763 -0.1023  0.2397 -0.1462
  186loPI    C1 2961  13.697   2.140  11.288  0.0870 -0.0440  0.0168
  186loPI    C2 2962  13.463   1.834  11.397 -0.0911  0.0533 -0.0893
  186loPI    C3 2963  13.809   1.898  11.586 -0.1550 -0.0851  0.0767
  186loPI   PO4 2964  13.649   2.039  11.002 -0.0069  0.0785 -0.0682
  186loPI   GL1 2965  13.812   1.932  10.530 -0.0325  0.4306  0.1002
  186loPI   GL2 2966  14.074   1.801  10.311  0.2887 -0.1718 -0.2427
  186loPI   C1A 2967  13.611   2.156  10.184  0.0033 -0.1831  0.2504
  186loPI   C2A 2968  13.685   2.145   9.703  0.1471 -0.0478 -0.1455
  186loPI   C3A 2969  13.723   2.066   9.206  0.4313  0.2260 -0.3108
  186loPI   C4A 2970  13.759   2.080   8.770  0.1186  0.1924 -0.0704
  186loPI   C5A 2971  13.585   1.919   8.382  0.1369  0.0153 -0.1288
  186loPI   C6A 2972  13.752   1.802   8.035  0.3178  0.1556 -0.1119
  186loPI   C1B 2973  13.946   1.777   9.918  0.5176  0.0292 -0.0128
  186loPI   C2B 2974  13.983   1.669   9.437 -0.1163  0.0211 -0.1657
  186loPI   C3B 2975  14.080   1.780   9.025 -0.1852  0.2862  0.1636
  186loPI   C4B 2976  14.007   1.673   8.620 -0.0198  0.2249  0.1746
  187loPI    C1 2977  13.366   4.917  10.481 -0.0497 -0.2086 -0.0109
  187loPI    C2 2978  13.583   4.864  10.813  0.0364  0.2786  0.0184
  187loPI    C3 2979  13.766   4.927  10.463 -0.0566 -0.0544 -0.0943
  187loPI   PO4 2980  13.133   5.034  10.572  0.0921 -0.0764  0.0681
  187loPI   GL1 2981  12.880   5.064  10.213 -0.1026 -0.2265 -0.1780
  187loPI   GL2 2982  13.069   4.777  10.062  0.2678 -0.4124  0.1824
  187loPI   C1A 2983  12.769   5.166   9.833  0.2195  0.2732  0.1060
  187loPI   C2A 2984  12.705   5.157   9.475  0.0961 -0.1639 -0.1126
  187loPI   C3A 2985  12.646   5.093   9.076 -0.0993 -0.1041 -0.2501
  187loPI   C4A 2986  12.776   5.009   8.709  0.2220 -0.2794 -0.0304
  187loPI   C5A 2987  12.869   4.930   8.232  0.1802  0.0623  0.5313
  187loPI   C6A 2988  12.961   5.030   7.775  0.1053  0.0901 -0.1119
  187loPI   C1B 2989  13.074   4.774   9.612  0.2810 -0.2186 -0.1695
  187loPI   C2B 2990  13.142   4.775   9.216 -0.0762 -0.0567  0.2546
  187loPI   C3B 2991  13.181   4.688   8.716 -0.4456 -0.0473 -0.1263
  187loPI   C4B 2992  13.270   4.658   8.337  0.1811 -0.1137  0.0328
  188loPI    C1 2993  17.333  16.601  11.080 -0.0760 -0.0270  0.0030
  188loPI    C2 2994  17.511  16.531  11.431 -0.3340 -0.0216  0.1371
  188loPI    C3 2995  17.112  16.519  11.403 -0.3227  0.1355 -0.1213
  188loPI   PO4 2996  17.582  16.529  10.949  0.3060 -0.0269 -0.1137
  188loPI   GL1 2997  17.709  16.734  10.733  0.1568  0.0547 -0.0680
  188loPI   GL2 2998  17.556  16.890  10.519 -0.3676  0.2807 -0.1594
  188loPI   C1A 2999  17.865  16.570  10.299 -0.1922 -0.2263  0.3221
  188loPI   C2A 3000  17.909  16.539   9.829  0.2593 -0.0751  0.0588
  188loPI   C3A 3001  17.851  16.493   9.383 -0.1152  0.3480  0.1017
  188loPI   C4A 3002  17.973  16.576   8.973  0.0483 -0.0635  0.0093
  188loPI   C5A 3003  17.816  16.721   8.547 -0.2043  0.1490  0.0669
  188loPI   C6A 3004  17.746  17.056   8.351  0.1633 -0.1421 -0.0811
  188loPI   C1B 3005  17.468  17.015  10.129 -0.1497  0.0459 -0.0676
  188loPI   C2B 3006  17.465  17.025   9.676  0.0023  0.0182  0.0329
  188loPI   C3B 3007  17.542  16.842   9.263 -0.4130 -0.0410 -0.2717
  188loPI   C4B 3008  17.520  16.989   8.866  0.2383 -0.1739  0.2178
  189loPI    C1 3009   7.243   8.877   9.914 -0.4212  0.1676  0.0321
  189loPI    C2 3010   7.403   9.243   9.913  0.0982 -0.0515 -0.0088
  189loPI    C3 3011   7.519   8.974  10.186 -0.1956 -0.2238 -0.0493
  189loPI   PO4 3012   7.268   8.841   9.565 -0.2315  0.0881  0.0300
  189loPI   GL1 3013   7.400   9.077   9.174 -0.2641 -0.2578  0.0769
  189loPI   GL2 3014   7.527   9.409   9.319 -0.2695 -0.0933  0.0045
  189loPI   C1A 3015   7.195   9.236   8.795 -0.1715  0.0568 -0.1388
  189loPI   C2A 3016   6.984   9.382   8.452  0.0348 -0.0785 -0.1185
  189loPI   C3A 3017   6.730   9.532   8.172  0.0243 -0.1952 -0.2969
  189loPI   C4A 3018   6.812   9.678   7.760 -0.0095  0.2275  0.3550
  189loPI   C5A 3019   6.628  10.033   7.629 -0.0406 -0.0420  0.3010
  189loPI   C6A 3020   6.624  10.284   7.269  0.0547  0.2566 -0.3034
  189loPI   C1B 3021   7.562   9.529   8.919 -0.3063 -0.2761 -0.0251
  189loPI   C2B 3022   7.430   9.600   8.457  0.2447  0.2245 -0.1835
  189loPI   C3B 3023   7.274   9.648   8.109  0.0774 -0.3094  0.1718
  189loPI   C4B 3024   7.265   9.847   7.652  0.1427  0.1200  0.1156
  190loPI    C1 3025  15.382  11.861  10.573 -0.0829  0.1777 -0.2298
  190loPI    C2 3026  15.252  12.159  10.806 -0.1000  0.2434 -0.3229
  190loPI    C3 3027  15.634  12.149  10.689 -0.0296  0.0736 -0.0853
  190loPI   PO4 3028  15.130  11.755  10.466 -0.2224  0.0050  0.0853
  190loPI   GL1 3029  14.973  12.024  10.178 -0.3021  0.0524 -0.3050
  190loPI   GL2 3030  14.605  11.997  10.220 -0.0910 -0.2079  0.2849
  190loPI   C1A 3031  15.065  12.118   9.724 -0.2718  0.4227 -0.1359
  190loPI   C2A 3032  15.096  12.170   9.224 -0.4588 -0.0245 -0.0050
  190loPI   C3A 3033  14.992  12.148   8.811 -0.2364 -0.2113  0.3472
  190loPI   C4A 3034  15.014  11.987   8.303  0.3007 -0.2499 -0.1612
  190loPI   C5A 3035  14.925  11.909   7.831 -0.1336  0.1310 -0.1051
  190loPI   C6A 3036  14.717  12.375   7.897 -0.0299 -0.1287 -0.2556
  190loPI   C1B 3037  14.589  11.944   9.787 -0.0842 -0.0651  0.0138
  190loPI   C2B 3038  14.509  12.087   9.477 -0.0916 -0.2347  0.2000
  190loPI   C3B 3039  14.488  12.095   9.067 -0.3951  0.1080 -0.0800
  190loPI   C4B 3040  14.557  12.067   8.600  0.0283  0.1291 -0.1111
  191loPI    C1 3041  13.606  10.256  10.106  0.0788 -0.3184  0.0339
  191loPI    C2 3042  13.809  10.079  10.402  0.0749 -0.0274  0.2144
  191loPI    C3 3043  13.413  10.131  10.434  0.0165 -0.3138 -0.0009
  191loPI   PO4 3044  13.695  10.457  10.053 -0.1104 -0.2365 -0.1344
  191loPI   GL1 3045  13.977  10.647   9.715  0.0022  0.2888 -0.1316
  191loPI   GL2 3046  13.769  10.900   9.787 -0.2492  0.1532  0.2057
  191loPI   C1A 3047  14.156  10.586   9.356  0.2243  0.0732  0.0989
  191loPI   C2A 3048  14.060  10.626   8.956  0.0468  0.0637  0.2645
  191loPI   C3A 3049  14.041  10.628   8.507  0.2202 -0.0447 -0.0872
  191loPI   C4A 3050  13.898  10.501   8.096  0.1475  0.3791 -0.3424
  191loPI   C5A 3051  13.821  10.453   7.573 -0.1280  0.1855 -0.1454
  191loPI   C6A 3052  13.778  10.074   7.404  0.1417  0.0231  0.1371
  191loPI   C1B 3053  13.804  11.010   9.343  0.0336 -0.0330 -0.1565
  191loPI   C2B 3054  13.770  10.998   8.768 -0.4179 -0.0214  0.2997
  191loPI   C3B 3055  13.707  11.003   8.345 -0.0594  0.1099 -0.1748
  191loPI   C4B 3056  13.469  10.751   7.999  0.1052 -0.0634 -0.0854
  192loPI    C1 3057  12.153  11.629  10.710  0.2989 -0.1493 -0.1567
  192loPI    C2 3058  11.826  11.712  10.494  0.2315  0.0105  0.0032
  192loPI    C3 3059  11.796  11.493  10.827  0.3004 -0.0410 -0.0238
  192loPI   PO4 3060  12.407  11.684  10.469 -0.2169 -0.0486  0.2141
  192loPI   GL1 3061  12.734  11.980  10.503 -0.0286  0.0960 -0.0285
  192loPI   GL2 3062  12.518  12.236  10.295 -0.0678  0.0896 -0.0572
  192loPI   C1A 3063  12.678  11.852   9.918  0.2778 -0.0587  0.3556
  192loPI   C2A 3064  12.714  12.022   9.421  0.0805 -0.1973  0.1870
  192loPI   C3A 3065  12.758  12.107   9.116  0.2297 -0.2010 -0.1261
  192loPI   C4A 3066  12.712  12.096   8.732 -0.1615  0.0364  0.0023
  192loPI   C5A 3067  12.744  12.490   8.470  0.1141  0.0585  0.0780
  192loPI   C6A 3068  12.549  12.850   8.269 -0.1983  0.1447 -0.0683
  192loPI   C1B 3069  12.753  12.322   9.990 -0.0446  0.0741  0.2953
  192loPI   C2B 3070  12.757  12.487   9.670  0.0060 -0.3569 -0.0812
  192loPI   C3B 3071  12.865  12.530   9.355  0.0569 -0.0162  0.0266
  192loPI   C4B 3072  12.874  12.611   8.962 -0.2503 -0.1723 -0.1637
  193loPI    C1 3073   2.194  15.153  11.329 -0.0181 -0.1583 -0.1044
  193loPI    C2 3074   2.299  14.931  11.645  0.0646 -0.0600 -0.0619
  193loPI    C3 3075   2.509  15.258  11.553  0.0233 -0.0724 -0.2023
  193loPI   PO4 3076   2.301  15.009  11.115  0.1926 -0.0877  0.4131
  193loPI   GL1 3077   2.446  15.091  10.676  0.1446 -0.0440 -0.0656
  193loPI   GL2 3078   2.502  14.850  10.492  0.0208 -0.0786 -0.1031
  193loPI   C1A 3079   2.506  15.372  10.305  0.3451  0.1652  0.0099
  193loPI   C2A 3080   2.530  15.391   9.817 -0.1598  0.0019  0.1107
  193loPI   C3A 3081   2.734  15.385   9.411 -0.0621 -0.0052 -0.0930
  193loPI   C4A 3082   2.717  15.382   8.996  0.2043  0.0668 -0.0031
  193loPI   C5A 3083   2.569  15.342   8.627  0.4859 -0.1368  0.0140
  193loPI   C6A 3084   2.668  15.016   8.306  0.1714 -0.1062 -0.2123
  193loPI   C1B 3085   2.455  14.901  10.020 -0.1703  0.1481  0.0766
  193loPI   C2B 3086   2.486  14.928   9.620  0.2830 -0.1895  0.2788
  193loPI   C3B 3087   2.495  14.847   9.141 -0.2323 -0.0852 -0.3040
  193loPI   C4B 3088   2.523  14.882   8.802 -0.1139  0.1860  0.0703
  194loPI    C1 3089  12.328  10.864  10.268 -0.2434  0.1507  0.1828
  194loPI    C2 3090  12.472  11.107  10.552  0.1403  0.1732 -0.0232
  194loPI    C3 3091  12.691  10.799  10.422  0.0071  0.2135 -0.3558
  194loPI   PO4 3092  12.351  10.999  10.041  0.1911  0.0862  0.1183
  194loPI   GL1 3093  12.176  10.846   9.663  0.0547 -0.0802  0.0309
  194loPI   GL2 3094  11.931  10.672   9.684 -0.2671 -0.1091  0.3339
  194loPI   C1A 3095  12.346  11.136   9.355  0.1890  0.2159 -0.1039
  194loPI   C2A 3096  12.308  11.327   8.950  0.3898 -0.2174  0.1919
  194loPI   C3A 3097  12.285  11.131   8.576  0.6220 -0.0700  0.0987
  194loPI   C4A 3098  12.286  11.148   8.159 -0.1543 -0.0055  0.2578
  194loPI   C5A 3099  12.493  10.896   7.980 -0.0513  0.0800  0.3037
  194loPI   C6A 3100  12.775  10.908   7.639 -0.0512 -0.2557 -0.2391
  194loPI   C1B 3101  12.021  10.690   9.251  0.1261 -0.0617  0.1163
  194loPI   C2B 3102  12.021  10.712   8.914 -0.0829 -0.0989  0.3566
  194loPI   C3B 3103  12.056  10.707   8.482  0.0129 -0.0319 -0.0358
  194loPI   C4B 3104  11.966  10.755   8.063 -0.0060 -0.0989 -0.2064
  195loPI    C1 3105   6.229   6.519  10.180  0.1468 -0.1199 -0.0649
  195loPI    C2 3106   6.388   6.314  10.484 -0.0790  0.1337  0.2299
  195loPI    C3 3107   6.611   6.576  10.281  0.0847 -0.0692  0.1448
  195loPI   PO4 3108   6.071   6.331  10.059 -0.0466  0.0005  0.0821
  195loPI   GL1 3109   5.783   6.038   9.889  0.0143  0.0127  0.2186
  195loPI   GL2 3110   5.957   5.836   9.855  0.3456  0.1280 -0.0015
  195loPI   C1A 3111   5.449   5.827   9.757 -0.0501  0.1861 -0.1775
  195loPI   C2A 3112   5.285   5.706   9.420  0.1247 -0.2152 -0.0282
  195loPI   C3A 3113   5.224   5.617   8.961 -0.2659 -0.1346  0.3101
  195loPI   C4A 3114   5.261   5.532   8.602 -0.0714 -0.3997 -0.2854
  195loPI   C5A 3115   5.071   5.597   8.123 -0.2457 -0.0069  0.0130
  195loPI   C6A 3116   5.008   5.747   7.789  0.0860 -0.0083 -0.1622
  195loPI   C1B 3117   5.811   5.852   9.442 -0.0070 -0.0059  0.3647
  195loPI   C2B 3118   5.698   5.781   9.059 -0.2272  0.1602 -0.1764
  195loPI   C3B 3119   5.754   5.716   8.675 -0.0104  0.3183 -0.1712
  195loPI   C4B 3120   5.641   5.645   8.283 -0.0840  0.2371  0.0409
  196loPI    C1 3121   3.334  12.832  10.920  0.1444 -0.2672 -0.2038
  196loPI    C2 3122   3.635  12.771  11.177  0.1024  0.2319 -0.0254
  196loPI    C3 3123   3.261  12.673  11.280  0.1408  0.0372 -0.0671
  196loPI   PO4 3124   3.471  12.968  10.721 -0.3590 -0.1802 -0.1201
  196loPI   GL1 3125   3.478  13.019  10.350  0.0384 -0.0152 -0.4328
  196loPI   GL2 3126   3.637  12.788  10.108 -0.2944 -0.0196 -0.0068
  196loPI   C1A 3127   3.354  13.216   9.974 -0.3406  0.5017 -0.0419
  196loPI   C2A 3128   3.361  13.318   9.489 -0.0846  0.0107 -0.0457
  196loPI   C3A 3129   3.377  13.245   9.018 -0.1110 -0.4821 -0.1401
  196loPI   C4A 3130   3.301  13.205   8.613 -0.0230 -0.1627 -0.3060
  196loPI   C5A 3131   3.290  13.244   8.166  0.0460  0.0585 -0.1238
  196loPI   C6A 3132   3.304  13.312   7.790 -0.1186 -0.0948 -0.0118
  196loPI   C1B 3133   3.744  12.875   9.826  0.0745  0.1694  0.2756
  196loPI   C2B 3134   3.712  12.908   9.376  0.0026  0.1644 -0.1323
  196loPI   C3B 3135   3.628  12.851   8.918 -0.0212  0.0872 -0.1548
  196loPI   C4B 3136   3.697  12.903   8.536 -0.0899 -0.3266 -0.0217
  197loPI    C1 3137  17.223   5.136  10.488  0.1770 -0.1520 -0.0615
  197loPI    C2 3138  17.092   5.109  10.865  0.0892 -0.1454 -0.0912
  197loPI    C3 3139  17.428   5.310  10.784  0.0243 -0.0141 -0.0356
  197loPI   PO4 3140  17.072   5.244  10.381  0.0858 -0.2542 -0.0938
  197loPI   GL1 3141  16.964   5.317   9.985  0.0080 -0.4755  0.1325
  197loPI   GL2 3142  17.118   5.565   9.918 -0.0120  0.0404  0.0501
  197loPI   C1A 3143  17.105   5.166   9.608 -0.1845  0.1764 -0.0476
  197loPI   C2A 3144  17.025   5.038   9.292  0.0264  0.0019  0.0513
  197loPI   C3A 3145  17.038   5.041   8.862  0.1736  0.0901  0.0550
  197loPI   C4A 3146  17.137   5.132   8.498  0.0606  0.1065  0.0656
  197loPI   C5A 3147  17.228   5.101   8.138  0.2914  0.3145 -0.3769
  197loPI   C6A 3148  17.621   5.018   7.881 -0.0437  0.0164 -0.0671
  197loPI   C1B 3149  17.224   5.641   9.518  0.1469  0.1459 -0.0964
  197loPI   C2B 3150  17.256   5.618   9.144 -0.0057  0.0563 -0.0722
  197loPI   C3B 3151  17.197   5.626   8.763 -0.1220  0.0621  0.0324
  197loPI   C4B 3152  17.222   5.734   8.332 -0.1396 -0.0640  0.2099
  198loPI    C1 3153   5.673   3.997  10.850 -0.0116 -0.1695 -0.0087
  198loPI    C2 3154   5.680   4.083  11.240 -0.0044 -0.1677 -0.0093
  198loPI    C3 3155   5.434   4.283  10.996  0.1477 -0.0176 -0.0416
  198loPI   PO4 3156   5.644   3.724  10.749 -0.2446  0.2155 -0.2287
  198loPI   GL1 3157   5.669   3.439  10.444 -0.1342  0.1000  0.3535
  198loPI   GL2 3158   5.888   3.190  10.419  0.1727  0.1007 -0.1794
  198loPI   C1A 3159   5.569   3.457   9.970  0.0455 -0.2817 -0.3878
  198loPI   C2A 3160   5.464   3.428   9.525  0.0808 -0.2549 -0.2488
  198loPI   C3A 3161   5.444   3.394   9.103 -0.2755  0.1567  0.0026
  198loPI   C4A 3162   5.565   3.377   8.724  0.1845 -0.0156  0.1234
  198loPI   C5A 3163   5.656   3.697   8.361  0.0814 -0.0100 -0.0155
  198loPI   C6A 3164   6.034   3.722   7.985  0.1670 -0.3914 -0.0956
  198loPI   C1B 3165   5.940   3.088  10.039 -0.0166  0.1710  0.1278
  198loPI   C2B 3166   5.873   3.067   9.627  0.1751 -0.1084  0.0886
  198loPI   C3B 3167   5.856   3.031   9.173  0.0695  0.0437  0.0303
  198loPI   C4B 3168   5.941   2.978   8.729 -0.1194 -0.3079  0.0052
  199loPI    C1 3169   0.418   2.776  10.863 -0.0903 -0.0409 -0.2751
  199loPI    C2 3170   0.135   2.497  10.815 -0.0074 -0.1721 -0.0180
  199loPI    C3 3171   0.497   2.393  10.949  0.0716  0.0383 -0.0643
  199loPI   PO4 3172   0.282   2.953  10.892  0.0533 -0.2048  0.1969
  199loPI   GL1 3173   0.108   3.036  10.493  0.4683  0.2261 -0.1234
  199loPI   GL2 3174  -0.133   3.247  10.400  0.0712 -0.0350  0.0777
  199loPI   C1A 3175   0.092   2.835  10.075  0.2194 -0.3183  0.4591
  199loPI   C2A 3176   0.049   2.634   9.699  0.1776  0.0457 -0.1261
  199loPI   C3A 3177  -0.103   2.618   9.293 -0.3648 -0.0231 -0.1840
  199loPI   C4A 3178  -0.031   2.575   8.913 -0.0469  0.1901  0.0072
  199loPI   C5A 3179  -0.274   2.455   8.540 -0.0688  0.1220 -0.2491
  199loPI   C6A 3180  -0.534   2.642   8.268  0.0493 -0.0102 -0.1013
  199loPI   C1B 3181  -0.352   3.110  10.022 -0.0502  0.1346 -0.1091
  199loPI   C2B 3182  -0.328   2.992   9.562 -0.0853 -0.0257  0.4071
  199loPI   C3B 3183  -0.408   3.021   9.061 -0.1278  0.2003 -0.0579
  199loPI   C4B 3184  -0.429   2.932   8.674 -0.1352  0.2535  0.0534
  200loPI    C1 3185   3.040   5.876  10.877 -0.0006  0.1236  0.0538
  200loPI    C2 3186   3.206   5.609  11.125 -0.1496  0.1219  0.1528
  200loPI    C3 3187   3.050   5.947  11.271 -0.2042  0.1382  0.0570
  200loPI   PO4 3188   3.122   5.754  10.608 -0.3864 -0.2907 -0.0627
  200loPI   GL1 3189   3.011   5.658  10.238 -0.1644  0.3661  0.4112
  200loPI   GL2 3190   3.144   5.373  10.282 -0.1628 -0.0289 -0.1154
  200loPI   C1A 3191   2.888   5.574   9.823 -0.0748 -0.0519  0.0449
  200loPI   C2A 3192   2.869   5.671   9.397  0.0618  0.1938 -0.3286
  200loPI   C3A 3193   2.865   5.546   8.895 -0.1818  0.1211 -0.0155
  200loPI   C4A 3194   2.919   5.511   8.490 -0.1341  0.1429  0.0408
  200loPI   C5A 3195   3.077   5.581   8.054  0.2156  0.1207 -0.4090
  200loPI   C6A 3196   3.126   5.596   7.563 -0.0392 -0.0206 -0.2027
  200loPI   C1B 3197   3.276   5.247   9.975  0.0386 -0.0106  0.0998
  200loPI   C2B 3198   3.231   5.314   9.563  0.0394 -0.4386  0.1143
  200loPI   C3B 3199   3.191   5.176   9.211 -0.3123  0.0369  0.0230
  200loPI   C4B 3200   3.217   5.129   8.773 -0.0708  0.1613  0.2089
  201loPI    C1 3201   9.569   1.062  11.048 -0.1884 -0.1766 -0.2545
  201loPI    C2 3202   9.361   0.877  11.335 -0.3066  0.1607 -0.1173
  201loPI    C3 3203   9.299   1.265  11.262  0.1658  0.2302 -0.1792
  201loPI   PO4 3204   9.491   0.876  10.805 -0.1761 -0.0161  0.1863
  201loPI   GL1 3205   9.493   0.844  10.264  0.1978  0.0886  0.1328
  201loPI   GL2 3206   9.505   1.113  10.360  0.0876 -0.0781 -0.2167
  201loPI   C1A 3207   9.492   0.712   9.791  0.1197 -0.0407  0.1761
  201loPI   C2A 3208   9.479   0.628   9.336 -0.0325 -0.2974  0.1758
  201loPI   C3A 3209   9.480   0.672   8.854 -0.0634 -0.0722 -0.0205
  201loPI   C4A 3210   9.484   0.874   8.506  0.1964  0.2478 -0.1435
  201loPI   C5A 3211   9.644   1.280   8.402 -0.1542  0.1300 -0.2270
  201loPI   C6A 3212  10.072   1.491   8.456  0.0477  0.1041  0.0944
  201loPI   C1B 3213   9.632   1.191   9.911 -0.1894 -0.0848 -0.0950
  201loPI   C2B 3214   9.637   1.110   9.537 -0.1755  0.0277  0.1391
  201loPI   C3B 3215   9.616   1.097   9.125 -0.1828  0.2469  0.1649
  201loPI   C4B 3216   9.515   1.206   8.859  0.2799  0.3264  0.0765
  202loPI    C1 3217  17.732   1.207  11.231  0.1813 -0.0975  0.0721
  202loPI    C2 3218  17.943   0.903  11.383  0.1830 -0.1767 -0.0862
  202loPI    C3 3219  17.843   1.213  11.615  0.4699 -0.1392 -0.0084
  202loPI   PO4 3220  17.903   1.318  10.992 -0.1913 -0.2361  0.2189
  202loPI   GL1 3221  17.983   1.314  10.593  0.0087  0.3441  0.0358
  202loPI   GL2 3222  18.214   1.313  10.439 -0.1270 -0.1343  0.2823
  202loPI   C1A 3223  17.794   1.588  10.321 -0.2537  0.1270  0.2633
  202loPI   C2A 3224  17.855   1.701   9.937  0.1454 -0.1134  0.5201
  202loPI   C3A 3225  17.812   1.646   9.502  0.3255 -0.0904 -0.1396
  202loPI   C4A 3226  17.906   1.597   9.095 -0.2349  0.1039 -0.0859
  202loPI   C5A 3227  18.129   1.582   8.774  0.0366  0.1310  0.1674
  202loPI   C6A 3228  18.515   1.597   8.538  0.2113 -0.1204 -0.3919
  202loPI   C1B 3229  18.238   1.203  10.002  0.0900 -0.4190  0.0669
  202loPI   C2B 3230  18.170   1.233   9.641  0.2468 -0.0931  0.0315
  202loPI   C3B 3231  18.298   1.213   9.247 -0.1691 -0.0561  0.0886
  202loPI   C4B 3232  18.388   1.175   8.753  0.2303  0.1013  0.0334
  203loPI    C1 3233  11.770   8.092  10.143  0.1598  0.0061  0.1801
  203loPI    C2 3234  11.466   8.165  10.393 -0.0672 -0.0555 -0.0731
  203loPI    C3 3235  11.748   7.899  10.492 -0.2632 -0.2265  0.0318
  203loPI   PO4 3236  11.674   7.987   9.972  0.1687 -0.2095  0.1092
  203loPI   GL1 3237  11.389   8.125   9.634 -0.0217  0.1147 -0.3119
  203loPI   GL2 3238  11.058   8.152   9.650 -0.1445  0.0364  0.0467
  203loPI   C1A 3239  11.226   7.737   9.348 -0.2965  0.4865  0.1133
  203loPI   C2A 3240  11.246   7.563   9.033 -0.0380 -0.0788  0.1597
  203loPI   C3A 3241  11.189   7.618   8.620  0.1299  0.2300 -0.3820
  203loPI   C4A 3242  11.237   7.851   8.218 -0.0277  0.1037 -0.1444
  203loPI   C5A 3243  11.253   7.788   7.751  0.3250 -0.3462 -0.0335
  203loPI   C6A 3244  11.345   7.946   7.375 -0.1948  0.0885 -0.0687
  203loPI   C1B 3245  11.106   8.190   9.200  0.2613 -0.0089 -0.1926
  203loPI   C2B 3246  11.158   8.132   8.792 -0.1748  0.0166  0.0040
  203loPI   C3B 3247  11.237   8.293   8.432  0.1986  0.3594  0.1178
  203loPI   C4B 3248  11.314   8.322   7.969  0.0117 -0.1189  0.0050
  204loPI    C1 3249   7.542   3.723  11.038 -0.2917  0.1195 -0.0498
  204loPI    C2 3250   7.536   4.122  11.059 -0.1876  0.1339 -0.2692
  204loPI    C3 3251   7.538   3.905  11.394 -0.0422  0.3210 -0.1464
  204loPI   PO4 3252   7.754   3.661  10.828  0.1140  0.2873  0.3417
  204loPI   GL1 3253   7.748   3.588  10.347  0.1654  0.0974  0.1099
  204loPI   GL2 3254   7.495   3.800  10.197  0.0836 -0.1842  0.3343
  204loPI   C1A 3255   7.851   3.528   9.881 -0.0129  0.0074  0.1419
  204loPI   C2A 3256   7.900   3.596   9.527 -0.1882  0.2448 -0.1137
  204loPI   C3A 3257   7.976   3.587   9.058 -0.1492  0.1184  0.1012
  204loPI   C4A 3258   8.022   3.421   8.726  0.0193  0.1559 -0.1931
  204loPI   C5A 3259   8.133   3.192   8.395  0.2930 -0.1006 -0.1592
  204loPI   C6A 3260   8.401   2.891   8.232  0.1978  0.0533  0.2286
  204loPI   C1B 3261   7.361   3.434  10.008 -0.2764  0.2463 -0.1662
  204loPI   C2B 3262   7.384   3.379   9.617 -0.0715  0.3294 -0.1783
  204loPI   C3B 3263   7.518   3.386   9.289 -0.1473  0.0931  0.1432
  204loPI   C4B 3264   7.382   3.370   8.882  0.2241 -0.0964 -0.1128
  205loPI    C1 3265  17.693  10.722  10.736  0.0249  0.1948 -0.0582
  205loPI    C2 3266  17.651  11.021  10.998 -0.0710  0.1038  0.0313
  205loPI    C3 3267  17.757  10.657  11.126 -0.2303  0.0311 -0.0415
  205loPI   PO4 3268  17.601  10.815  10.438  0.4333 -0.0088 -0.1202
  205loPI   GL1 3269  17.529  11.103  10.230 -0.2456  0.0293 -0.2868
  205loPI   GL2 3270  17.325  10.966  10.061  0.0401 -0.1383  0.3562
  205loPI   C1A 3271  17.628  11.323   9.889 -0.1883  0.0516  0.0118
  205loPI   C2A 3272  17.587  11.371   9.461  0.1117  0.0215 -0.0350
  205loPI   C3A 3273  17.600  11.363   8.970  0.0872 -0.2636 -0.0387
  205loPI   C4A 3274  17.498  11.438   8.508  0.1760 -0.2770  0.2085
  205loPI   C5A 3275  17.284  11.691   8.190 -0.0373 -0.0476  0.1797
  205loPI   C6A 3276  17.376  11.583   7.684 -0.2415 -0.2990  0.0734
  205loPI   C1B 3277  17.454  10.881   9.632  0.0821  0.0970 -0.1865
  205loPI   C2B 3278  17.461  10.834   9.161  0.1384  0.1267  0.0014
  205loPI   C3B 3279  17.409  10.968   8.744 -0.2895  0.0794 -0.2175
  205loPI   C4B 3280  17.428  10.976   8.302  0.3782  0.1311 -0.1759
  206loPI    C1 3281   3.644  17.050  11.278  0.0724 -0.0304 -0.0199
  206loPI    C2 3282   3.625  16.708  11.071  0.0549 -0.0707  0.0478
  206loPI    C3 3283   3.391  16.761  11.391  0.0745 -0.0046  0.0514
  206loPI   PO4 3284   3.683  17.218  11.033  0.0080  0.0558 -0.0407
  206loPI   GL1 3285   3.734  17.311  10.646  0.0546  0.3517  0.2085
  206loPI   GL2 3286   3.752  17.065  10.558  0.3585  0.2644  0.1666
  206loPI   C1A 3287   3.737  17.452  10.241 -0.0981  0.0114 -0.0571
  206loPI   C2A 3288   3.711  17.442   9.824  0.3380 -0.0503 -0.0960
  206loPI   C3A 3289   3.822  17.552   9.427 -0.1063  0.0735  0.0075
  206loPI   C4A 3290   3.928  17.494   9.039 -0.1122 -0.2046  0.1485
  206loPI   C5A 3291   3.783  17.425   8.651 -0.0491  0.0478 -0.1822
  206loPI   C6A 3292   3.876  17.677   8.261  0.1205 -0.4926 -0.1293
  206loPI   C1B 3293   3.593  16.827  10.221 -0.0626  0.2469 -0.0877
  206loPI   C2B 3294   3.652  16.890   9.813  0.1029  0.1057 -0.0354
  206loPI   C3B 3295   3.543  16.918   9.405  0.2162 -0.0332  0.1778
  206loPI   C4B 3296   3.596  16.884   8.940 -0.0196  0.4234 -0.0718
  207loPI    C1 3297   4.832   5.019  10.582 -0.3314 -0.1540  0.1492
  207loPI    C2 3298   4.601   5.321  10.457 -0.2457 -0.1698 -0.0504
  207loPI    C3 3299   4.823   5.363  10.787 -0.0085  0.0944 -0.2382
  207loPI   PO4 3300   4.727   4.845  10.404 -0.0836  0.0617 -0.1995
  207loPI   GL1 3301   4.848   4.581  10.103 -0.2172  0.0924 -0.2974
  207loPI   GL2 3302   4.510   4.554   9.949  0.3302  0.0320 -0.2852
  207loPI   C1A 3303   4.995   4.759   9.603 -0.0478 -0.0510 -0.2731
  207loPI   C2A 3304   4.940   4.612   9.136  0.0386  0.3702 -0.0481
  207loPI   C3A 3305   4.947   4.653   8.739  0.1664 -0.2394  0.0562
  207loPI   C4A 3306   5.090   4.638   8.316  0.1503 -0.0344 -0.0375
  207loPI   C5A 3307   5.030   4.848   7.986 -0.3131 -0.2310  0.1761
  207loPI   C6A 3308   4.855   5.228   7.883 -0.0758 -0.2096  0.0236
  207loPI   C1B 3309   4.536   4.518   9.513 -0.1212  0.1033 -0.1129
  207loPI   C2B 3310   4.402   4.399   9.090  0.6325  0.0721  0.0330
  207loPI   C3B 3311   4.451   4.424   8.679 -0.1530  0.0886 -0.2006
  207loPI   C4B 3312   4.349   4.540   8.238 -0.2176  0.2545 -0.1314
  208loPI    C1 3313  15.613  12.682  10.884  0.0975 -0.2826 -0.0497
  208loPI    C2 3314  15.317  12.609  11.142  0.0337 -0.0151 -0.0437
  208loPI    C3 3315  15.648  12.796  11.266  0.0375  0.0410 -0.1372
  208loPI   PO4 3316  15.503  12.774  10.724 -0.0891 -0.2061 -0.1792
  208loPI   GL1 3317  15.507  13.121  10.419  0.1007 -0.0649 -0.0325
  208loPI   GL2 3318  15.442  13.317  10.542 -0.2444  0.0082 -0.0245
  208loPI   C1A 3319  15.414  13.107   9.985  0.2130 -0.0313  0.0281
  208loPI   C2A 3320  15.412  13.107   9.526 -0.2296 -0.0828  0.0174
  208loPI   C3A 3321  15.423  13.031   9.197  0.2520  0.0440  0.1565
  208loPI   C4A 3322  15.457  13.223   8.889  0.3363  0.0965 -0.0370
  208loPI   C5A 3323  15.521  13.309   8.478 -0.2345 -0.0956  0.0674
  208loPI   C6A 3324  15.537  13.762   8.252  0.0724 -0.0351 -0.1785
  208loPI   C1B 3325  15.589  13.576  10.192  0.0243 -0.2111  0.2987
  208loPI   C2B 3326  15.562  13.620   9.684 -0.1344  0.0328  0.2927
  208loPI   C3B 3327  15.572  13.639   9.236 -0.0151 -0.0656 -0.1339
  208loPI   C4B 3328  15.567  13.722   8.784 -0.0561 -0.2332  0.5011
  209loPI    C1 3329   1.119   1.037  11.069  0.2160  0.1737  0.0623
  209loPI    C2 3330   0.753   1.015  11.228  0.1398 -0.0196 -0.1348
  209loPI    C3 3331   0.988   1.328  11.309 -0.0849  0.1272 -0.0423
  209loPI   PO4 3332   1.045   0.972  10.774 -0.0626  0.0666  0.0709
  209loPI   GL1 3333   0.862   1.147  10.523 -0.0806  0.2349  0.0896
  209loPI   GL2 3334   0.627   1.165  10.435 -0.0658  0.1684  0.0571
  209loPI   C1A 3335   0.917   1.017  10.027  0.1555  0.2682  0.1259
  209loPI   C2A 3336   0.806   0.994   9.555 -0.2530 -0.3852  0.0065
  209loPI   C3A 3337   0.996   0.989   9.155  0.6337  0.1677  0.1391
  209loPI   C4A 3338   1.100   0.975   8.729  0.1350  0.0837  0.1594
  209loPI   C5A 3339   1.341   1.193   8.432 -0.0483  0.1245 -0.2306
  209loPI   C6A 3340   1.285   1.607   8.247 -0.1629  0.1000  0.3372
  209loPI   C1B 3341   0.570   1.459  10.169  0.0367 -0.1688  0.1763
  209loPI   C2B 3342   0.495   1.297   9.730 -0.2926 -0.0755 -0.2030
  209loPI   C3B 3343   0.612   1.382   9.241  0.2598  0.0826  0.2770
  209loPI   C4B 3344   0.701   1.261   8.883  0.0795  0.0754  0.1307
  210loPI    C1 3345  12.217   6.535  10.588  0.1034  0.0771 -0.0291
  210loPI    C2 3346  12.509   6.651  10.341  0.1030  0.2502  0.0496
  210loPI    C3 3347  12.476   6.266  10.445  0.0629  0.1638 -0.2704
  210loPI   PO4 3348  12.001   6.566  10.470 -0.0194  0.4656  0.1623
  210loPI   GL1 3349  12.030   6.426  10.007 -0.0884 -0.0119  0.0693
  210loPI   GL2 3350  12.137   6.737  10.007 -0.0551 -0.2586 -0.1256
  210loPI   C1A 3351  12.104   6.115   9.678  0.3673 -0.0411 -0.0438
  210loPI   C2A 3352  11.960   5.848   9.359 -0.0167  0.2031  0.0073
  210loPI   C3A 3353  12.013   5.767   8.943  0.2780 -0.0918  0.0961
  210loPI   C4A 3354  12.111   5.857   8.497  0.1432  0.1546 -0.0416
  210loPI   C5A 3355  11.887   5.680   8.127  0.1850  0.0533 -0.0655
  210loPI   C6A 3356  11.484   5.559   8.053 -0.0689  0.0626  0.0676
  210loPI   C1B 3357  12.152   6.582   9.530  0.1846 -0.4260  0.0933
  210loPI   C2B 3358  12.125   6.432   9.165 -0.2327  0.1612 -0.0693
  210loPI   C3B 3359  12.267   6.311   8.681 -0.0507  0.2138 -0.1375
  210loPI   C4B 3360  12.369   6.319   8.232  0.0498  0.2955 -0.1790
  211loPI    C1 3361   6.533   3.008  11.070  0.0046 -0.1652 -0.2216
  211loPI    C2 3362   6.469   2.928  11.457 -0.3057  0.0737 -0.2199
  211loPI    C3 3363   6.681   2.674  11.233 -0.0881 -0.0465  0.1150
  211loPI   PO4 3364   6.477   3.254  11.048 -0.0585 -0.0808 -0.2317
  211loPI   GL1 3365   6.360   3.428  10.642 -0.4708  0.1860  0.1251
  211loPI   GL2 3366   6.155   3.664  10.522  0.0824 -0.0197 -0.2091
  211loPI   C1A 3367   6.487   3.293  10.250  0.0334  0.2002 -0.0754
  211loPI   C2A 3368   6.393   3.190   9.815 -0.3376  0.2076  0.1676
  211loPI   C3A 3369   6.330   3.238   9.417  0.3513 -0.1154 -0.0017
  211loPI   C4A 3370   6.335   3.066   9.111  0.0132 -0.4082  0.2924
  211loPI   C5A 3371   6.444   3.016   8.702  0.0509 -0.2608  0.0644
  211loPI   C6A 3372   6.514   3.000   8.325 -0.0003 -0.1629  0.1317
  211loPI   C1B 3373   6.076   3.592  10.128 -0.4863 -0.1077  0.1654
  211loPI   C2B 3374   6.022   3.524   9.737  0.1324  0.1123  0.1076
  211loPI   C3B 3375   5.970   3.529   9.303 -0.1843 -0.2314 -0.1347
  211loPI   C4B 3376   6.049   3.470   8.944  0.2632 -0.0715  0.0310
  212loPI    C1 3377   2.607   2.645  11.024  0.1884 -0.2256 -0.0428
  212loPI    C2 3378   2.351   2.412  11.224  0.1217 -0.0007  0.1388
  212loPI    C3 3379   2.576   2.676  11.422  0.1979  0.0881 -0.0641
  212loPI   PO4 3380   2.442   2.753  10.878 -0.0697 -0.1415  0.3419
  212loPI   GL1 3381   2.270   2.559  10.520 -0.2264  0.0711 -0.0318
  212loPI   GL2 3382   2.395   2.828  10.225 -0.1783  0.2421 -0.0984
  212loPI   C1A 3383   2.295   2.272  10.247 -0.1166 -0.2611 -0.0318
  212loPI   C2A 3384   2.280   2.262   9.828 -0.1363 -0.0851  0.4662
  212loPI   C3A 3385   2.312   2.191   9.335  0.0819 -0.0925  0.2783
  212loPI   C4A 3386   2.356   2.173   8.971 -0.0032  0.1522  0.2256
  212loPI   C5A 3387   2.323   2.165   8.527 -0.1274 -0.2131 -0.1803
  212loPI   C6A 3388   2.381   2.243   8.081 -0.1422  0.0826 -0.0936
  212loPI   C1B 3389   2.461   2.682   9.814 -0.0432  0.1822  0.0763
  212loPI   C2B 3390   2.435   2.731   9.348 -0.0635  0.1179 -0.0685
  212loPI   C3B 3391   2.508   2.603   8.802 -0.6461  0.0171  0.0312
  212loPI   C4B 3392   2.458   2.675   8.390 -0.1363  0.0138  0.0642
  213loPI    C1 3393   3.266  13.431  11.097  0.0621  0.0791  0.0469
  213loPI    C2 3394   2.957  13.383  11.347  0.0704  0.3208  0.1063
  213loPI    C3 3395   3.274  13.140  11.372 -0.1198  0.0596  0.0333
  213loPI   PO4 3396   3.179  13.365  10.829  0.3391  0.1057 -0.0212
  213loPI   GL1 3397   3.150  13.529  10.421 -0.0739 -0.0791 -0.0172
  213loPI   GL2 3398   3.506  13.795  10.273  0.3695  0.0382 -0.1863
  213loPI   C1A 3399   2.960  13.633  10.031  0.0240  0.3739  0.0151
  213loPI   C2A 3400   2.959  13.690   9.642 -0.1654 -0.0469 -0.1843
  213loPI   C3A 3401   3.034  13.693   9.179 -0.1380 -0.1438 -0.1475
  213loPI   C4A 3402   3.032  13.584   8.717 -0.0352  0.0805 -0.0203
  213loPI   C5A 3403   2.901  13.697   8.305  0.1113  0.0206 -0.0039
  213loPI   C6A 3404   2.663  13.355   8.078  0.1102 -0.2369 -0.0246
  213loPI   C1B 3405   3.493  13.699   9.780 -0.0990  0.1555 -0.0184
  213loPI   C2B 3406   3.536  13.836   9.385  0.1267 -0.2858 -0.1441
  213loPI   C3B 3407   3.542  13.850   8.960  0.0803  0.2438 -0.1260
  213loPI   C4B 3408   3.491  13.734   8.497  0.0211 -0.0828  0.1049
  214loPI    C1 3409  10.121  13.680  10.715  0.2383  0.0211  0.1443
  214loPI    C2 3410  10.493  13.777  10.605  0.2798 -0.1302  0.1498
  214loPI    C3 3411  10.413  13.691  10.988  0.2230 -0.0234  0.1625
  214loPI   PO4 3412   9.983  13.916  10.564 -0.0359 -0.1716 -0.0694
  214loPI   GL1 3413  10.201  13.940  10.125 -0.0789  0.0264  0.0237
  214loPI   GL2 3414  10.074  14.206  10.157 -0.0693 -0.1430  0.1123
  214loPI   C1A 3415   9.928  13.759   9.763  0.0224  0.3265 -0.0974
  214loPI   C2A 3416   9.884  13.858   9.247  0.1075 -0.2100 -0.2572
  214loPI   C3A 3417   9.787  13.781   8.766 -0.1273 -0.2967  0.0470
  214loPI   C4A 3418   9.737  13.827   8.399  0.2051  0.3228 -0.1421
  214loPI   C5A 3419   9.921  13.943   8.070  0.2389 -0.2719 -0.1902
  214loPI   C6A 3420  10.343  13.779   7.981  0.1194  0.0584 -0.1499
  214loPI   C1B 3421  10.081  14.226   9.682 -0.1843  0.1105  0.3462
  214loPI   C2B 3422  10.099  14.305   9.293 -0.2813 -0.0838 -0.1447
  214loPI   C3B 3423   9.892  14.317   8.928 -0.3941 -0.0833 -0.1217
  214loPI   C4B 3424   9.956  14.306   8.536  0.1739 -0.1628  0.0340
  215loPI    C1 3425  16.291  11.130  10.452 -0.1267  0.0515 -0.2387
  215loPI    C2 3426  16.298  10.904  10.782 -0.5346  0.3438 -0.0212
  215loPI    C3 3427  16.221  10.737  10.427  0.0712 -0.0008 -0.0038
  215loPI   PO4 3428  16.543  11.130  10.401 -0.2278  0.2027  0.0145
  215loPI   GL1 3429  16.640  10.990   9.977 -0.1036  0.2112 -0.2848
  215loPI   GL2 3430  16.237  11.001  10.010 -0.1380 -0.2475 -0.2144
  215loPI   C1A 3431  16.699  11.142   9.551 -0.1097  0.0424  0.1200
  215loPI   C2A 3432  16.650  11.264   9.149  0.1434  0.0944  0.0392
  215loPI   C3A 3433  16.599  11.123   8.719 -0.1896 -0.0134  0.0084
  215loPI   C4A 3434  16.526  11.103   8.277 -0.1327 -0.1722  0.1334
  215loPI   C5A 3435  16.147  11.257   8.054 -0.0068  0.0196 -0.1111
  215loPI   C6A 3436  15.896  11.616   7.966  0.1350  0.3492  0.0219
  215loPI   C1B 3437  16.208  11.065   9.568  0.2157 -0.1434 -0.1705
  215loPI   C2B 3438  16.125  11.062   9.042 -0.0666 -0.0418  0.2697
  215loPI   C3B 3439  16.067  11.012   8.585 -0.0511 -0.0376 -0.0439
  215loPI   C4B 3440  15.989  10.838   8.106  0.2701  0.1329 -0.1251
  216loPI    C1 3441  10.052   2.279  11.408 -0.0283  0.1220 -0.1121
  216loPI    C2 3442  10.195   1.967  11.613 -0.1481  0.1475  0.0117
  216loPI    C3 3443  10.356   2.330  11.662  0.0271  0.0963 -0.1731
  216loPI   PO4 3444  10.067   2.280  11.123 -0.1394  0.2125 -0.0241
  216loPI   GL1 3445  10.095   2.053  10.785 -0.0875  0.0841  0.1285
  216loPI   GL2 3446  10.390   2.058  10.632  0.1566  0.1258  0.0080
  216loPI   C1A 3447   9.793   2.022  10.469  0.0734 -0.3398 -0.0665
  216loPI   C2A 3448   9.806   2.202   9.921  0.2269 -0.3080  0.2592
  216loPI   C3A 3449   9.987   2.117   9.476  0.2515  0.0800 -0.0267
  216loPI   C4A 3450  10.065   2.044   9.036  0.1047 -0.1397  0.2851
  216loPI   C5A 3451   9.909   2.130   8.651 -0.0455 -0.2756 -0.1969
  216loPI   C6A 3452   9.743   2.490   8.335 -0.0447 -0.0728  0.0756
  216loPI   C1B 3453  10.582   2.040  10.256  0.3624  0.2616  0.0500
  216loPI   C2B 3454  10.757   1.988   9.815  0.2264 -0.3425 -0.1101
  216loPI   C3B 3455  10.826   1.955   9.334  0.3960 -0.2331 -0.3630
  216loPI   C4B 3456  10.763   1.782   8.936 -0.0470  0.2374  0.2790
  217loPI    C1 3457  15.898   4.187  10.718 -0.2258 -0.2411  0.3092
  217loPI    C2 3458  16.207   4.149  10.969 -0.0220  0.2315  0.1409
  217loPI    C3 3459  15.836   4.192  11.113 -0.0203 -0.3525  0.3442
  217loPI   PO4 3460  15.991   4.326  10.467  0.2429 -0.1980 -0.1831
  217loPI   GL1 3461  15.987   4.379  10.091 -0.1622 -0.0615 -0.0615
  217loPI   GL2 3462  16.328   4.199  10.018 -0.0791  0.1383  0.2542
  217loPI   C1A 3463  15.827   4.495   9.709 -0.0255  0.1114 -0.0855
  217loPI   C2A 3464  15.845   4.475   9.250 -0.5628  0.1307 -0.2383
  217loPI   C3A 3465  15.930   4.410   8.832 -0.3739  0.0066 -0.0076
  217loPI   C4A 3466  16.067   4.435   8.413 -0.2795 -0.3634 -0.0253
  217loPI   C5A 3467  16.005   4.335   7.939  0.2891  0.0809 -0.0621
  217loPI   C6A 3468  16.164   4.181   7.587  0.1680  0.0144 -0.0680
  217loPI   C1B 3469  16.187   4.128   9.653 -0.1313 -0.0248 -0.0659
  217loPI   C2B 3470  16.207   4.037   9.208  0.5676  0.2471  0.0359
  217loPI   C3B 3471  16.201   4.001   8.735  0.0736  0.0562  0.0277
  217loPI   C4B 3472  16.050   3.980   8.310  0.0674 -0.0106  0.0602
  218loPI    C1 3473  10.084  15.877  11.125 -0.0624 -0.0554  0.0906
  218loPI    C2 3474  10.447  15.710  11.116 -0.1511 -0.2549  0.1532
  218loPI    C3 3475  10.298  15.846  11.461 -0.0531  0.0163  0.0917
  218loPI   PO4 3476   9.953  15.638  10.933  0.1148  0.1488  0.2587
  218loPI   GL1 3477   9.987  15.489  10.538  0.1256  0.0867 -0.1569
  218loPI   GL2 3478   9.915  15.665  10.309  0.0134 -0.1860 -0.0172
  218loPI   C1A 3479  10.234  15.248  10.311  0.0669  0.0332 -0.0857
  218loPI   C2A 3480  10.300  15.177   9.860 -0.1729 -0.1904 -0.1987
  218loPI   C3A 3481  10.218  15.300   9.397 -0.0163  0.1669 -0.0526
  218loPI   C4A 3482  10.270  15.375   9.015 -0.1708  0.0821 -0.0470
  218loPI   C5A 3483  10.288  15.275   8.575 -0.0500 -0.0569  0.0756
  218loPI   C6A 3484  10.356  15.007   8.108 -0.1001  0.1714 -0.0550
  218loPI   C1B 3485   9.945  15.641   9.878  0.0263 -0.0782 -0.0825
  218loPI   C2B 3486   9.907  15.676   9.469  0.0794 -0.1923 -0.0495
  218loPI   C3B 3487   9.819  15.752   9.048 -0.2210 -0.1219 -0.2256
  218loPI   C4B 3488   9.760  15.696   8.657 -0.0166  0.2967  0.3356
  219loPI    C1 3489  12.011  12.663  11.180 -0.2584  0.0300  0.1721
  219loPI    C2 3490  11.936  12.753  11.563 -0.4173 -0.1851  0.1936
  219loPI    C3 3491  11.949  12.371  11.446 -0.0496 -0.1323  0.0461
  219loPI   PO4 3492  12.168  12.946  11.024  0.1463  0.1150  0.3093
  219loPI   GL1 3493  12.239  13.096  10.642  0.0062  0.1370  0.1450
  219loPI   GL2 3494  12.135  12.820  10.342 -0.1987 -0.1022  0.2222
  219loPI   C1A 3495  12.497  13.219  10.327  0.3154 -0.2111  0.0274
  219loPI   C2A 3496  12.503  13.343   9.922 -0.1385 -0.0752  0.2244
  219loPI   C3A 3497  12.563  13.410   9.540  0.2245  0.2233 -0.1323
  219loPI   C4A 3498  12.657  13.466   9.142  0.1680  0.1630  0.2813
  219loPI   C5A 3499  12.538  13.382   8.738 -0.1815  0.1894  0.4283
  219loPI   C6A 3500  12.197  13.638   8.393  0.0887  0.0824  0.0490
  219loPI   C1B 3501  12.376  12.783  10.008  0.1644 -0.0495  0.1707
  219loPI   C2B 3502  12.475  12.889   9.566  0.1730 -0.1446  0.0381
  219loPI   C3B 3503  12.479  12.985   9.110  0.1695 -0.1628 -0.3097
  219loPI   C4B 3504  12.508  12.854   8.765  0.0480 -0.1368 -0.1042
  220loPI    C1 3505   1.295   7.767  10.599 -0.1932  0.1078  0.1563
  220loPI    C2 3506   1.216   8.153  10.672  0.2801  0.2542 -0.0655
  220loPI    C3 3507   1.439   7.942  10.928 -0.1869  0.0485  0.1852
  220loPI   PO4 3508   1.478   7.720  10.362  0.4846  0.2106  0.0092
  220loPI   GL1 3509   1.538   7.824   9.971  0.1349  0.0262  0.1075
  220loPI   GL2 3510   1.423   8.164   9.668 -0.1547 -0.2631 -0.1096
  220loPI   C1A 3511   1.635   7.713   9.550 -0.3153  0.1504 -0.1915
  220loPI   C2A 3512   1.657   7.688   9.086 -0.0704  0.0414  0.4124
  220loPI   C3A 3513   1.727   7.619   8.659 -0.0061 -0.0712 -0.2030
  220loPI   C4A 3514   1.672   7.446   8.332 -0.0050 -0.1534  0.4847
  220loPI   C5A 3515   1.699   7.394   7.965  0.0277 -0.1102 -0.1429
  220loPI   C6A 3516   1.488   7.397   7.647 -0.0761 -0.1116  0.0558
  220loPI   C1B 3517   1.340   8.129   9.307  0.0246  0.1008  0.2035
  220loPI   C2B 3518   1.292   8.132   8.932 -0.1804 -0.1113  0.0642
  220loPI   C3B 3519   1.275   8.027   8.592  0.0813  0.0482 -0.1826
  220loPI   C4B 3520   1.429   7.948   8.225 -0.2330 -0.0270 -0.0645
  221loPI    C1 3521  12.924  13.160  11.203 -0.0639 -0.2335  0.3866
  221loPI    C2 3522  12.602  13.229  10.977  0.2362  0.0323  0.0277
  221loPI    C3 3523  12.667  12.863  11.125 -0.0612 -0.1020 -0.1623
  221loPI   PO4 3524  13.187  13.325  11.008  0.0454 -0.2079  0.4254
  221loPI   GL1 3525  13.345  13.319  10.618 -0.1862 -0.2430 -0.2601
  221loPI   GL2 3526  13.591  13.067  10.783 -0.2430 -0.1458  0.0552
  221loPI   C1A 3527  13.538  13.576  10.393  0.0271  0.0266 -0.1075
  221loPI   C2A 3528  13.640  13.603  10.018 -0.0895 -0.0628  0.0426
  221loPI   C3A 3529  13.783  13.765   9.660  0.1538 -0.2057  0.3090
  221loPI   C4A 3530  13.733  13.720   9.268 -0.2068 -0.3625 -0.0462
  221loPI   C5A 3531  13.696  13.491   8.959 -0.0754  0.3172  0.3911
  221loPI   C6A 3532  13.453  13.182   8.815  0.0563  0.0928  0.0941
  221loPI   C1B 3533  13.812  13.161  10.390 -0.1497  0.6095 -0.2338
  221loPI   C2B 3534  13.989  13.192  10.052 -0.1735 -0.0322  0.1368
  221loPI   C3B 3535  14.018  13.302   9.619  0.0955 -0.0569  0.1410
  221loPI   C4B 3536  14.134  13.321   9.282 -0.1662 -0.0837 -0.1610
  222loPI    C1 3537  16.128  12.670  11.134 -0.0940  0.0638 -0.0491
  222loPI    C2 3538  16.136  12.370  11.398 -0.2329 -0.0439 -0.1659
  222loPI    C3 3539  16.047  12.741  11.519  0.0352 -0.0298 -0.0038
  222loPI   PO4 3540  16.073  12.462  10.914 -0.1291  0.0777 -0.0725
  222loPI   GL1 3541  16.183  12.517  10.433 -0.0123 -0.2048  0.0227
  222loPI   GL2 3542  15.818  12.543  10.400 -0.1515 -0.3160 -0.2406
  222loPI   C1A 3543  16.209  12.745  10.061  0.1259  0.3281  0.1853
  222loPI   C2A 3544  16.259  12.829   9.696  0.0923 -0.2112  0.0789
  222loPI   C3A 3545  16.326  12.956   9.250  0.0891 -0.3334  0.0163
  222loPI   C4A 3546  16.303  13.061   8.828 -0.2411  0.0318  0.0442
  222loPI   C5A 3547  16.483  13.183   8.523  0.1612  0.2749  0.0514
  222loPI   C6A 3548  16.851  13.172   8.178  0.2913  0.1801 -0.2367
  222loPI   C1B 3549  15.689  12.719  10.028  0.3791 -0.0561 -0.1748
  222loPI   C2B 3550  15.750  12.826   9.680  0.0593  0.1819 -0.0828
  222loPI   C3B 3551  15.829  12.865   9.295  0.4014  0.3847 -0.2068
  222loPI   C4B 3552  15.848  12.877   8.858 -0.2813  0.1018 -0.1833
  223loPI    C1 3553   3.952  11.064  10.419 -0.0057 -0.2952 -0.1787
  223loPI    C2 3554   3.674  11.176  10.684  0.4068  0.1673  0.0761
  223loPI    C3 3555   3.920  10.872  10.768  0.0241 -0.2115 -0.1298
  223loPI   PO4 3556   3.823  11.128  10.099 -0.1289 -0.0614 -0.0634
  223loPI   GL1 3557   4.058  11.044   9.770 -0.2038 -0.0665  0.2312
  223loPI   GL2 3558   4.144  10.766   9.715 -0.2557 -0.2102  0.1632
  223loPI   C1A 3559   4.182  11.119   9.323  0.0082  0.1258 -0.1350
  223loPI   C2A 3560   4.120  11.193   8.926  0.0336  0.0353  0.1685
  223loPI   C3A 3561   3.937  11.145   8.493 -0.3324  0.2195 -0.0958
  223loPI   C4A 3562   3.965  11.008   8.127  0.1902 -0.3380  0.1893
  223loPI   C5A 3563   4.282  10.712   8.004 -0.2100  0.0782  0.0570
  223loPI   C6A 3564   4.685  10.576   7.708 -0.0833 -0.4613 -0.0075
  223loPI   C1B 3565   3.975  10.536   9.380 -0.2009 -0.0049  0.2946
  223loPI   C2B 3566   3.970  10.606   8.918 -0.0518 -0.2293  0.1631
  223loPI   C3B 3567   3.860  10.709   8.554  0.0279  0.4218  0.0154
  223loPI   C4B 3568   3.879  10.547   8.241  0.2252  0.0892 -0.0939
  224loPI    C1 3569   3.356   4.392  10.987 -0.2022 -0.0370 -0.0204
  224loPI    C2 3570   3.747   4.464  11.030 -0.1073 -0.4862 -0.0802
  224loPI    C3 3571   3.502   4.496  11.345 -0.0614 -0.0070 -0.0861
  224loPI   PO4 3572   3.253   4.562  10.762  0.2362 -0.0883 -0.1124
  224loPI   GL1 3573   2.946   4.501  10.411  0.1602 -0.0983 -0.0910
  224loPI   GL2 3574   2.832   4.259  10.337 -0.0548  0.1325 -0.0297
  224loPI   C1A 3575   3.007   4.856  10.145 -0.2333 -0.0299  0.0806
  224loPI   C2A 3576   3.044   4.857   9.634  0.1094 -0.1171 -0.0048
  224loPI   C3A 3577   3.035   4.692   9.215  0.0007  0.3742  0.0625
  224loPI   C4A 3578   3.118   4.542   8.804  0.0589 -0.0678  0.2249
  224loPI   C5A 3579   3.063   4.697   8.393  0.2692 -0.0203 -0.0884
  224loPI   C6A 3580   3.045   4.513   8.019 -0.1093  0.0601  0.2630
  224loPI   C1B 3581   2.904   4.328   9.897 -0.3485 -0.0418 -0.0242
  224loPI   C2B 3582   2.951   4.207   9.473  0.0398 -0.3002  0.2024
  224loPI   C3B 3583   2.855   4.152   8.973  0.2429  0.0298  0.2036
  224loPI   C4B 3584   2.919   4.188   8.492 -0.0069  0.0546 -0.1395
  225loPI    C1 3585   1.364  13.557  10.960 -0.0880  0.0289 -0.0604
  225loPI    C2 3586   0.993  13.532  11.107  0.0374  0.1496  0.2875
  225loPI    C3 3587   1.307  13.506  11.353  0.2611  0.0555 -0.0030
  225loPI   PO4 3588   1.369  13.729  10.861 -0.1351 -0.1706  0.0293
  225loPI   GL1 3589   1.511  13.878  10.456 -0.0268  0.1228 -0.2554
  225loPI   GL2 3590   1.236  13.714  10.363  0.2803 -0.0696 -0.0126
  225loPI   C1A 3591   1.632  13.659  10.143  0.1261 -0.1377  0.0139
  225loPI   C2A 3592   1.604  13.723   9.766 -0.2230  0.1096 -0.1743
  225loPI   C3A 3593   1.633  13.769   9.299  0.0031 -0.0354 -0.1769
  225loPI   C4A 3594   1.598  13.785   8.866  0.2503  0.1809  0.0946
  225loPI   C5A 3595   1.510  13.720   8.408 -0.0087 -0.3132  0.1536
  225loPI   C6A 3596   1.190  13.947   8.214  0.0041 -0.1584 -0.2938
  225loPI   C1B 3597   1.053  13.642   9.936  0.3321  0.1479 -0.0257
  225loPI   C2B 3598   1.128  13.674   9.556  0.0914 -0.0162  0.1181
  225loPI   C3B 3599   1.156  13.710   9.106  0.0971  0.0092 -0.1387
  225loPI   C4B 3600   1.126  13.733   8.735 -0.0377 -0.0261 -0.3921
  226loPI    C1 3601  14.986   3.950  10.843  0.1264 -0.0969 -0.2317
  226loPI    C2 3602  15.209   4.069  11.153 -0.1513 -0.0483 -0.0469
  226loPI    C3 3603  15.197   3.682  11.052 -0.0243 -0.0580 -0.0260
  226loPI   PO4 3604  15.053   4.073  10.661 -0.1844  0.0696  0.0558
  226loPI   GL1 3605  15.068   4.094  10.261  0.0836  0.0567  0.1146
  226loPI   GL2 3606  15.291   3.868  10.148  0.1352  0.0479  0.2257
  226loPI   C1A 3607  14.861   4.201   9.877  0.1385 -0.2166 -0.1220
  226loPI   C2A 3608  14.815   4.244   9.424  0.1120 -0.0640 -0.0895
  226loPI   C3A 3609  14.888   4.193   8.926  0.1249  0.3902  0.0926
  226loPI   C4A 3610  14.965   4.054   8.530 -0.0098 -0.1223 -0.0933
  226loPI   C5A 3611  14.847   4.023   8.133 -0.1872 -0.1451 -0.1211
  226loPI   C6A 3612  14.943   4.386   7.803  0.0035  0.0556  0.0219
  226loPI   C1B 3613  15.180   3.814   9.701  0.0990  0.0755 -0.0740
  226loPI   C2B 3614  15.264   3.862   9.264 -0.0380 -0.1322  0.0278
  226loPI   C3B 3615  15.218   3.711   8.846 -0.1028  0.1405  0.0566
  226loPI   C4B 3616  15.214   3.663   8.371  0.0375 -0.2563  0.0419
  227loPI    C1 3617  11.180  17.906  11.471 -0.1948  0.2814 -0.0919
  227loPI    C2 3618  11.512  18.121  11.413 -0.0874  0.1787  0.1304
  227loPI    C3 3619  11.481  17.884  11.734 -0.2851  0.0148 -0.0074
  227loPI   PO4 3620  11.219  17.839  11.117  0.0243 -0.1101 -0.0794
  227loPI   GL1 3621  11.289  17.754  10.633  0.0919  0.0661 -0.0262
  227loPI   GL2 3622  11.208  17.994  10.449  0.1003  0.0146  0.3064
  227loPI   C1A 3623  11.259  17.407  10.434 -0.0140 -0.1315  0.1431
  227loPI   C2A 3624  11.273  17.236   9.993 -0.0634  0.0951  0.2454
  227loPI   C3A 3625  11.295  17.268   9.508  0.0347 -0.1546 -0.1605
  227loPI   C4A 3626  11.377  17.345   9.088  0.1067  0.2469 -0.3705
  227loPI   C5A 3627  11.286  17.468   8.664 -0.0237 -0.0527  0.1425
  227loPI   C6A 3628  11.449  17.395   8.207  0.3186 -0.3329 -0.1368
  227loPI   C1B 3629  11.160  17.788   9.993 -0.4477 -0.3709 -0.1281
  227loPI   C2B 3630  11.093  17.689   9.577 -0.0855 -0.3147 -0.1458
  227loPI   C3B 3631  11.008  17.689   9.096  0.3449 -0.1877 -0.0169
  227loPI   C4B 3632  10.930  17.866   8.712 -0.2015  0.0067  0.2627
  228loPI    C1 3633   4.790  11.174  10.403 -0.0241  0.0615 -0.0051
  228loPI    C2 3634   5.109  11.128  10.639 -0.0327 -0.2664 -0.0521
  228loPI    C3 3635   4.750  11.200  10.800 -0.0385 -0.4867  0.0373
  228loPI   PO4 3636   4.935  11.339  10.199  0.3249 -0.1528  0.0664
  228loPI   GL1 3637   5.238  11.529   9.857 -0.0060  0.1369  0.2056
  228loPI   GL2 3638   5.428  11.807   9.734 -0.2725 -0.1564 -0.3187
  228loPI   C1A 3639   5.473  11.336   9.498 -0.0999 -0.2194 -0.0717
  228loPI   C2A 3640   5.630  11.410   9.053  0.0571  0.1422 -0.1981
  228loPI   C3A 3641   5.656  11.408   8.620  0.1617 -0.0808  0.2574
  228loPI   C4A 3642   5.508  11.475   8.178  0.1362  0.0340 -0.0169
  228loPI   C5A 3643   5.625  11.581   7.719  0.0522 -0.1140  0.1970
  228loPI   C6A 3644   5.890  11.478   7.263 -0.0706 -0.1263 -0.2847
  228loPI   C1B 3645   5.299  11.820   9.337  0.1669  0.2517 -0.1091
  228loPI   C2B 3646   5.310  11.778   8.826 -0.0717 -0.0706  0.0482
  228loPI   C3B 3647   5.228  11.882   8.401  0.0202  0.4142 -0.2200
  228loPI   C4B 3648   5.262  11.920   7.982 -0.0931  0.2779  0.0144
  229loPI    C1 3649  16.399  10.358  10.733  0.1815 -0.0878 -0.0650
  229loPI    C2 3650  16.588  10.389  11.084  0.0780  0.2537 -0.0355
  229loPI    C3 3651  16.193  10.447  11.064  0.0763  0.1894 -0.2016
  229loPI   PO4 3652  16.469  10.167  10.535 -0.1206  0.0680 -0.1309
  229loPI   GL1 3653  16.405  10.431  10.075  0.1319  0.4341  0.0884
  229loPI   GL2 3654  16.650  10.259   9.942  0.1626 -0.1720  0.3308
  229loPI   C1A 3655  16.453  10.605   9.600  0.0723 -0.0428  0.2627
  229loPI   C2A 3656  16.503  10.803   9.253  0.1546  0.3328 -0.0249
  229loPI   C3A 3657  16.487  10.681   8.837 -0.1340 -0.2785 -0.2581
  229loPI   C4A 3658  16.347  10.556   8.405  0.4830  0.2174  0.0571
  229loPI   C5A 3659  16.193  10.455   7.997 -0.0157 -0.0816  0.1224
  229loPI   C6A 3660  15.992  10.697   7.585  0.0109 -0.2282  0.0708
  229loPI   C1B 3661  16.789  10.242   9.471  0.1330  0.2687 -0.0074
  229loPI   C2B 3662  16.863  10.365   8.992  0.1052  0.1220 -0.0446
  229loPI   C3B 3663  16.765  10.321   8.600  0.3457 -0.1449  0.0441
  229loPI   C4B 3664  16.846  10.101   8.135 -0.3645  0.1218 -0.0340
  230loPI    C1 3665  12.627   0.851  10.970  0.0000 -0.1405 -0.1374
  230loPI    C2 3666  12.519   0.471  10.907  0.2193 -0.2344  0.0366
  230loPI    C3 3667  12.493   0.628  11.274  0.1755 -0.0951 -0.0254
  230loPI   PO4 3668  12.763   0.928  10.802 -0.2100  0.2267  0.1396
  230loPI   GL1 3669  12.809   0.729  10.500 -0.1050 -0.3322 -0.2260
  230loPI   GL2 3670  12.623   0.507  10.352 -0.2176  0.2791 -0.1623
  230loPI   C1A 3671  13.016   0.769  10.151  0.2270  0.0872  0.2625
  230loPI   C2A 3672  13.000   0.815   9.759 -0.2874  0.2014  0.0497
  230loPI   C3A 3673  12.821   0.988   9.318  0.0489 -0.0518  0.2736
  230loPI   C4A 3674  12.862   0.942   8.932  0.1723 -0.3280  0.0126
  230loPI   C5A 3675  12.885   0.980   8.527  0.2095  0.2703  0.1559
  230loPI   C6A 3676  12.926   1.100   8.048 -0.1404 -0.0330  0.1297
  230loPI   C1B 3677  12.681   0.444   9.874  0.3372  0.2277  0.0646
  230loPI   C2B 3678  12.714   0.529   9.420  0.0513  0.1622  0.2949
  230loPI   C3B 3679  12.741   0.430   9.014 -0.0395  0.0064  0.1100
  230loPI   C4B 3680  12.606   0.526   8.675  0.0354 -0.3278 -0.2886
  231loPI    C1 3681  16.398  15.499  11.338  0.0535  0.3356  0.0458
  231loPI    C2 3682  16.236  15.812  11.528 -0.0418  0.1801  0.2242
  231loPI    C3 3683  16.379  15.503  11.738 -0.2383 -0.0387  0.0408
  231loPI   PO4 3684  16.312  15.520  11.065 -0.1302  0.0441  0.0100
  231loPI   GL1 3685  16.034  15.626  10.796  0.0135 -0.0976 -0.2802
  231loPI   GL2 3686  15.887  15.392  10.623  0.2563 -0.1777  0.4721
  231loPI   C1A 3687  16.056  15.766  10.320  0.0525  0.3899  0.2116
  231loPI   C2A 3688  16.063  15.657   9.964  0.0556  0.0177 -0.1650
  231loPI   C3A 3689  16.172  15.635   9.516  0.1733 -0.0482  0.0312
  231loPI   C4A 3690  16.228  15.725   9.085  0.0116 -0.2298  0.1014
  231loPI   C5A 3691  16.067  15.834   8.795  0.1909  0.0524 -0.1845
  231loPI   C6A 3692  16.218  16.250   8.504  0.1987 -0.3280 -0.5911
  231loPI   C1B 3693  15.999  15.247  10.271  0.1950 -0.0702  0.0683
  231loPI   C2B 3694  15.925  15.133   9.757  0.3221  0.0293 -0.3255
  231loPI   C3B 3695  15.985  15.174   9.369  0.2057  0.0923  0.0922
  231loPI   C4B 3696  15.980  15.302   8.932  0.0828 -0.0988 -0.1389
  232loPI    C1 3697  13.680   9.265  10.442  0.1564  0.0539  0.0503
  232loPI    C2 3698  13.625   9.624  10.609  0.0472  0.0454  0.0335
  232loPI    C3 3699  13.945   9.405  10.707  0.0742  0.1143  0.1011
  232loPI   PO4 3700  13.607   9.284  10.199 -0.1009 -0.0090  0.1973
  232loPI   GL1 3701  13.641   9.186   9.727 -0.0254 -0.1266 -0.1668
  232loPI   GL2 3702  13.803   8.926   9.558 -0.1870  0.0092  0.0266
  232loPI   C1A 3703  13.299   9.175   9.326  0.1261 -0.1607 -0.2226
  232loPI   C2A 3704  13.129   9.390   8.871  0.0103 -0.0922 -0.0550
  232loPI   C3A 3705  13.117   9.427   8.470 -0.1744  0.2175  0.2302
  232loPI   C4A 3706  12.940   9.621   8.146 -0.0582  0.0093 -0.0817
  232loPI   C5A 3707  12.801   9.924   7.836  0.0909 -0.1429 -0.0171
  232loPI   C6A 3708  12.742   9.858   7.429 -0.2054 -0.1339 -0.1222
  232loPI   C1B 3709  13.761   8.988   9.156 -0.0610  0.0837  0.1480
  232loPI   C2B 3710  13.835   8.946   8.762  0.2207 -0.0696  0.1783
  232loPI   C3B 3711  13.643   9.004   8.390  0.1556  0.0558  0.2944
  232loPI   C4B 3712  13.329   9.208   8.047 -0.3479 -0.0749  0.0822
  233loPI    C1 3713  13.952   0.221  11.083 -0.2232  0.0305 -0.0989
  233loPI    C2 3714  14.050   0.084  11.446 -0.0791  0.0926 -0.1136
  233loPI    C3 3715  14.073   0.476  11.367 -0.2064  0.0911 -0.1600
  233loPI   PO4 3716  13.958   0.143  10.898  0.0501 -0.1094 -0.1477
  233loPI   GL1 3717  14.095   0.255  10.473  0.0038  0.0155 -0.3042
  233loPI   GL2 3718  13.981   0.564  10.354  0.0515 -0.0796  0.0769
  233loPI   C1A 3719  14.044   0.298   9.903 -0.1587 -0.0437 -0.4258
  233loPI   C2A 3720  13.953   0.300   9.482 -0.0310  0.1983  0.0025
  233loPI   C3A 3721  14.087   0.227   9.093  0.3947 -0.0512  0.1891
  233loPI   C4A 3722  14.163   0.280   8.620  0.0773 -0.3133  0.1185
  233loPI   C5A 3723  14.292   0.664   8.423  0.1078 -0.1456 -0.4471
  233loPI   C6A 3724  14.492   0.734   8.028  0.1312  0.1831  0.0136
  233loPI   C1B 3725  13.949   0.835  10.008 -0.1139 -0.0981 -0.0856
  233loPI   C2B 3726  13.813   0.825   9.629  0.1851  0.2360  0.2298
  233loPI   C3B 3727  13.724   0.710   9.229  0.0489 -0.2389  0.2845
  233loPI   C4B 3728  13.755   0.735   8.811 -0.0953  0.3592  0.0637
  234loPI    C1 3729  14.694  13.353  11.166  0.1615 -0.0270  0.0370
  234loPI    C2 3730  14.714  13.161  11.516  0.3121 -0.1250 -0.0245
  234loPI    C3 3731  14.890  13.517  11.473  0.2427 -0.0855  0.0166
  234loPI   PO4 3732  14.640  13.084  10.999  0.1968 -0.4484 -0.1652
  234loPI   GL1 3733  14.543  12.952  10.594 -0.2687  0.0999  0.1843
  234loPI   GL2 3734  14.764  12.946  10.428 -0.1808  0.0313  0.1226
  234loPI   C1A 3735  14.318  12.879  10.241 -0.1210 -0.0937 -0.4559
  234loPI   C2A 3736  14.347  12.930   9.757 -0.1872  0.0244  0.1762
  234loPI   C3A 3737  14.446  12.949   9.313  0.1514 -0.1306  0.0051
  234loPI   C4A 3738  14.288  12.989   8.989  0.2958 -0.0329  0.0285
  234loPI   C5A 3739  14.407  13.123   8.589 -0.0550  0.2335  0.0031
  234loPI   C6A 3740  14.194  12.969   8.183 -0.0628  0.1938  0.2060
  234loPI   C1B 3741  14.792  12.961   9.966  0.1496 -0.0324 -0.0068
  234loPI   C2B 3742  14.896  13.019   9.569  0.4462  0.2133  0.2931
  234loPI   C3B 3743  14.952  13.137   9.108  0.3079  0.2553 -0.3098
  234loPI   C4B 3744  15.054  13.044   8.619  0.0744  0.1669  0.0173
  235loPI    C1 3745   2.446   4.501  11.083  0.1142  0.2760  0.0779
  235loPI    C2 3746   2.548   4.854  11.241  0.1261  0.1828  0.2823
  235loPI    C3 3747   2.412   4.562  11.477  0.3238 -0.0230  0.1458
  235loPI   PO4 3748   2.368   4.522  10.864  0.3610 -0.2387  0.0385
  235loPI   GL1 3749   2.337   4.521  10.454  0.0492  0.1625 -0.0061
  235loPI   GL2 3750   2.061   4.538  10.194  0.0767  0.1165  0.1158
  235loPI   C1A 3751   2.503   4.578   9.986 -0.0458 -0.1909 -0.1529
  235loPI   C2A 3752   2.604   4.626   9.514 -0.0714 -0.0293 -0.0515
  235loPI   C3A 3753   2.546   4.633   9.015  0.2625 -0.4192  0.1876
  235loPI   C4A 3754   2.551   4.630   8.616 -0.1623  0.0211 -0.1932
  235loPI   C5A 3755   2.396   4.645   8.149  0.0747  0.0332 -0.0324
  235loPI   C6A 3756   2.568   4.349   7.863  0.0657 -0.1429 -0.0249
  235loPI   C1B 3757   2.078   4.531   9.841  0.3687  0.3402  0.0290
  235loPI   C2B 3758   2.113   4.532   9.361  0.0900  0.0017  0.3475
  235loPI   C3B 3759   2.086   4.484   8.906  0.2662  0.0004  0.1646
  235loPI   C4B 3760   2.057   4.432   8.399  0.0177  0.2806  0.0128
  236loPI    C1 3761   1.600   0.483  11.008  0.0795 -0.0934 -0.1717
  236loPI    C2 3762   1.488   0.748  11.285  0.1314 -0.0377 -0.2035
  236loPI    C3 3763   1.876   0.666  11.233  0.0945 -0.4443  0.1050
  236loPI   PO4 3764   1.426   0.563  10.752 -0.2352 -0.1091  0.1662
  236loPI   GL1 3765   1.382   0.776  10.404  0.2536  0.2561  0.0937
  236loPI   GL2 3766   1.411   1.069  10.425  0.2010 -0.1349 -0.0997
  236loPI   C1A 3767   1.243   0.595  10.047  0.3098  0.1907  0.2667
  236loPI   C2A 3768   1.339   0.596   9.658 -0.1020 -0.0698 -0.1443
  236loPI   C3A 3769   1.346   0.624   9.298 -0.2089 -0.0735 -0.2355
  236loPI   C4A 3770   1.412   0.590   8.913  0.0973  0.0723 -0.2545
  236loPI   C5A 3771   1.534   0.612   8.437 -0.1180  0.2764  0.0943
  236loPI   C6A 3772   1.560   0.432   7.985  0.0580 -0.2404 -0.1068
  236loPI   C1B 3773   1.369   1.192   9.990 -0.0170  0.1524  0.0003
  236loPI   C2B 3774   1.373   1.105   9.574 -0.0551 -0.0892 -0.0019
  236loPI   C3B 3775   1.483   1.053   9.099 -0.0027  0.0899  0.1611
  236loPI   C4B 3776   1.637   0.986   8.734 -0.1806 -0.1417  0.2477
  237loPI    C1 3777   5.009  12.316  10.402  0.0727 -0.3660  0.1570
  237loPI    C2 3778   4.625  12.246  10.314  0.0555  0.0449 -0.1220
  237loPI    C3 3779   4.758  12.193  10.687 -0.2470 -0.1945 -0.0449
  237loPI   PO4 3780   5.077  12.531  10.318 -0.1017 -0.0614  0.5264
  237loPI   GL1 3781   5.131  12.727   9.965  0.1069  0.0173  0.2506
  237loPI   GL2 3782   5.458  12.660   9.973 -0.0082 -0.0649  0.1827
  237loPI   C1A 3783   5.142  12.787   9.583  0.0719  0.1880 -0.0783
  237loPI   C2A 3784   5.188  12.727   9.206  0.0831  0.2368 -0.0895
  237loPI   C3A 3785   5.040  12.732   8.743 -0.1407  0.2718  0.0135
  237loPI   C4A 3786   4.981  12.643   8.259 -0.0044 -0.0354  0.0103
  237loPI   C5A 3787   4.812  12.579   7.879 -0.0520  0.0941 -0.0303
  237loPI   C6A 3788   4.687  12.860   7.696  0.2165  0.0303 -0.0199
  237loPI   C1B 3789   5.672  12.795   9.666 -0.2211  0.0266  0.3652
  237loPI   C2B 3790   5.641  12.877   9.212  0.2134  0.0811 -0.1980
  237loPI   C3B 3791   5.603  12.985   8.780  0.2112  0.2102  0.0566
  237loPI   C4B 3792   5.437  12.828   8.402  0.0058  0.0224 -0.0901
  238loPI    C1 3793  16.718  14.385  11.246 -0.0139 -0.3644 -0.0024
  238loPI    C2 3794  16.956  14.609  11.478  0.0333 -0.3702 -0.0450
  238loPI    C3 3795  16.593  14.502  11.607 -0.0501 -0.1414 -0.0853
  238loPI   PO4 3796  16.834  14.160  11.199 -0.1226  0.1453  0.0476
  238loPI   GL1 3797  16.916  14.158  10.772  0.3155  0.1252  0.2600
  238loPI   GL2 3798  16.619  14.159  10.709 -0.1469 -0.0277  0.0888
  238loPI   C1A 3799  16.979  14.087  10.310  0.1558  0.3394  0.0575
  238loPI   C2A 3800  17.127  14.023   9.927 -0.0928 -0.0600  0.1920
  238loPI   C3A 3801  17.042  14.027   9.517 -0.1985 -0.1896  0.0709
  238loPI   C4A 3802  17.121  14.065   9.134 -0.0064  0.0172  0.0796
  238loPI   C5A 3803  17.182  14.140   8.663 -0.1574 -0.1977 -0.2847
  238loPI   C6A 3804  17.063  14.064   8.239  0.0243 -0.0772  0.0137
  238loPI   C1B 3805  16.503  13.982  10.308 -0.0588  0.1962  0.2771
  238loPI   C2B 3806  16.508  13.890   9.847  0.1204 -0.0793 -0.0503
  238loPI   C3B 3807  16.574  13.912   9.512  0.0578 -0.0715  0.0552
  238loPI   C4B 3808  16.598  13.977   9.068  0.1316 -0.1163 -0.1844
  239loPI    C1 3809  17.511  12.396  11.413 -0.2706 -0.0556  0.0146
  239loPI    C2 3810  17.583  12.770  11.535 -0.0581 -0.1226  0.0976
  239loPI    C3 3811  17.403  12.510  11.781  0.0815 -0.1653  0.1558
  239loPI   PO4 3812  17.379  12.363  11.103 -0.1378  0.3207 -0.2239
  239loPI   GL1 3813  17.378  12.372  10.724 -0.1778 -0.1463 -0.2007
  239loPI   GL2 3814  17.085  12.345  10.513 -0.2538  0.2969 -0.1667
  239loPI   C1A 3815  17.610  12.493  10.378  0.0304  0.1344  0.2095
  239loPI   C2A 3816  17.696  12.676  10.085 -0.1077 -0.0069  0.0570
  239loPI   C3A 3817  17.739  12.836   9.641 -0.0377  0.2581  0.2447
  239loPI   C4A 3818  17.699  12.800   9.229  0.0704  0.3036  0.1071
  239loPI   C5A 3819  17.629  12.892   8.821 -0.0265 -0.0584  0.0922
  239loPI   C6A 3820  17.679  12.726   8.421 -0.1617 -0.1805 -0.1523
  239loPI   C1B 3821  17.178  12.514  10.090 -0.0182 -0.3455 -0.3248
  239loPI   C2B 3822  17.175  12.611   9.615  0.2085 -0.2935  0.0663
  239loPI   C3B 3823  17.116  12.612   9.226 -0.1406  0.3264 -0.1600
  239loPI   C4B 3824  17.016  12.782   8.722 -0.0129 -0.1123 -0.0133
  240loPI    C1 3825   3.127   2.640  11.310  0.2208 -0.1782  0.0481
  240loPI    C2 3826   3.516   2.597  11.229  0.2739  0.1522  0.1130
  240loPI    C3 3827   3.400   2.717  11.592  0.1146  0.1220  0.0727
  240loPI   PO4 3828   3.052   2.436  10.963 -0.0268  0.1857  0.2660
  240loPI   GL1 3829   2.833   2.524  10.578  0.2304 -0.2929  0.3063
  240loPI   GL2 3830   2.838   2.910  10.480  0.2770  0.3824  0.2529
  240loPI   C1A 3831   2.803   2.330  10.259 -0.4591  0.0077 -0.2242
  240loPI   C2A 3832   2.781   2.286   9.871  0.1210 -0.1968 -0.0394
  240loPI   C3A 3833   2.763   2.371   9.464  0.0703  0.3652  0.0454
  240loPI   C4A 3834   2.791   2.264   9.040 -0.1151 -0.1826  0.1472
  240loPI   C5A 3835   2.811   2.232   8.592 -0.2261  0.1532  0.0083
  240loPI   C6A 3836   2.905   2.429   8.240 -0.1516 -0.2423 -0.0714
  240loPI   C1B 3837   2.966   2.784   9.995  0.0640  0.0698 -0.0352
  240loPI   C2B 3838   2.963   2.830   9.598 -0.2136 -0.0686  0.0514
  240loPI   C3B 3839   2.886   2.787   9.121  0.3696  0.1323  0.0609
  240loPI   C4B 3840   2.952   2.787   8.644 -0.0848  0.2988 -0.0694
  241loPI    C1 3841  12.172   1.912  11.148 -0.2980 -0.2067  0.0458
  241loPI    C2 3842  12.245   1.560  11.322  0.0508 -0.1420  0.0367
  241loPI    C3 3843  12.172   1.882  11.547 -0.0723 -0.1776  0.0488
  241loPI   PO4 3844  11.960   1.665  10.928 -0.1446 -0.0094 -0.2102
  241loPI   GL1 3845  11.888   1.537  10.578 -0.5325 -0.0122 -0.0020
  241loPI   GL2 3846  12.089   1.426  10.452  0.0075  0.0330  0.0710
  241loPI   C1A 3847  12.133   1.792  10.149  0.2152  0.2075 -0.3209
  241loPI   C2A 3848  12.152   1.751   9.653  0.2242 -0.1758  0.0346
  241loPI   C3A 3849  12.155   1.712   9.177  0.0895 -0.1957  0.0737
  241loPI   C4A 3850  12.323   1.648   8.732  0.2240  0.0504  0.0142
  241loPI   C5A 3851  12.678   1.490   8.546  0.0004  0.0106 -0.0586
  241loPI   C6A 3852  13.071   1.464   8.375 -0.1139 -0.1492  0.1671
  241loPI   C1B 3853  12.016   1.336   9.993  0.2146  0.0230 -0.0655
  241loPI   C2B 3854  11.944   1.330   9.546  0.0676  0.1715  0.0346
  241loPI   C3B 3855  12.075   1.238   9.101 -0.3859 -0.2791  0.2565
  241loPI   C4B 3856  11.902   1.000   8.674  0.3530 -0.5456  0.1448
  242loPI    C1 3857  12.662   1.854  11.052  0.0513  0.0029  0.0135
  242loPI    C2 3858  12.723   1.726  11.426 -0.0375 -0.0432  0.0125
  242loPI    C3 3859  12.716   2.118  11.347 -0.0150 -0.0334  0.0583
  242loPI   PO4 3860  12.825   1.630  10.948  0.0097 -0.2631 -0.0662
  242loPI   GL1 3861  12.678   1.417  10.618 -0.1288  0.1132 -0.0505
  242loPI   GL2 3862  12.968   1.697  10.471  0.2632 -0.3473 -0.4368
  242loPI   C1A 3863  12.531   1.488  10.288  0.1021  0.0884  0.1731
  242loPI   C2A 3864  12.505   1.466   9.802  0.0245  0.0077 -0.1025
  242loPI   C3A 3865  12.463   1.291   9.411  0.0378 -0.2183  0.0774
  242loPI   C4A 3866  12.567   1.332   9.081  0.0416 -0.0739  0.1589
  242loPI   C5A 3867  12.403   1.058   8.683  0.2887 -0.0333 -0.2069
  242loPI   C6A 3868  12.306   1.158   8.251 -0.0183 -0.0482 -0.0051
  242loPI   C1B 3869  13.088   1.975  10.100  0.4269 -0.0329 -0.0760
  242loPI   C2B 3870  13.105   1.990   9.700  0.0018 -0.1333 -0.2569
  242loPI   C3B 3871  13.134   1.950   9.258  0.1576  0.4803  0.0476
  242loPI   C4B 3872  13.176   1.960   8.782 -0.2795 -0.1176 -0.2053
  243loPI    C1 3873   5.793   2.345  11.147  0.1030 -0.1359  0.0883
  243loPI    C2 3874   6.071   2.066  11.215 -0.1688 -0.4006  0.1371
  243loPI    C3 3875   5.775   2.120  11.478 -0.2434 -0.2184  0.0173
  243loPI   PO4 3876   5.745   2.259  10.891 -0.2593 -0.0141  0.1377
  243loPI   GL1 3877   5.696   2.182  10.533  0.4423 -0.0533  0.2967
  243loPI   GL2 3878   5.953   2.411  10.479 -0.1285  0.0525  0.1243
  243loPI   C1A 3879   5.669   2.191  10.138  0.0899  0.2143  0.1835
  243loPI   C2A 3880   5.625   2.107   9.649 -0.2105 -0.0435 -0.0641
  243loPI   C3A 3881   5.645   2.020   9.265 -0.1278  0.0101  0.1251
  243loPI   C4A 3882   5.632   1.989   8.831 -0.1292 -0.2204 -0.6920
  243loPI   C5A 3883   5.169   2.065   8.606  0.0022 -0.1540 -0.1654
  243loPI   C6A 3884   4.758   2.204   8.485  0.0893 -0.0238  0.0664
  243loPI   C1B 3885   6.150   2.615  10.105  0.2102 -0.0178 -0.0501
  243loPI   C2B 3886   6.253   2.736   9.688  0.0674  0.0473  0.2659
  243loPI   C3B 3887   6.260   2.611   9.219 -0.0037  0.0677 -0.0771
  243loPI   C4B 3888   6.295   2.529   8.808  0.2816 -0.2994 -0.1796
  244loPI    C1 3889  17.908   5.587  10.810  0.0427 -0.0585  0.0155
  244loPI    C2 3890  18.172   5.844  10.655 -0.2565  0.0625 -0.3076
  244loPI    C3 3891  17.955   5.948  10.976 -0.0648  0.0423 -0.1698
  244loPI   PO4 3892  17.825   5.503  10.497  0.0409  0.0839 -0.3054
  244loPI   GL1 3893  17.605   5.375  10.157  0.1823  0.2070  0.0602
  244loPI   GL2 3894  17.807   5.698  10.052  0.0009 -0.0077 -0.1586
  244loPI   C1A 3895  17.604   5.298   9.691 -0.0251 -0.1111  0.1426
  244loPI   C2A 3896  17.587   5.232   9.365 -0.0771  0.0391  0.2928
  244loPI   C3A 3897  17.647   5.138   8.879 -0.0081 -0.1283 -0.1470
  244loPI   C4A 3898  17.588   5.313   8.411 -0.1172  0.0732  0.1691
  244loPI   C5A 3899  17.511   5.488   8.002  0.0310 -0.1717 -0.0326
  244loPI   C6A 3900  17.430   5.716   7.679  0.0323 -0.1195 -0.1528
  244loPI   C1B 3901  18.081   5.387   9.879  0.5104 -0.1090  0.0650
  244loPI   C2B 3902  18.168   5.301   9.447  0.0876 -0.2340 -0.3986
  244loPI   C3B 3903  18.165   5.322   9.031 -0.0907  0.1916  0.1346
  244loPI   C4B 3904  18.068   5.381   8.688  0.5707  0.0660 -0.0314
  245loPI    C1 3905  10.675  11.929  10.450  0.1001 -0.1360  0.2537
  245loPI    C2 3906  10.434  12.180  10.648 -0.0053  0.1189 -0.1852
  245loPI    C3 3907  10.340  11.792  10.623  0.0487  0.0665  0.3171
  245loPI   PO4 3908  10.704  11.988  10.219 -0.1407 -0.0521 -0.0252
  245loPI   GL1 3909  10.528  12.076   9.822  0.0875  0.0639  0.2439
  245loPI   GL2 3910  10.731  11.979   9.592  0.0894 -0.2999  0.2210
  245loPI   C1A 3911  10.417  12.324   9.421  0.2534  0.0963 -0.0084
  245loPI   C2A 3912  10.162  12.369   8.990  0.2624  0.0504 -0.0099
  245loPI   C3A 3913   9.928  12.407   8.597 -0.2561  0.0758  0.2267
  245loPI   C4A 3914   9.852  12.645   8.274 -0.0068 -0.1247 -0.0055
  245loPI   C5A 3915   9.816  12.923   7.999 -0.1567 -0.1820  0.1851
  245loPI   C6A 3916   9.799  12.863   7.546  0.3265  0.0257  0.0291
  245loPI   C1B 3917  10.815  12.110   9.160  0.3014 -0.1509  0.4296
  245loPI   C2B 3918  10.876  12.245   8.858  0.0492 -0.3428 -0.1078
  245loPI   C3B 3919  10.880  12.359   8.484 -0.0657  0.1514  0.0050
  245loPI   C4B 3920  10.803  12.400   7.982 -0.3277  0.3160 -0.1287
  246loPI    C1 3921  13.464   5.874  10.508 -0.2383  0.4063 -0.0381
  246loPI    C2 3922  13.343   6.210  10.687  0.1337  0.3330  0.3700
  246loPI    C3 3923  13.704   6.060  10.768  0.0492 -0.0635  0.0446
  246loPI   PO4 3924  13.358   5.823  10.267 -0.3471 -0.1323 -0.0093
  246loPI   GL1 3925  13.568   5.644   9.889 -0.3628 -0.0332 -0.4027
  246loPI   GL2 3926  13.626   5.929   9.841 -0.0232  0.3827  0.4320
  246loPI   C1A 3927  13.398   5.745   9.413  0.2876  0.0882 -0.1842
  246loPI   C2A 3928  13.346   5.681   9.002  0.1232  0.3152  0.1587
  246loPI   C3A 3929  13.421   5.654   8.617 -0.0253 -0.1086  0.0767
  246loPI   C4A 3930  13.521   5.808   8.204 -0.1073  0.0611 -0.1255
  246loPI   C5A 3931  13.636   5.864   7.807 -0.0381 -0.1600  0.0252
  246loPI   C6A 3932  13.569   5.680   7.371 -0.1766  0.1141 -0.0634
  246loPI   C1B 3933  13.911   5.857   9.423 -0.0346 -0.2642 -0.2791
  246loPI   C2B 3934  13.884   5.794   8.943  0.1219 -0.0223 -0.0425
  246loPI   C3B 3935  13.943   5.765   8.592  0.2825 -0.1932 -0.0254
  246loPI   C4B 3936  14.054   5.691   8.156 -0.3573  0.4034 -0.0322
  247loPI    C1 3937  12.890  16.802  11.446  0.1066 -0.0735 -0.2381
  247loPI    C2 3938  13.193  17.055  11.382  0.0140  0.0623 -0.1459
  247loPI    C3 3939  12.815  17.186  11.362 -0.0330 -0.0539 -0.0331
  247loPI   PO4 3940  12.870  16.635  11.236  0.0789  0.3402 -0.3844
  247loPI   GL1 3941  12.918  16.535  10.861 -0.1041 -0.2039  0.2439
  247loPI   GL2 3942  13.154  16.585  10.641 -0.0809 -0.3647  0.1418
  247loPI   C1A 3943  12.596  16.669  10.443  0.1379 -0.0518  0.1443
  247loPI   C2A 3944  12.542  16.746  10.046 -0.2063  0.1100  0.3127
  247loPI   C3A 3945  12.537  16.743   9.686 -0.2245  0.1580  0.0282
  247loPI   C4A 3946  12.499  16.780   9.243  0.1114 -0.2614 -0.0609
  247loPI   C5A 3947  12.642  16.666   8.923 -0.0003  0.0983 -0.2518
  247loPI   C6A 3948  12.809  16.646   8.522 -0.4249  0.0867 -0.0208
  247loPI   C1B 3949  13.096  16.704  10.258 -0.1399 -0.2097 -0.0925
  247loPI   C2B 3950  13.047  16.849   9.884 -0.0392 -0.0456  0.1038
  247loPI   C3B 3951  13.076  16.830   9.505 -0.0948 -0.0746  0.1365
  247loPI   C4B 3952  13.195  16.898   9.082  0.0098  0.2402 -0.5735
  248loPI    C1 3953  11.142   3.153  10.988  0.0404  0.1512  0.1322
  248loPI    C2 3954  11.484   2.961  10.908 -0.0832  0.0049 -0.0551
  248loPI    C3 3955  11.388   3.049  11.287  0.0569 -0.1492  0.0177
  248loPI   PO4 3956  11.082   3.270  10.762 -0.2072 -0.4150  0.2300
  248loPI   GL1 3957  11.128   3.181  10.384  0.1068 -0.0314  0.2140
  248loPI   GL2 3958  11.418   2.966  10.385 -0.2703  0.3774  0.1085
  248loPI   C1A 3959  10.999   2.987  10.064 -0.0325 -0.1186 -0.1764
  248loPI   C2A 3960  10.972   2.902   9.670  0.1684 -0.1550 -0.0825
  248loPI   C3A 3961  11.089   2.888   9.256 -0.0214  0.0283  0.2147
  248loPI   C4A 3962  11.099   2.847   8.811  0.0134 -0.1060  0.2504
  248loPI   C5A 3963  11.010   3.032   8.440  0.0516  0.0164  0.0822
  248loPI   C6A 3964  11.290   3.370   8.266 -0.1376  0.1852  0.4010
  248loPI   C1B 3965  11.426   3.032   9.891  0.1078 -0.0155 -0.0191
  248loPI   C2B 3966  11.593   2.941   9.473  0.0350  0.2080  0.1898
  248loPI   C3B 3967  11.597   3.001   9.036  0.1032  0.0083 -0.0495
  248loPI   C4B 3968  11.613   3.004   8.578 -0.4720 -0.1620 -0.2259
  249loPI    C1 3969   2.380   0.914  11.212 -0.2558 -0.0567 -0.1190
  249loPI    C2 3970   2.316   0.557  11.381 -0.1495 -0.0198  0.0002
  249loPI    C3 3971   2.345   0.885  11.609 -0.1590  0.0525 -0.1021
  249loPI   PO4 3972   2.333   0.865  10.966  0.3422  0.0546  0.1465
  249loPI   GL1 3973   2.078   0.813  10.676  0.0751 -0.0719 -0.1398
  249loPI   GL2 3974   1.829   0.661  10.509 -0.2475 -0.0609  0.0066
  249loPI   C1A 3975   2.324   0.830  10.304  0.0739  0.3317 -0.0765
  249loPI   C2A 3976   2.379   0.921   9.839  0.0156  0.0446  0.2482
  249loPI   C3A 3977   2.300   0.855   9.341 -0.0187  0.0946  0.1935
  249loPI   C4A 3978   2.445   0.804   8.967  0.0493 -0.0488 -0.2244
  249loPI   C5A 3979   2.410   0.744   8.544 -0.0427  0.0550  0.1917
  249loPI   C6A 3980   2.093   0.509   8.283 -0.0153 -0.0412  0.0825
  249loPI   C1B 3981   1.731   0.716  10.052  0.1345 -0.4703  0.0752
  249loPI   C2B 3982   1.816   0.808   9.572  0.0886  0.0497 -0.1503
  249loPI   C3B 3983   1.830   0.687   9.206  0.0841 -0.0465 -0.0335
  249loPI   C4B 3984   1.949   0.652   8.839 -0.2094 -0.3184 -0.0359
  250loPI    C1 3985   2.222   6.046  10.933 -0.0891 -0.1749 -0.1060
  250loPI    C2 3986   2.038   6.215  11.246 -0.1436 -0.0650 -0.1965
  250loPI    C3 3987   2.158   5.834  11.266 -0.2621 -0.0974 -0.0888
  250loPI   PO4 3988   2.114   6.100  10.762 -0.2459  0.2972  0.1672
  250loPI   GL1 3989   2.086   6.054  10.274  0.0948 -0.0697 -0.3159
  250loPI   GL2 3990   2.257   5.773  10.263 -0.0326 -0.2077 -0.3010
  250loPI   C1A 3991   1.977   5.895   9.812 -0.1409 -0.1081 -0.1672
  250loPI   C2A 3992   1.994   5.815   9.440 -0.2150 -0.1168 -0.0231
  250loPI   C3A 3993   2.065   5.820   9.081  0.1002  0.1697 -0.0315
  250loPI   C4A 3994   1.971   5.867   8.649 -0.3101  0.2563 -0.0896
  250loPI   C5A 3995   2.130   5.705   8.339  0.3649 -0.1348 -0.0779
  250loPI   C6A 3996   2.049   5.646   8.019 -0.0464  0.0455 -0.1852
  250loPI   C1B 3997   2.396   5.668   9.860  0.2117  0.2297 -0.2106
  250loPI   C2B 3998   2.358   5.485   9.485 -0.1861 -0.0122  0.0771
  250loPI   C3B 3999   2.378   5.423   9.056 -0.1182  0.1571 -0.2057
  250loPI   C4B 4000   2.373   5.410   8.634  0.0968 -0.2562 -0.0602
  251loPI    C1 4001  11.044  13.328  10.921  0.1307 -0.3553 -0.1118
  251loPI    C2 4002  11.298  13.445  11.207  0.1266 -0.0025 -0.2471
  251loPI    C3 4003  11.142  13.076  11.216  0.0124  0.0503  0.2847
  251loPI   PO4 4004  10.962  13.554  10.742 -0.1080  0.2857 -0.0907
  251loPI   GL1 4005  10.983  13.952  10.430 -0.1103 -0.0173 -0.0773
  251loPI   GL2 4006  11.235  13.811  10.270  0.1783  0.1776 -0.3463
  251loPI   C1A 4007  10.739  13.833  10.105 -0.0740 -0.2587  0.2350
  251loPI   C2A 4008  10.784  13.926   9.664 -0.0397  0.0085  0.0724
  251loPI   C3A 4009  10.852  13.962   9.218 -0.0063 -0.0549 -0.0996
  251loPI   C4A 4010  10.800  13.940   8.779  0.0592 -0.1580  0.5593
  251loPI   C5A 4011  10.822  13.580   8.448  0.1004 -0.3392  0.0490
  251loPI   C6A 4012  10.822  13.257   8.039 -0.0590 -0.1313 -0.1779
  251loPI   C1B 4013  11.309  13.955   9.833 -0.0420 -0.0253  0.1159
  251loPI   C2B 4014  11.357  14.072   9.343  0.0793 -0.0990 -0.0118
  251loPI   C3B 4015  11.270  14.209   8.856  0.0990  0.0693  0.2284
  251loPI   C4B 4016  11.231  14.111   8.489 -0.2224  0.1192 -0.2236
  252loPI    C1 4017   5.585   8.600  10.187 -0.0759  0.1120 -0.1246
  252loPI    C2 4018   5.699   8.862  10.466 -0.1350 -0.1192  0.1201
  252loPI    C3 4019   5.386   8.622  10.533 -0.2591 -0.0562 -0.2169
  252loPI   PO4 4020   5.643   8.720   9.942  0.0216  0.1699 -0.1682
  252loPI   GL1 4021   5.622   8.866   9.623  0.0583  0.1308  0.1166
  252loPI   GL2 4022   5.479   8.583   9.482  0.1436 -0.0472  0.1114
  252loPI   C1A 4023   5.346   9.007   9.284  0.1300 -0.0822 -0.0951
  252loPI   C2A 4024   5.337   8.971   8.866  0.0130  0.1123 -0.0501
  252loPI   C3A 4025   5.353   8.926   8.386 -0.4650  0.1037 -0.1045
  252loPI   C4A 4026   5.287   9.117   8.030  0.0838  0.2083  0.0573
  252loPI   C5A 4027   5.056   9.013   7.633  0.1873 -0.1082 -0.1823
  252loPI   C6A 4028   4.796   8.955   7.302 -0.1777  0.0317  0.1505
  252loPI   C1B 4029   5.277   8.504   9.100  0.2483 -0.1081  0.0356
  252loPI   C2B 4030   5.213   8.500   8.698  0.2448  0.1132 -0.2534
  252loPI   C3B 4031   5.196   8.500   8.189 -0.1462 -0.1255  0.1231
  252loPI   C4B 4032   4.972   8.538   7.827 -0.2095 -0.0587  0.1229
  253loPI    C1 4033  11.338   4.005  10.877  0.0048  0.0013  0.1195
  253loPI    C2 4034  11.348   3.645  11.053 -0.0714 -0.0228  0.0747
  253loPI    C3 4035  11.538   3.955  11.220 -0.1531 -0.0431  0.2060
  253loPI   PO4 4036  11.345   3.959  10.626 -0.0567  0.1333 -0.0547
  253loPI   GL1 4037  11.267   4.153  10.277  0.0684 -0.0298  0.2315
  253loPI   GL2 4038  11.053   4.463  10.065  0.7580  0.0036 -0.1268
  253loPI   C1A 4039  11.369   3.980   9.834  0.4135 -0.0364  0.2311
  253loPI   C2A 4040  11.471   3.821   9.312 -0.1124 -0.0728 -0.1895
  253loPI   C3A 4041  11.429   3.878   8.856  0.3367 -0.0082  0.1362
  253loPI   C4A 4042  11.457   4.036   8.385  0.4003 -0.0071  0.2093
  253loPI   C5A 4043  11.145   3.871   8.109  0.1133  0.1221 -0.1727
  253loPI   C6A 4044  11.114   4.015   7.657 -0.0684 -0.1238 -0.2436
  253loPI   C1B 4045  10.926   4.275   9.614  0.3088 -0.1442 -0.1011
  253loPI   C2B 4046  11.143   4.240   9.170  0.0671 -0.1721  0.3256
  253loPI   C3B 4047  11.160   4.287   8.792  0.3031  0.1051 -0.0432
  253loPI   C4B 4048  10.961   4.246   8.427  0.1170  0.1287 -0.2546
  254loPI    C1 4049  15.123   7.776  10.558  0.0483  0.0039  0.2940
  254loPI    C2 4050  15.413   7.734  10.830  0.0843  0.1305  0.2758
  254loPI    C3 4051  15.163   8.046  10.850  0.1988  0.2389  0.0613
  254loPI   PO4 4052  15.196   7.652  10.308 -0.2232  0.0301 -0.0951
  254loPI   GL1 4053  15.590   7.659   9.989  0.1899  0.0884 -0.5186
  254loPI   GL2 4054  15.253   7.543   9.824  0.1617  0.4249  0.2049
  254loPI   C1A 4055  15.530   7.749   9.474  0.2295 -0.0954 -0.0603
  254loPI   C2A 4056  15.463   7.628   8.999  0.1835  0.1284 -0.0795
  254loPI   C3A 4057  15.521   7.570   8.553 -0.0808 -0.0083 -0.1266
  254loPI   C4A 4058  15.595   7.572   8.146 -0.0685 -0.0472  0.0445
  254loPI   C5A 4059  15.791   7.204   7.898 -0.2256 -0.2377 -0.0473
  254loPI   C6A 4060  16.122   6.991   7.705  0.1608 -0.1025 -0.2084
  254loPI   C1B 4061  15.296   7.259   9.400  0.0650 -0.3071  0.2493
  254loPI   C2B 4062  15.257   7.057   9.040 -0.0563 -0.1160 -0.4011
  254loPI   C3B 4063  15.323   7.006   8.638 -0.3727 -0.1088 -0.0403
  254loPI   C4B 4064  15.262   7.120   8.186 -0.0983  0.0809 -0.1605
  255loPI    C1 4065   0.877  11.278  11.001 -0.1517 -0.2101  0.0262
  255loPI    C2 4066   1.182  11.040  11.104  0.0415 -0.0550 -0.1757
  255loPI    C3 4067   0.901  11.134  11.373  0.3889  0.1261  0.1323
  255loPI   PO4 4068   0.831  11.160  10.738 -0.2451 -0.3194  0.0630
  255loPI   GL1 4069   0.625  11.023  10.482 -0.0005 -0.0122  0.1749
  255loPI   GL2 4070   0.348  10.802  10.317 -0.1477  0.1944 -0.3227
  255loPI   C1A 4071   0.449  11.214  10.085 -0.1884  0.3073 -0.0242
  255loPI   C2A 4072   0.395  11.377   9.763  0.3080  0.2321 -0.0083
  255loPI   C3A 4073   0.091  11.557   9.448  0.1468  0.2217  0.0967
  255loPI   C4A 4074  -0.034  11.493   8.946  0.4568 -0.2291  0.3419
  255loPI   C5A 4075  -0.074  11.503   8.410 -0.1764  0.0628  0.2320
  255loPI   C6A 4076   0.017  11.532   7.998 -0.2126  0.2055 -0.1339
  255loPI   C1B 4077   0.476  10.773   9.942 -0.0698  0.0803  0.1445
  255loPI   C2B 4078   0.348  10.982   9.519 -0.0105 -0.1378  0.1744
  255loPI   C3B 4079   0.368  11.198   9.109  0.2123  0.1815  0.1753
  255loPI   C4B 4080   0.286  11.136   8.688  0.1712  0.0385 -0.0123
  256loPI    C1 4081  14.116   4.753  10.801  0.0529 -0.0800  0.0121
  256loPI    C2 4082  14.407   4.609  11.034  0.0177 -0.0150  0.0967
  256loPI    C3 4083  14.089   4.787  11.199  0.0897  0.2153 -0.0085
  256loPI   PO4 4084  14.219   4.724  10.595 -0.0059  0.2716  0.2165
  256loPI   GL1 4085  13.985   4.546  10.238 -0.0633  0.3513 -0.0762
  256loPI   GL2 4086  14.108   4.831  10.154 -0.2255 -0.0867  0.4055
  256loPI   C1A 4087  13.855   4.444   9.778  0.0344  0.0189  0.0752
  256loPI   C2A 4088  13.951   4.542   9.319  0.1955 -0.0874 -0.2689
  256loPI   C3A 4089  13.988   4.472   8.898  0.2020  0.1897  0.1029
  256loPI   C4A 4090  14.046   4.383   8.489  0.0896 -0.1140 -0.2517
  256loPI   C5A 4091  14.131   4.480   8.071 -0.2145  0.0051 -0.0300
  256loPI   C6A 4092  14.462   4.727   7.785  0.0755  0.1621 -0.1493
  256loPI   C1B 4093  14.098   4.895   9.642 -0.1053  0.0416  0.0988
  256loPI   C2B 4094  14.118   4.980   9.162 -0.2900 -0.0266 -0.0123
  256loPI   C3B 4095  14.137   4.909   8.695  0.2169  0.2828 -0.2482
  256loPI   C4B 4096  14.252   4.881   8.315  0.2102  0.0398 -0.0448
  257loPI    C1 4097   9.073  17.190  11.124  0.1465  0.1268  0.2293
  257loPI    C2 4098   9.224  17.161  11.494  0.0700 -0.1507  0.2410
  257loPI    C3 4099   9.088  16.834  11.307  0.0136  0.0043  0.0062
  257loPI   PO4 4100   9.263  17.333  10.950  0.1444  0.0717  0.1207
  257loPI   GL1 4101   9.215  17.276  10.444 -0.4022  0.0385 -0.0141
  257loPI   GL2 4102   9.216  17.682  10.299  0.0792  0.3319 -0.1934
  257loPI   C1A 4103   9.003  17.326  10.043 -0.4178  0.2729  0.2496
  257loPI   C2A 4104   9.047  17.341   9.619 -0.2128  0.0696 -0.0998
  257loPI   C3A 4105   8.942  17.342   9.238 -0.0679 -0.0139  0.0237
  257loPI   C4A 4106   8.913  17.286   8.873 -0.0138  0.1122 -0.0235
  257loPI   C5A 4107   8.989  17.306   8.428 -0.1449  0.2494 -0.2087
  257loPI   C6A 4108   9.083  17.115   8.076  0.0649 -0.1129 -0.3933
  257loPI   C1B 4109   8.790  17.713  10.343  0.1825 -0.2643  0.1353
  257loPI   C2B 4110   8.561  17.761   9.958 -0.2782  0.0585  0.3270
  257loPI   C3B 4111   8.687  17.801   9.532  0.0713 -0.0683  0.1207
  257loPI   C4B 4112   8.605  17.676   9.083  0.1800 -0.2869 -0.1087
  258loPI    C1 4113   4.370   4.441  10.409  0.1077  0.3856  0.0063
  258loPI    C2 4114   4.160   4.387  10.745  0.0276 -0.0793 -0.1106
  258loPI    C3 4115   4.110   4.720  10.529 -0.2825  0.0019  0.0794
  258loPI   PO4 4116   4.605   4.235  10.461 -0.0747  0.2132 -0.0557
  258loPI   GL1 4117   4.914   4.084  10.136 -0.1747 -0.2774  0.1711
  258loPI   GL2 4118   5.210   3.951  10.083  0.2311 -0.2314  0.1510
  258loPI   C1A 4119   4.793   4.184   9.775  0.0156 -0.1568 -0.0927
  258loPI   C2A 4120   4.786   4.098   9.332  0.0385 -0.2088  0.2608
  258loPI   C3A 4121   4.819   4.190   8.903  0.1684 -0.0136  0.1170
  258loPI   C4A 4122   4.788   4.133   8.425 -0.0440  0.0318 -0.0957
  258loPI   C5A 4123   4.904   4.270   7.973  0.2488  0.1344 -0.2080
  258loPI   C6A 4124   4.951   4.537   7.610  0.1885 -0.0307  0.0159
  258loPI   C1B 4125   5.144   3.804   9.678  0.1584 -0.0509  0.1144
  258loPI   C2B 4126   5.104   3.762   9.260  0.0023 -0.2695 -0.0299
  258loPI   C3B 4127   5.189   3.755   8.797 -0.4202  0.0698  0.0729
  258loPI   C4B 4128   5.052   3.758   8.401  0.0348 -0.0263 -0.1345
  259loPI    C1 4129   4.418   6.820  10.800 -0.0471  0.0378 -0.1860
  259loPI    C2 4130   4.431   7.196  10.665 -0.2533  0.1996  0.2280
  259loPI    C3 4131   4.662   7.086  10.972 -0.0880 -0.0541  0.0167
  259loPI   PO4 4132   4.358   6.572  10.559  0.0510 -0.3329  0.4514
  259loPI   GL1 4133   4.320   6.466  10.028 -0.0807 -0.0418 -0.1157
  259loPI   GL2 4134   4.385   6.067   9.819  0.1044  0.0532  0.2647
  259loPI   C1A 4135   4.041   6.354   9.664 -0.2536 -0.3496  0.2656
  259loPI   C2A 4136   4.056   6.287   9.310  0.0161 -0.0087  0.1101
  259loPI   C3A 4137   3.994   6.382   8.869  0.2643 -0.0922 -0.0584
  259loPI   C4A 4138   4.145   6.383   8.536  0.3438 -0.0044 -0.2018
  259loPI   C5A 4139   4.109   6.514   8.094 -0.1685  0.1430 -0.0381
  259loPI   C6A 4140   3.971   6.872   7.874 -0.0568 -0.1217 -0.0833
  259loPI   C1B 4141   4.437   6.028   9.383 -0.0587  0.3254 -0.1492
  259loPI   C2B 4142   4.306   6.004   8.915  0.0220 -0.0462  0.0222
  259loPI   C3B 4143   4.357   5.889   8.436  0.1215  0.2215 -0.1820
  259loPI   C4B 4144   4.388   6.081   8.002  0.3503  0.0832 -0.0874
  260loPI    C1 4145   7.560  16.612  11.023  0.0824  0.1821  0.0027
  260loPI    C2 4146   7.295  16.526  11.310 -0.1724 -0.0002 -0.2812
  260loPI    C3 4147   7.677  16.415  11.350 -0.1514  0.1924  0.0948
  260loPI   PO4 4148   7.384  16.444  10.834 -0.0708  0.1253 -0.1016
  260loPI   GL1 4149   7.422  16.288  10.394  0.3075 -0.1730  0.0530
  260loPI   GL2 4150   7.845  16.264  10.428 -0.3704  0.0915 -0.2677
  260loPI   C1A 4151   7.284  16.335   9.978 -0.2081  0.0053  0.2748
  260loPI   C2A 4152   7.277  16.370   9.507 -0.0985  0.0671  0.1499
  260loPI   C3A 4153   7.148  16.428   9.155  0.1334  0.2713  0.1877
  260loPI   C4A 4154   7.180  16.495   8.708  0.2814 -0.0692  0.1703
  260loPI   C5A 4155   7.132  16.681   8.275 -0.0412  0.1716  0.0188
  260loPI   C6A 4156   7.532  16.696   8.130 -0.1205 -0.1865  0.1543
  260loPI   C1B 4157   7.907  16.451  10.011  0.0807  0.0921 -0.1757
  260loPI   C2B 4158   7.776  16.492   9.708 -0.0633  0.1208  0.1226
  260loPI   C3B 4159   7.774  16.561   9.211  0.0339  0.0799 -0.1174
  260loPI   C4B 4160   7.691  16.600   8.758  0.2185 -0.2616 -0.2642
  261loPI    C1 4161  11.958   0.101  11.398 -0.1952  0.2012 -0.0304
  261loPI    C2 4162  12.151  -0.249  11.417 -0.1855  0.2122  0.0864
  261loPI    C3 4163  11.998  -0.086  11.749 -0.2943  0.2609  0.0134
  261loPI   PO4 4164  12.089   0.258  11.197  0.0651 -0.2688 -0.3237
  261loPI   GL1 4165  12.079   0.078  10.724 -0.0882  0.4933  0.1121
  261loPI   GL2 4166  12.113   0.327  10.609 -0.0727  0.0464 -0.0898
  261loPI   C1A 4167  12.015  -0.051  10.282  0.1593  0.1238 -0.1056
  261loPI   C2A 4168  12.005  -0.128   9.829  0.1039 -0.1769 -0.3024
  261loPI   C3A 4169  12.046  -0.240   9.370 -0.1266 -0.0628 -0.1949
  261loPI   C4A 4170  12.135  -0.282   8.878 -0.0144  0.0875  0.1860
  261loPI   C5A 4171  12.079   0.011   8.583  0.0956  0.1223 -0.0763
  261loPI   C6A 4172  12.433   0.184   8.320  0.3696  0.1915 -0.1116
  261loPI   C1B 4173  12.179   0.432  10.218 -0.0566 -0.0180 -0.3610
  261loPI   C2B 4174  12.128   0.436   9.802  0.0902 -0.2554  0.3762
  261loPI   C3B 4175  12.280   0.276   9.443  0.1913 -0.3749  0.2331
  261loPI   C4B 4176  12.289   0.215   9.041 -0.0410 -0.1511 -0.1519
  262loPI    C1 4177  18.049  10.366  10.715  0.2387 -0.0282 -0.2493
  262loPI    C2 4178  18.249  10.574  10.992 -0.4028  0.0785  0.1538
  262loPI    C3 4179  18.304  10.179  10.959 -0.0873  0.1153  0.2148
  262loPI   PO4 4180  18.083  10.448  10.515  0.4924 -0.0275 -0.1845
  262loPI   GL1 4181  17.949  10.379  10.097 -0.3490 -0.0877  0.2416
  262loPI   GL2 4182  17.628  10.599  10.002 -0.2623  0.2247  0.2227
  262loPI   C1A 4183  18.280  10.480   9.739  0.2782  0.0328 -0.2507
  262loPI   C2A 4184  18.343  10.575   9.280  0.1460 -0.1594 -0.2242
  262loPI   C3A 4185  18.349  10.543   8.824  0.0943 -0.3279  0.1356
  262loPI   C4A 4186  18.209  10.680   8.487 -0.0454 -0.5206 -0.0725
  262loPI   C5A 4187  18.298  10.595   8.066 -0.2863 -0.0673  0.3550
  262loPI   C6A 4188  18.035  10.663   7.824 -0.2104  0.1135  0.3707
  262loPI   C1B 4189  17.806  10.498   9.547  0.1368  0.0618  0.2701
  262loPI   C2B 4190  17.908  10.524   9.099  0.0029  0.0597  0.0351
  262loPI   C3B 4191  17.811  10.538   8.696 -0.1441 -0.0700 -0.0425
  262loPI   C4B 4192  17.773  10.471   8.299  0.0212  0.0242  0.0546
  263loPI    C1 4193   5.305   9.104  10.215 -0.2277 -0.1372 -0.0582
  263loPI    C2 4194   5.094   9.427  10.318 -0.0736 -0.0363 -0.0562
  263loPI    C3 4195   5.003   9.071  10.475 -0.0345  0.0631  0.1956
  263loPI   PO4 4196   5.315   9.138   9.942  0.0506  0.0285 -0.0507
  263loPI   GL1 4197   5.085   9.316   9.620  0.1880 -0.4395 -0.1135
  263loPI   GL2 4198   4.779   9.463   9.613  0.0069 -0.0826 -0.3943
  263loPI   C1A 4199   5.031   9.369   9.119 -0.0145  0.0636  0.3846
  263loPI   C2A 4200   5.034   9.340   8.663  0.2917  0.0765  0.0011
  263loPI   C3A 4201   4.993   9.513   8.193  0.1928  0.0949  0.1722
  263loPI   C4A 4202   4.970   9.500   7.821  0.0833  0.2913  0.2101
  263loPI   C5A 4203   4.888   9.515   7.223 -0.1250  0.1685 -0.1191
  263loPI   C6A 4204   4.465   9.504   6.979  0.0568 -0.2742 -0.1511
  263loPI   C1B 4205   4.631   9.685   9.298 -0.0633  0.1392 -0.0890
  263loPI   C2B 4206   4.746   9.825   8.917  0.0738 -0.3384  0.1451
  263loPI   C3B 4207   4.772   9.831   8.555  0.2642 -0.1055  0.0708
  263loPI   C4B 4208   4.612   9.789   8.094 -0.0583 -0.0050 -0.1116
  264loPI    C1 4209   3.654  16.274  11.463  0.0741 -0.1951  0.0555
  264loPI    C2 4210   3.885  16.600  11.459 -0.1482 -0.0354 -0.2874
  264loPI    C3 4211   3.827  16.401  11.801  0.0432  0.2442 -0.0867
  264loPI   PO4 4212   3.511  16.167  11.047 -0.1806 -0.3338  0.0151
  264loPI   GL1 4213   3.200  16.087  10.725  0.0109 -0.0995 -0.0111
  264loPI   GL2 4214   3.007  16.226  10.582  0.0648 -0.3065 -0.2195
  264loPI   C1A 4215   3.337  15.956  10.288  0.1265  0.4095 -0.0933
  264loPI   C2A 4216   3.171  15.893   9.908  0.0656  0.1160  0.2119
  264loPI   C3A 4217   3.326  15.975   9.523  0.1677 -0.1853  0.1016
  264loPI   C4A 4218   3.226  15.948   9.109 -0.3821  0.0398 -0.2653
  264loPI   C5A 4219   3.289  15.985   8.675 -0.0365 -0.1145 -0.0620
  264loPI   C6A 4220   3.271  16.222   8.303 -0.0863 -0.0496 -0.0547
  264loPI   C1B 4221   2.812  16.310  10.154  0.2178 -0.3063 -0.3844
  264loPI   C2B 4222   2.894  16.300   9.680  0.0019  0.2806  0.2683
  264loPI   C3B 4223   2.957  16.374   9.274 -0.0232 -0.2104  0.1641
  264loPI   C4B 4224   2.927  16.303   8.921  0.2903 -0.0615 -0.2449
  265loPI    C1 4225  16.224   9.640  10.580 -0.1108 -0.0914 -0.0878
  265loPI    C2 4226  16.479   9.466  10.833 -0.0902  0.0677  0.0024
  265loPI    C3 4227  16.090   9.374  10.847 -0.0959  0.1073  0.1216
  265loPI   PO4 4228  16.446   9.608  10.346  0.1305 -0.0096 -0.1604
  265loPI   GL1 4229  16.333   9.571   9.821  0.0964 -0.1459  0.0155
  265loPI   GL2 4230  16.606   9.746   9.875 -0.2216  0.1240 -0.0271
  265loPI   C1A 4231  16.208   9.748   9.352  0.3113  0.0629 -0.0592
  265loPI   C2A 4232  16.091   9.623   8.883  0.1228 -0.2080  0.1727
  265loPI   C3A 4233  16.114   9.571   8.485 -0.1427 -0.1896 -0.1068
  265loPI   C4A 4234  16.054   9.568   7.966 -0.2391  0.0469 -0.0704
  265loPI   C5A 4235  16.288   9.318   7.605  0.1689 -0.0022 -0.0033
  265loPI   C6A 4236  16.676   9.038   7.501 -0.1356 -0.0158 -0.0446
  265loPI   C1B 4237  16.679   9.725   9.440  0.0195  0.2891 -0.1621
  265loPI   C2B 4238  16.622   9.862   9.032  0.2346  0.0371 -0.1396
  265loPI   C3B 4239  16.596   9.838   8.653 -0.1202 -0.3722  0.1951
  265loPI   C4B 4240  16.594   9.662   8.283  0.0658  0.1475 -0.1859
  266loPI    C1 4241   6.640  11.650  10.328 -0.1003  0.1230 -0.2375
  266loPI    C2 4242   6.321  11.423  10.410 -0.0127  0.0746 -0.0239
  266loPI    C3 4243   6.409  11.735  10.643 -0.0223  0.2142 -0.2049
  266loPI   PO4 4244   6.838  11.368  10.173 -0.2270 -0.1601  0.0959
  266loPI   GL1 4245   6.897  11.236   9.822  0.2826  0.3350  0.2862
  266loPI   GL2 4246   6.679  10.884   9.933 -0.0739 -0.1474  0.3426
  266loPI   C1A 4247   6.643  11.196   9.418 -0.1723  0.3156  0.1691
  266loPI   C2A 4248   6.559  11.163   8.976  0.1157  0.1965 -0.2555
  266loPI   C3A 4249   6.540  11.249   8.614 -0.0593  0.1118  0.1437
  266loPI   C4A 4250   6.427  11.193   8.199 -0.1497  0.2336  0.2010
  266loPI   C5A 4251   6.818  11.086   7.842 -0.0436  0.0237  0.1323
  266loPI   C6A 4252   7.230  11.288   7.701 -0.2388  0.2249  0.4028
  266loPI   C1B 4253   6.978  10.838   9.569 -0.3900  0.2524  0.2060
  266loPI   C2B 4254   6.930  10.737   9.092 -0.0526 -0.1295  0.2056
  266loPI   C3B 4255   6.894  10.799   8.618  0.0445  0.2539 -0.2028
  266loPI   C4B 4256   6.749  10.814   8.285 -0.2294  0.0773  0.1764
  267loPI    C1 4257   9.226  15.067  10.819  0.1011  0.1460 -0.0412
  267loPI    C2 4258   8.999  14.761  10.940  0.1223  0.0225 -0.3051
  267loPI    C3 4259   8.990  15.108  11.140 -0.2757  0.0107 -0.2933
  267loPI   PO4 4260   9.178  15.093  10.495 -0.0024  0.1312 -0.2142
  267loPI   GL1 4261   9.057  15.196  10.137  0.2201 -0.3338  0.0522
  267loPI   GL2 4262   9.254  15.023   9.990  0.2055  0.0702 -0.1322
  267loPI   C1A 4263   8.893  15.410   9.815  0.0081  0.0612 -0.0658
  267loPI   C2A 4264   8.908  15.413   9.401 -0.3563  0.1141  0.1607
  267loPI   C3A 4265   8.885  15.384   8.923  0.2983  0.0242  0.0140
  267loPI   C4A 4266   8.736  15.580   8.555 -0.0664  0.1011  0.0863
  267loPI   C5A 4267   8.610  15.601   8.175 -0.4279 -0.2876  0.1511
  267loPI   C6A 4268   8.786  15.522   7.739  0.2830 -0.0784 -0.0697
  267loPI   C1B 4269   9.314  15.029   9.498 -0.0622  0.1804  0.1336
  267loPI   C2B 4270   9.257  15.088   9.069 -0.0226 -0.1851 -0.0072
  267loPI   C3B 4271   9.134  15.157   8.584 -0.2113 -0.0085 -0.0374
  267loPI   C4B 4272   8.997  15.273   8.146 -0.0091 -0.0183  0.0590
  268loPI    C1 4273   5.193   6.854  10.336  0.1172 -0.1786 -0.2292
  268loPI    C2 4274   5.435   6.931  10.645 -0.1859 -0.1739  0.0123
  268loPI    C3 4275   5.394   7.200  10.352  0.0255 -0.1344  0.0171
  268loPI   PO4 4276   5.244   6.570  10.312 -0.2490  0.0922  0.1211
  268loPI   GL1 4277   5.270   6.248  10.010 -0.0913  0.2591 -0.1422
  268loPI   GL2 4278   5.015   6.091   9.928 -0.0268  0.1293  0.0508
  268loPI   C1A 4279   5.508   6.289   9.567 -0.0579 -0.0883 -0.4249
  268loPI   C2A 4280   5.379   6.132   9.092  0.0766  0.1204 -0.0012
  268loPI   C3A 4281   5.367   6.065   8.712 -0.0814  0.0455  0.0820
  268loPI   C4A 4282   5.329   6.031   8.319 -0.0240 -0.0651  0.0944
  268loPI   C5A 4283   5.385   6.110   7.935  0.0525 -0.0009 -0.0789
  268loPI   C6A 4284   5.568   5.654   7.737  0.1326 -0.2330 -0.0011
  268loPI   C1B 4285   5.023   6.153   9.528  0.0839  0.0859  0.3228
  268loPI   C2B 4286   4.933   5.958   9.108 -0.1080 -0.1118 -0.4795
  268loPI   C3B 4287   4.825   6.001   8.652  0.2952  0.0077  0.0487
  268loPI   C4B 4288   4.871   6.064   8.111 -0.2857 -0.0243 -0.0053
  269loPI    C1 4289   4.554  16.943  11.184  0.0417  0.2081  0.0532
  269loPI    C2 4290   4.379  16.594  11.271 -0.1062  0.2249 -0.1690
  269loPI    C3 4291   4.667  16.738  11.508 -0.0571 -0.0382 -0.0658
  269loPI   PO4 4292   4.560  16.917  10.902  0.0205 -0.2485 -0.2595
  269loPI   GL1 4293   4.409  16.717  10.605 -0.0087 -0.1005 -0.2118
  269loPI   GL2 4294   4.518  16.475  10.458 -0.0222 -0.3250  0.0309
  269loPI   C1A 4295   4.071  16.603  10.350  0.1749  0.4067 -0.2091
  269loPI   C2A 4296   3.963  16.508   9.931  0.1943  0.0568  0.0660
  269loPI   C3A 4297   3.958  16.625   9.498 -0.2891  0.2503 -0.3531
  269loPI   C4A 4298   3.973  16.565   8.997 -0.0572 -0.0657  0.0324
  269loPI   C5A 4299   4.138  16.642   8.573 -0.1931 -0.1468  0.3384
  269loPI   C6A 4300   4.431  16.499   8.206  0.0148 -0.1598  0.1329
  269loPI   C1B 4301   4.561  16.556  10.050  0.2075 -0.4089  0.1220
  269loPI   C2B 4302   4.539  16.618   9.650 -0.1246 -0.3659 -0.1355
  269loPI   C3B 4303   4.450  16.720   9.229 -0.0840 -0.1556 -0.1923
  269loPI   C4B 4304   4.550  16.807   8.850 -0.0806  0.3339 -0.2196
  270loPI    C1 4305  17.192  13.705  11.210  0.0946 -0.2312 -0.0238
  270loPI    C2 4306  17.226  14.010  11.466  0.2134 -0.1603 -0.1230
  270loPI    C3 4307  17.471  13.695  11.497  0.2245 -0.1539 -0.1461
  270loPI   PO4 4308  17.287  13.830  10.991 -0.0827  0.0668 -0.0874
  270loPI   GL1 4309  17.476  13.640  10.584 -0.1110 -0.1076 -0.0499
  270loPI   GL2 4310  17.776  13.625  10.543 -0.1306  0.0443  0.3082
  270loPI   C1A 4311  17.462  13.618  10.076  0.0195  0.0635  0.2990
  270loPI   C2A 4312  17.381  13.688   9.615  0.1253 -0.1144  0.1911
  270loPI   C3A 4313  17.574  13.740   9.208 -0.1662  0.1663  0.3236
  270loPI   C4A 4314  17.476  13.663   8.698  0.0699  0.1450 -0.0340
  270loPI   C5A 4315  17.739  13.850   8.442 -0.0130  0.0394 -0.2337
  270loPI   C6A 4316  18.025  14.144   8.413 -0.0949 -0.2038  0.0760
  270loPI   C1B 4317  17.998  13.710  10.175  0.0923  0.0088  0.0053
  270loPI   C2B 4318  17.961  13.776   9.730 -0.1879  0.0016  0.0681
  270loPI   C3B 4319  18.033  13.865   9.306 -0.0272 -0.1061  0.2069
  270loPI   C4B 4320  17.990  13.842   8.873 -0.0960  0.0379 -0.1502
  271loPI    C1 4321   9.925  18.084  11.030 -0.2945  0.2115  0.0724
  271loPI    C2 4322  10.289  18.247  10.997 -0.3123  0.1974 -0.2250
  271loPI    C3 4323  10.027  18.393  11.262 -0.0162  0.0643  0.1502
  271loPI   PO4 4324   9.942  18.045  10.689  0.0848  0.2641 -0.1106
  271loPI   GL1 4325   9.751  17.876  10.374  0.0479 -0.0779 -0.1506
  271loPI   GL2 4326   9.998  18.022  10.218  0.2809  0.1511  0.1372
  271loPI   C1A 4327   9.576  17.871   9.910 -0.2499 -0.1116 -0.0036
  271loPI   C2A 4328   9.673  17.942   9.518 -0.0125 -0.0621  0.1314
  271loPI   C3A 4329   9.728  17.962   9.058  0.0495 -0.1155  0.0611
  271loPI   C4A 4330   9.512  17.992   8.699 -0.0138  0.2389  0.0657
  271loPI   C5A 4331   9.689  18.045   8.220  0.0344  0.1112 -0.3431
  271loPI   C6A 4332   9.974  18.000   7.946 -0.2376  0.0700 -0.1207
  271loPI   C1B 4333  10.181  18.102   9.744  0.1770  0.0409  0.0334
  271loPI   C2B 4334  10.221  18.008   9.354  0.0384  0.2240 -0.2915
  271loPI   C3B 4335  10.230  18.000   8.913  0.0123 -0.1097  0.0294
  271loPI   C4B 4336  10.039  17.814   8.503 -0.5153 -0.0375  0.2310
  272loPI    C1 4337  17.012   2.598  10.868  0.1771  0.0705 -0.2095
  272loPI    C2 4338  17.040   2.200  10.900 -0.1262  0.0637  0.0120
  272loPI    C3 4339  17.214   2.436  11.172 -0.3279  0.0696  0.1383
  272loPI   PO4 4340  17.076   2.830  10.666 -0.0400 -0.0997  0.0986
  272loPI   GL1 4341  16.842   2.787  10.357  0.0467 -0.2179  0.2889
  272loPI   GL2 4342  16.712   3.110  10.381 -0.1425  0.0486 -0.0276
  272loPI   C1A 4343  16.732   2.811   9.915  0.2588 -0.1026 -0.0559
  272loPI   C2A 4344  16.724   2.735   9.563  0.1317  0.0835 -0.0865
  272loPI   C3A 4345  16.750   2.745   9.175 -0.0202 -0.1475  0.0838
  272loPI   C4A 4346  16.733   2.699   8.789  0.3516  0.0787 -0.0233
  272loPI   C5A 4347  16.867   2.693   8.386  0.1914 -0.0460  0.4616
  272loPI   C6A 4348  17.016   2.599   7.935  0.0254  0.1004  0.2571
  272loPI   C1B 4349  16.905   3.317  10.073  0.2907 -0.2969  0.3104
  272loPI   C2B 4350  16.881   3.218   9.572  0.1025 -0.1650 -0.1974
  272loPI   C3B 4351  16.944   3.208   9.116  0.0715  0.0476  0.0000
  272loPI   C4B 4352  16.921   3.117   8.641 -0.2267 -0.0125 -0.1027
  273loPI    C1 4353   2.922  17.110  10.763  0.0603  0.0765 -0.0259
  273loPI    C2 4354   3.296  16.969  10.786  0.0243 -0.0236 -0.0521
  273loPI    C3 4355   3.104  17.080  11.118  0.0183 -0.1277 -0.0203
  273loPI   PO4 4356   2.949  17.250  10.513 -0.0185 -0.2031 -0.0681
  273loPI   GL1 4357   3.287  17.231  10.273 -0.0928 -0.2014  0.1115
  273loPI   GL2 4358   3.265  17.585  10.391  0.0006 -0.1598 -0.1020
  273loPI   C1A 4359   3.274  17.206   9.881 -0.0522  0.1711  0.0699
  273loPI   C2A 4360   3.324  17.406   9.555  0.0640 -0.1501 -0.1532
  273loPI   C3A 4361   3.477  17.354   9.101 -0.1420  0.2616 -0.1075
  273loPI   C4A 4362   3.328  17.153   8.664 -0.2428 -0.1253  0.1410
  273loPI   C5A 4363   3.212  16.993   8.233 -0.0783 -0.1915 -0.3137
  273loPI   C6A 4364   3.406  16.683   8.002 -0.1104 -0.0410  0.0777
  273loPI   C1B 4365   3.396  17.912  10.102 -0.5360 -0.1057  0.1285
  273loPI   C2B 4366   3.390  17.934   9.617  0.0483 -0.1910 -0.1036
  273loPI   C3B 4367   3.490  17.825   9.161  0.1740  0.0480  0.0492
  273loPI   C4B 4368   3.527  17.858   8.713 -0.2449 -0.1180 -0.1369
  274loPI    C1 4369   4.285   2.693  10.966 -0.1395 -0.2549 -0.1560
  274loPI    C2 4370   4.044   2.536  11.243 -0.0757 -0.0018  0.0469
  274loPI    C3 4371   4.328   2.796  11.350 -0.0609  0.1111 -0.2594
  274loPI   PO4 4372   4.369   2.429  10.815  0.2480 -0.0778  0.1619
  274loPI   GL1 4373   4.230   2.350  10.441  0.3187 -0.0714  0.0101
  274loPI   GL2 4374   4.260   2.597  10.237 -0.1643 -0.0475  0.1950
  274loPI   C1A 4375   4.134   2.203   9.986 -0.0304 -0.3582 -0.1525
  274loPI   C2A 4376   4.152   2.106   9.506 -0.1743  0.2187  0.0231
  274loPI   C3A 4377   4.225   2.204   9.005 -0.1396  0.0211 -0.0179
  274loPI   C4A 4378   4.236   2.098   8.637 -0.1408  0.1420 -0.0406
  274loPI   C5A 4379   4.242   1.823   8.369 -0.0765 -0.2865 -0.2585
  274loPI   C6A 4380   3.919   1.455   8.173 -0.1972 -0.0905 -0.4499
  274loPI   C1B 4381   4.315   2.764   9.843  0.1562 -0.0090 -0.0147
  274loPI   C2B 4382   4.341   2.688   9.417  0.1429  0.3780  0.4432
  274loPI   C3B 4383   4.362   2.669   9.089 -0.0841 -0.1496  0.0914
  274loPI   C4B 4384   4.418   2.574   8.647  0.1548 -0.1814 -0.0702
  275loPI    C1 4385   8.881   3.227  11.053  0.2015  0.0855  0.0475
  275loPI    C2 4386   8.829   2.985  11.367  0.0596  0.1279  0.0570
  275loPI    C3 4387   9.193   3.031  11.209  0.0930 -0.0675  0.0748
  275loPI   PO4 4388   8.742   3.152  10.854 -0.1730 -0.0963  0.1299
  275loPI   GL1 4389   8.447   3.235  10.547  0.0031  0.1986  0.2126
  275loPI   GL2 4390   8.628   3.537  10.555 -0.0064  0.2544  0.3908
  275loPI   C1A 4391   8.158   3.345  10.257  0.0567  0.0767  0.0883
  275loPI   C2A 4392   8.197   3.217   9.771 -0.4197  0.2095  0.0866
  275loPI   C3A 4393   8.345   3.188   9.314  0.1399  0.0176 -0.0551
  275loPI   C4A 4394   8.386   3.103   8.867 -0.1352 -0.0478  0.0048
  275loPI   C5A 4395   8.608   3.278   8.467  0.1091  0.2440 -0.1661
  275loPI   C6A 4396   8.881   3.034   8.124 -0.1281 -0.0543  0.0887
  275loPI   C1B 4397   8.701   3.370  10.095 -0.1506  0.0678 -0.2960
  275loPI   C2B 4398   8.795   3.332   9.677  0.0767  0.2451  0.0949
  275loPI   C3B 4399   8.865   3.307   9.244  0.1918 -0.3190 -0.2267
  275loPI   C4B 4400   8.890   3.288   8.866 -0.2979  0.4070  0.1899
  276loPI    C1 4401  15.680   6.642  10.384 -0.0274 -0.1126  0.0845
  276loPI    C2 4402  15.440   6.324  10.425 -0.1439 -0.0120  0.1922
  276loPI    C3 4403  15.326   6.681  10.565 -0.0398  0.0912  0.0192
  276loPI   PO4 4404  15.704   6.696  10.146  0.1793 -0.0026 -0.0823
  276loPI   GL1 4405  15.600   6.763   9.714  0.0121  0.1496 -0.0384
  276loPI   GL2 4406  15.260   6.802   9.641 -0.1057  0.1780  0.0622
  276loPI   C1A 4407  15.600   6.713   9.235  0.0478  0.2128 -0.1297
  276loPI   C2A 4408  15.717   6.721   8.707 -0.2925 -0.1985 -0.4014
  276loPI   C3A 4409  15.627   6.556   8.379  0.1074 -0.3096 -0.1269
  276loPI   C4A 4410  15.590   6.488   8.003 -0.2464  0.1856 -0.2637
  276loPI   C5A 4411  15.920   6.402   7.661  0.0743  0.1694  0.0593
  276loPI   C6A 4412  16.151   6.138   7.520  0.3158  0.4155  0.0737
  276loPI   C1B 4413  15.065   6.644   9.275  0.1898  0.1455 -0.1240
  276loPI   C2B 4414  15.197   6.562   8.751 -0.3035 -0.1752  0.0885
  276loPI   C3B 4415  15.127   6.540   8.363  0.0464 -0.1848 -0.1302
  276loPI   C4B 4416  15.115   6.374   8.060  0.2955 -0.0464 -0.0061
  277loPI    C1 4417   8.444  10.384  10.319 -0.1736  0.0499 -0.0776
  277loPI    C2 4418   8.163  10.375  10.603  0.0712  0.3128  0.1787
  277loPI    C3 4419   8.533  10.245  10.684 -0.0487 -0.3353 -0.2494
  277loPI   PO4 4420   8.278  10.286  10.085 -0.3227  0.1985  0.0703
  277loPI   GL1 4421   8.016  10.153   9.667 -0.1125 -0.2831  0.1962
  277loPI   GL2 4422   8.066   9.998   9.439  0.0443  0.1999 -0.1234
  277loPI   C1A 4423   7.811  10.452   9.388 -0.0346  0.1068 -0.2129
  277loPI   C2A 4424   7.803  10.498   8.895 -0.3002 -0.1025  0.0477
  277loPI   C3A 4425   7.795  10.582   8.346  0.1692 -0.0895  0.0117
  277loPI   C4A 4426   7.628  10.581   7.813 -0.1214  0.2228  0.2355
  277loPI   C5A 4427   7.850  10.756   7.521  0.0442  0.1650  0.1404
  277loPI   C6A 4428   7.742  11.028   7.190  0.0995  0.2985  0.0436
  277loPI   C1B 4429   8.107  10.184   9.061  0.1011  0.0032  0.1975
  277loPI   C2B 4430   8.150  10.305   8.603  0.1927  0.1995  0.1410
  277loPI   C3B 4431   8.145  10.216   8.183  0.3262 -0.0158  0.2806
  277loPI   C4B 4432   8.130  10.217   7.756  0.0116 -0.0707  0.0137
  278loPI    C1 4433  13.728  15.270  11.321 -0.0230 -0.0718 -0.1458
  278loPI    C2 4434  13.389  15.060  11.352 -0.0706  0.0224 -0.0168
  278loPI    C3 4435  13.392  15.449  11.446  0.0840  0.0113  0.0267
  278loPI   PO4 4436  13.775  15.095  11.023 -0.2164 -0.0851 -0.2872
  278loPI   GL1 4437  14.039  15.115  10.706  0.1158  0.1342 -0.1026
  278loPI   GL2 4438  14.130  15.468  10.553 -0.3113  0.1780  0.3771
  278loPI   C1A 4439  14.099  15.113  10.233  0.0653 -0.0057 -0.2211
  278loPI   C2A 4440  14.209  15.110   9.783 -0.0316  0.1565  0.0642
  278loPI   C3A 4441  14.193  15.158   9.311  0.0208 -0.1025 -0.2336
  278loPI   C4A 4442  14.045  15.144   8.857 -0.0032  0.2151 -0.2312
  278loPI   C5A 4443  13.834  15.010   8.594 -0.3028 -0.0830 -0.0193
  278loPI   C6A 4444  13.461  14.889   8.517 -0.0240  0.0867  0.1786
  278loPI   C1B 4445  14.176  15.594  10.090  0.1028 -0.0148 -0.1490
  278loPI   C2B 4446  14.329  15.626   9.655 -0.1667  0.1436  0.2950
  278loPI   C3B 4447  14.304  15.633   9.213  0.6084  0.0863 -0.0517
  278loPI   C4B 4448  14.523  15.707   8.906  0.0159  0.1228  0.1883
  279loPI    C1 4449  16.679  11.814  10.684  0.1774  0.2509  0.1860
  279loPI    C2 4450  17.005  11.583  10.677  0.0070  0.0117 -0.0483
  279loPI    C3 4451  16.844  11.691  11.027  0.2652  0.0311  0.0668
  279loPI   PO4 4452  16.684  11.924  10.560  0.0087  0.0491  0.3535
  279loPI   GL1 4453  16.915  11.992  10.217  0.0153  0.0438  0.1301
  279loPI   GL2 4454  17.184  11.881  10.344 -0.1548  0.1988  0.0656
  279loPI   C1A 4455  16.951  12.135   9.794 -0.4395 -0.3269  0.1339
  279loPI   C2A 4456  17.010  12.182   9.467  0.2122 -0.1768  0.4881
  279loPI   C3A 4457  16.941  12.160   8.985  0.1599 -0.1510 -0.2575
  279loPI   C4A 4458  16.931  12.304   8.557 -0.2421 -0.0644 -0.0345
  279loPI   C5A 4459  16.911  12.657   8.255  0.1306 -0.0961  0.1348
  279loPI   C6A 4460  17.241  12.743   8.148 -0.0342  0.1986 -0.1166
  279loPI   C1B 4461  17.345  11.869   9.982 -0.1533 -0.0935  0.0015
  279loPI   C2B 4462  17.308  11.802   9.583 -0.2148  0.3246 -0.1233
  279loPI   C3B 4463  17.257  11.767   9.024  0.2854  0.1314 -0.0147
  279loPI   C4B 4464  17.326  11.942   8.654 -0.3301  0.1559 -0.1691
  280loPI    C1 4465  14.230  15.948  11.291  0.1689 -0.1855  0.1113
  280loPI    C2 4466  14.148  16.236  11.556 -0.0194 -0.0138 -0.1286
  280loPI    C3 4467  14.446  15.979  11.625  0.0538  0.1444  0.1593
  280loPI   PO4 4468  14.279  16.063  11.092  0.3045  0.1145 -0.1439
  280loPI   GL1 4469  14.189  15.911  10.724  0.3081  0.0524  0.1616
  280loPI   GL2 4470  14.460  15.811  10.688  0.2866  0.1270 -0.0346
  280loPI   C1A 4471  14.176  16.157  10.431  0.3498  0.1697  0.1348
  280loPI   C2A 4472  14.323  16.072  10.047  0.3106 -0.1846 -0.1313
  280loPI   C3A 4473  14.405  16.057   9.591  0.0546 -0.0221  0.2861
  280loPI   C4A 4474  14.448  16.254   9.182  0.0625  0.1749 -0.1164
  280loPI   C5A 4475  14.693  16.215   8.770  0.0417 -0.1099  0.0049
  280loPI   C6A 4476  14.761  16.484   8.359 -0.0088 -0.2153  0.0416
  280loPI   C1B 4477  14.735  15.818  10.277  0.0836 -0.1431  0.2233
  280loPI   C2B 4478  14.809  15.788   9.818 -0.2554  0.2359 -0.0907
  280loPI   C3B 4479  14.778  15.744   9.342 -0.1954 -0.1720  0.2017
  280loPI   C4B 4480  15.028  15.871   8.955  0.2042  0.1047  0.0733
  281loPI    C1 4481  16.761  15.790  10.682  0.1813  0.0949  0.0096
  281loPI    C2 4482  16.573  15.938  11.002  0.1550 -0.1817  0.1243
  281loPI    C3 4483  16.383  15.918  10.651  0.0431 -0.2576  0.1884
  281loPI   PO4 4484  16.977  15.817  10.674  0.1478  0.0567 -0.5163
  281loPI   GL1 4485  17.299  16.048  10.571  0.0049  0.2673  0.1571
  281loPI   GL2 4486  17.577  16.180  10.568  0.0934  0.0972 -0.1035
  281loPI   C1A 4487  17.239  16.007  10.074  0.0890 -0.1390 -0.0227
  281loPI   C2A 4488  17.258  15.886   9.638 -0.3909 -0.2206 -0.1820
  281loPI   C3A 4489  17.221  15.958   9.171  0.0118 -0.2717 -0.2024
  281loPI   C4A 4490  17.259  15.893   8.748  0.3119 -0.0102 -0.3595
  281loPI   C5A 4491  17.080  16.066   8.492 -0.3912  0.1839 -0.2485
  281loPI   C6A 4492  16.906  16.374   8.264 -0.3816 -0.0109 -0.1749
  281loPI   C1B 4493  17.764  16.068  10.158  0.0728 -0.1839 -0.2576
  281loPI   C2B 4494  17.711  16.053   9.696  0.0226  0.3053 -0.2129
  281loPI   C3B 4495  17.748  15.980   9.259 -0.2070 -0.2390 -0.1668
  281loPI   C4B 4496  17.762  16.099   8.844  0.3405 -0.0877  0.0557
  282loPI    C1 4497   0.940   8.625  10.190  0.2805 -0.0272 -0.1504
  282loPI    C2 4498   1.265   8.603  10.422  0.1713 -0.0564  0.0011
  282loPI    C3 4499   0.903   8.541  10.579  0.0993 -0.1188 -0.1867
  282loPI   PO4 4500   0.916   8.836  10.116  0.3136  0.3560  0.0003
  282loPI   GL1 4501   0.962   8.974   9.709 -0.0103 -0.0900 -0.0558
  282loPI   GL2 4502   1.228   9.102   9.736  0.1906 -0.0194  0.0049
  282loPI   C1A 4503   0.832   9.155   9.354  0.1159 -0.0585 -0.0637
  282loPI   C2A 4504   0.628   9.394   9.124 -0.0876  0.0008 -0.0205
  282loPI   C3A 4505   0.751   9.306   8.670  0.2042  0.0639  0.0421
  282loPI   C4A 4506   0.750   9.400   8.296  0.1436 -0.0856  0.1674
  282loPI   C5A 4507   0.585   9.203   7.897  0.1719 -0.1380  0.0217
  282loPI   C6A 4508   0.883   9.044   7.563 -0.0212 -0.0938  0.3738
  282loPI   C1B 4509   1.244   9.371   9.423  0.0662 -0.3961  0.0128
  282loPI   C2B 4510   1.104   9.480   9.013 -0.0344  0.1328 -0.4348
  282loPI   C3B 4511   1.175   9.479   8.566 -0.1973 -0.0072 -0.1530
  282loPI   C4B 4512   1.396   9.430   8.224 -0.0154 -0.1573 -0.1254
  283loPI    C1 4513   3.146  14.237  11.142 -0.0594  0.0440  0.0614
  283loPI    C2 4514   3.485  14.376  10.983 -0.2170  0.2264 -0.1209
  283loPI    C3 4515   3.425  14.400  11.377  0.0570  0.0282 -0.0645
  283loPI   PO4 4516   2.998  14.305  10.956  0.0391 -0.0722 -0.2866
  283loPI   GL1 4517   2.632  14.286  10.596  0.3270  0.1969  0.1847
  283loPI   GL2 4518   2.840  13.973  10.516  0.2242  0.4294 -0.2032
  283loPI   C1A 4519   2.894  14.481  10.295  0.0789 -0.1391 -0.0515
  283loPI   C2A 4520   2.798  14.519   9.889  0.0317 -0.1054 -0.0170
  283loPI   C3A 4521   2.830  14.529   9.410 -0.0102 -0.0122 -0.2552
  283loPI   C4A 4522   2.864  14.511   8.954  0.0932  0.1617  0.1436
  283loPI   C5A 4523   2.728  14.507   8.539 -0.0722 -0.1091  0.0167
  283loPI   C6A 4524   3.002  14.631   8.239  0.0007 -0.2429 -0.0693
  283loPI   C1B 4525   2.657  13.987  10.046 -0.1595  0.2045  0.2111
  283loPI   C2B 4526   2.564  14.065   9.653  0.3517  0.2157 -0.2220
  283loPI   C3B 4527   2.663  14.105   9.165 -0.0849  0.0621  0.1277
  283loPI   C4B 4528   2.621  14.068   8.696 -0.1510 -0.2735  0.1489
  284loPI    C1 4529  15.324  13.604  11.312  0.0357 -0.0022  0.0025
  284loPI    C2 4530  15.180  13.893  11.548  0.2793  0.0238  0.1224
  284loPI    C3 4531  15.545  13.929  11.389  0.2290 -0.1247 -0.0288
  284loPI   PO4 4532  15.204  13.552  11.086  0.3598 -0.2573  0.0534
  284loPI   GL1 4533  14.980  13.606  10.792 -0.0893 -0.0258  0.0905
  284loPI   GL2 4534  14.799  13.396  10.660  0.0344  0.0477 -0.1386
  284loPI   C1A 4535  15.175  13.760  10.427 -0.3210  0.0618  0.3040
  284loPI   C2A 4536  15.159  13.871   9.940  0.0228  0.0021  0.1198
  284loPI   C3A 4537  15.234  14.051   9.536 -0.0228 -0.1061 -0.3136
  284loPI   C4A 4538  15.231  14.122   9.154 -0.0708  0.2498  0.1311
  284loPI   C5A 4539  15.165  14.059   8.688 -0.0666 -0.0404 -0.2802
  284loPI   C6A 4540  14.837  14.292   8.467 -0.1793 -0.2110  0.1863
  284loPI   C1B 4541  15.015  13.325  10.250 -0.1639 -0.0369 -0.0518
  284loPI   C2B 4542  14.952  13.453   9.819  0.0904 -0.1399 -0.0280
  284loPI   C3B 4543  15.098  13.615   9.388 -0.0347 -0.1964 -0.0155
  284loPI   C4B 4544  15.167  13.646   9.045 -0.2283  0.3330  0.2965
  285loPI    C1 4545   7.787   0.757  11.249 -0.1360 -0.1149  0.1158
  285loPI    C2 4546   7.485   0.705  11.506 -0.1462 -0.2654  0.0747
  285loPI    C3 4547   7.858   0.749  11.642 -0.1727 -0.1814  0.1212
  285loPI   PO4 4548   7.645   0.694  11.000  0.2222 -0.3218  0.0269
  285loPI   GL1 4549   7.510   0.806  10.597  0.1152 -0.2138  0.0588
  285loPI   GL2 4550   7.649   1.126  10.457 -0.0437  0.0904  0.1057
  285loPI   C1A 4551   7.458   0.671  10.233  0.0233  0.0188  0.1809
  285loPI   C2A 4552   7.548   0.570   9.841  0.1122 -0.1565  0.1104
  285loPI   C3A 4553   7.611   0.555   9.504  0.1995 -0.2686  0.1656
  285loPI   C4A 4554   7.568   0.659   9.040 -0.0341 -0.1803  0.0943
  285loPI   C5A 4555   7.430   0.803   8.516 -0.0088 -0.0695  0.0182
  285loPI   C6A 4556   7.086   0.936   8.342  0.2211 -0.4613  0.3959
  285loPI   C1B 4557   7.782   1.155   9.989  0.0763 -0.0239  0.3076
  285loPI   C2B 4558   7.808   1.181   9.552  0.0916 -0.1750 -0.0114
  285loPI   C3B 4559   7.728   1.185   9.254  0.2519 -0.0905 -0.0661
  285loPI   C4B 4560   7.673   1.145   8.819 -0.3291  0.3970 -0.1376
  286loPI    C1 4561   1.340   1.456  10.958 -0.0711  0.1119 -0.0966
  286loPI    C2 4562   1.170   1.768  11.141 -0.0948 -0.1064  0.2635
  286loPI    C3 4563   1.568   1.729  11.141 -0.0766  0.0540 -0.0028
  286loPI   PO4 4564   1.238   1.423  10.777 -0.2233 -0.1313  0.0041
  286loPI   GL1 4565   1.385   1.593  10.396 -0.1714  0.1645 -0.0060
  286loPI   GL2 4566   1.036   1.558  10.240 -0.1550  0.3212  0.1305
  286loPI   C1A 4567   1.678   1.569  10.095  0.4698  0.0692  0.0303
  286loPI   C2A 4568   1.639   1.587   9.684 -0.2345  0.0463  0.0398
  286loPI   C3A 4569   1.637   1.557   9.216 -0.2554 -0.2529 -0.1399
  286loPI   C4A 4570   1.702   1.654   8.812  0.0639  0.2067  0.3691
  286loPI   C5A 4571   1.744   1.422   8.377  0.0342 -0.1699 -0.1345
  286loPI   C6A 4572   2.064   1.336   8.047  0.1370  0.0874  0.0794
  286loPI   C1B 4573   1.002   1.437   9.743 -0.0992  0.1754 -0.1925
  286loPI   C2B 4574   1.150   1.467   9.291  0.1852 -0.1329  0.0874
  286loPI   C3B 4575   1.241   1.429   8.852  0.1781  0.0138  0.0333
  286loPI   C4B 4576   0.965   1.550   8.581  0.3420 -0.0773  0.0147
  287loPI    C1 4577   4.728  17.434  11.290 -0.1190  0.3243  0.1753
  287loPI    C2 4578   4.702  17.207  11.618  0.0060 -0.1335 -0.1204
  287loPI    C3 4579   5.061  17.309  11.473 -0.0484  0.0489 -0.1293
  287loPI   PO4 4580   4.700  17.398  10.968  0.2361  0.2551  0.2505
  287loPI   GL1 4581   4.666  17.229  10.494  0.2128 -0.3010 -0.0496
  287loPI   GL2 4582   4.798  17.060  10.226  0.4995 -0.4544  0.0717
  287loPI   C1A 4583   4.739  17.561  10.140 -0.2554  0.1356 -0.0585
  287loPI   C2A 4584   4.820  17.657   9.717 -0.3030 -0.1450 -0.4444
  287loPI   C3A 4585   4.797  17.696   9.298  0.4754 -0.1505  0.2181
  287loPI   C4A 4586   4.863  17.790   8.874 -0.0189  0.2792 -0.4794
  287loPI   C5A 4587   5.101  17.808   8.500 -0.3346  0.0514  0.1783
  287loPI   C6A 4588   5.422  18.040   8.399 -0.1868 -0.3308  0.0992
  287loPI   C1B 4589   4.689  17.189   9.761 -0.2314 -0.0980 -0.0843
  287loPI   C2B 4590   4.634  17.176   9.298 -0.0981  0.2104 -0.1235
  287loPI   C3B 4591   4.711  17.278   8.878 -0.1717 -0.2830  0.1489
  287loPI   C4B 4592   4.716  17.087   8.429  0.1865  0.1739 -0.0653
  288loPI    C1 4593   7.714  18.121  11.032  0.0304  0.0232  0.0912
  288loPI    C2 4594   7.484  18.406  11.193 -0.2408 -0.1683  0.0487
  288loPI    C3 4595   7.607  18.098  11.417 -0.3143 -0.2448 -0.0151
  288loPI   PO4 4596   7.530  18.010  10.865 -0.1665 -0.3718  0.2439
  288loPI   GL1 4597   7.251  18.071  10.485  0.0379 -0.0950  0.1389
  288loPI   GL2 4598   7.604  17.985  10.388 -0.2177  0.2035  0.0721
  288loPI   C1A 4599   7.308  18.280  10.057  0.2379 -0.1477 -0.1992
  288loPI   C2A 4600   7.481  18.276   9.574 -0.0272  0.0484  0.0967
  288loPI   C3A 4601   7.492  18.291   9.154 -0.0072 -0.1367  0.1745
  288loPI   C4A 4602   7.410  18.461   8.661  0.0263  0.0862  0.0269
  288loPI   C5A 4603   7.320  18.539   8.267  0.1248 -0.1017 -0.2844
  288loPI   C6A 4604   7.239  18.253   7.883 -0.0328 -0.2411 -0.0713
  288loPI   C1B 4605   7.690  17.899   9.999  0.1563  0.0381  0.1051
  288loPI   C2B 4606   7.835  17.955   9.561  0.2435  0.0248  0.1543
  288loPI   C3B 4607   7.774  17.887   9.107 -0.1598  0.2873  0.0527
  288loPI   C4B 4608   7.740  18.048   8.704  0.0936  0.0630  0.4315
  289loPI    C1 4609   0.586  10.588  10.758 -0.0757 -0.0935  0.1201
  289loPI    C2 4610   0.838  10.712  11.042 -0.0817  0.0620  0.0591
  289loPI    C3 4611   0.494  10.906  10.983 -0.1673 -0.0848  0.0709
  289loPI   PO4 4612   0.753  10.367  10.548  0.1874  0.2305 -0.2277
  289loPI   GL1 4613   0.773  10.337  10.046 -0.0449 -0.0294  0.1919
  289loPI   GL2 4614   0.961  10.533  10.019 -0.2286 -0.2543 -0.0018
  289loPI   C1A 4615   0.574  10.271   9.670  0.0291 -0.3715  0.2376
  289loPI   C2A 4616   0.642  10.158   9.251  0.0493 -0.1518 -0.0696
  289loPI   C3A 4617   0.484  10.215   8.871  0.1776  0.1667  0.1247
  289loPI   C4A 4618   0.379  10.292   8.427  0.0184 -0.3973 -0.0797
  289loPI   C5A 4619   0.409  10.223   8.021  0.1257  0.0489  0.2136
  289loPI   C6A 4620   0.042  10.218   7.716  0.0100 -0.1348  0.0265
  289loPI   C1B 4621   0.860  10.682   9.616 -0.4601  0.0162 -0.1199
  289loPI   C2B 4622   0.676  10.736   9.182 -0.2402 -0.1761 -0.0778
  289loPI   C3B 4623   0.617  10.772   8.750  0.1639 -0.0077  0.5486
  289loPI   C4B 4624   0.548  10.691   8.299 -0.0667 -0.0387  0.0013
  290loPI    C1 4625   2.011  12.159  10.862  0.1100 -0.0551 -0.3046
  290loPI    C2 4626   2.147  11.786  10.916 -0.0938 -0.0623  0.2182
  290loPI    C3 4627   1.762  11.872  10.986 -0.1185  0.1895 -0.1878
  290loPI   PO4 4628   2.002  12.184  10.569  0.0388 -0.1164  0.0936
  290loPI   GL1 4629   2.156  12.206  10.074 -0.0850  0.1142 -0.0331
  290loPI   GL2 4630   2.074  12.028   9.810  0.0192  0.2025 -0.0871
  290loPI   C1A 4631   2.226  12.485   9.790  0.2931  0.2330  0.0898
  290loPI   C2A 4632   2.247  12.602   9.346  0.2163  0.0151  0.1917
  290loPI   C3A 4633   2.095  12.522   8.937 -0.1023  0.0017  0.0159
  290loPI   C4A 4634   2.011  12.460   8.589  0.1854  0.1630 -0.2973
  290loPI   C5A 4635   2.169  12.532   8.242  0.2579 -0.0337 -0.0232
  290loPI   C6A 4636   2.085  12.721   7.869  0.0471 -0.2895  0.0553
  290loPI   C1B 4637   1.990  12.094   9.371  0.0190  0.0884  0.0994
  290loPI   C2B 4638   1.999  12.076   8.924 -0.2825  0.0271 -0.0457
  290loPI   C3B 4639   1.933  11.968   8.585 -0.0814  0.0200  0.2209
  290loPI   C4B 4640   2.071  12.041   8.278 -0.0817 -0.1427  0.0149
  291loPI    C1 4641   4.059   9.632  10.373  0.2350  0.0571  0.0949
  291loPI    C2 4642   4.210   9.888  10.640  0.0904  0.0075  0.2258
  291loPI    C3 4643   4.219   9.495  10.713 -0.0644  0.0015  0.2171
  291loPI   PO4 4644   4.136   9.735  10.151 -0.1894 -0.4322  0.0674
  291loPI   GL1 4645   4.118   9.664   9.641  0.1917  0.1714 -0.0902
  291loPI   GL2 4646   4.409   9.853   9.713 -0.2020  0.3491  0.0812
  291loPI   C1A 4647   4.167   9.748   9.152 -0.0666  0.0658 -0.0415
  291loPI   C2A 4648   4.262   9.798   8.675 -0.0659 -0.3208 -0.0598
  291loPI   C3A 4649   4.142   9.732   8.359  0.0279  0.2746 -0.1278
  291loPI   C4A 4650   4.133   9.788   7.929  0.1504  0.0338 -0.0438
  291loPI   C5A 4651   3.837   9.658   7.628  0.0663  0.2031  0.0925
  291loPI   C6A 4652   3.708   9.297   7.441  0.0485  0.0516 -0.4055
  291loPI   C1B 4653   4.284  10.124   9.436  0.4343  0.2595 -0.1507
  291loPI   C2B 4654   4.392  10.237   8.972 -0.0602 -0.2414  0.0558
  291loPI   C3B 4655   4.248  10.279   8.572 -0.1444 -0.1190  0.0778
  291loPI   C4B 4656   4.210  10.204   8.151  0.1594  0.0297 -0.0674
  292loPI    C1 4657  15.070  16.701  11.213  0.0939 -0.0308 -0.1332
  292loPI    C2 4658  14.986  16.593  11.589  0.0202 -0.0917 -0.1668
  292loPI    C3 4659  15.175  16.339  11.345  0.1819 -0.0055 -0.1327
  292loPI   PO4 4660  14.828  16.783  11.127  0.1323  0.0915 -0.2033
  292loPI   GL1 4661  14.847  16.858  10.774  0.0411 -0.3200 -0.1550
  292loPI   GL2 4662  15.139  16.880  10.622  0.1090 -0.0476 -0.0528
  292loPI   C1A 4663  14.726  17.038  10.390 -0.2763 -0.2446  0.2405
  292loPI   C2A 4664  14.601  17.181  10.101 -0.3802 -0.1027  0.1507
  292loPI   C3A 4665  14.634  17.135   9.554  0.2671 -0.0112 -0.1051
  292loPI   C4A 4666  14.638  17.250   9.193 -0.1256  0.1856  0.3768
  292loPI   C5A 4667  14.632  17.430   8.786 -0.1771 -0.0052 -0.1543
  292loPI   C6A 4668  14.831  17.726   8.576  0.2470  0.0440 -0.1999
  292loPI   C1B 4669  15.052  16.739  10.223 -0.1523  0.0745 -0.0017
  292loPI   C2B 4670  14.922  16.801   9.772  0.0294 -0.2509 -0.3151
  292loPI   C3B 4671  15.009  16.894   9.321 -0.1612  0.0384 -0.1335
  292loPI   C4B 4672  14.970  16.972   8.840 -0.4596  0.0655  0.0028
  293loPI    C1 4673   8.034   7.958  10.202  0.0400 -0.1886 -0.1779
  293loPI    C2 4674   7.911   7.586  10.118  0.0695 -0.2249 -0.0619
  293loPI    C3 4675   7.997   7.688  10.495 -0.1444 -0.0394 -0.0613
  293loPI   PO4 4676   8.124   7.969   9.916 -0.1476  0.0348  0.0496
  293loPI   GL1 4677   8.182   7.770   9.513 -0.1883  0.0553 -0.2989
  293loPI   GL2 4678   8.549   7.821   9.295  0.0861 -0.3766 -0.0515
  293loPI   C1A 4679   8.179   7.590   9.116  0.0979 -0.1271  0.1630
  293loPI   C2A 4680   8.250   7.445   8.739 -0.0101  0.1731  0.0391
  293loPI   C3A 4681   8.256   7.344   8.293  0.0248 -0.1943 -0.3476
  293loPI   C4A 4682   8.361   7.155   7.925  0.0443  0.0459 -0.1354
  293loPI   C5A 4683   8.679   7.078   7.663 -0.2121 -0.1969  0.1038
  293loPI   C6A 4684   9.144   7.220   7.864  0.1702 -0.0451  0.3547
  293loPI   C1B 4685   8.564   7.852   8.814  0.1012  0.1755 -0.2117
  293loPI   C2B 4686   8.440   7.871   8.418 -0.3078 -0.2684  0.1843
  293loPI   C3B 4687   8.225   7.825   7.963 -0.2081 -0.1805 -0.2840
  293loPI   C4B 4688   8.272   7.547   7.693 -0.0141  0.1564  0.2324
  294loPI    C1 4689   0.799  16.170  11.142  0.2791 -0.0977 -0.2445
  294loPI    C2 4690   0.978  16.524  11.090  0.1419  0.0386  0.1694
  294loPI    C3 4691   0.685  16.486  11.359  0.1939 -0.4057  0.1711
  294loPI   PO4 4692   0.719  16.132  10.913 -0.0740 -0.0397  0.1869
  294loPI   GL1 4693   0.737  16.248  10.613 -0.3090  0.3220 -0.3622
  294loPI   GL2 4694   0.986  16.578  10.541  0.0545 -0.2910  0.0496
  294loPI   C1A 4695   0.601  16.342  10.174  0.1943  0.0383  0.0096
  294loPI   C2A 4696   0.573  16.410   9.766  0.1012  0.1420 -0.0752
  294loPI   C3A 4697   0.599  16.299   9.339 -0.0221 -0.0572 -0.1115
  294loPI   C4A 4698   0.605  16.287   8.899 -0.1484  0.2529 -0.1747
  294loPI   C5A 4699   0.551  16.107   8.669  0.1831  0.0690  0.2361
  294loPI   C6A 4700   0.504  15.692   8.649  0.1576  0.1345 -0.0395
  294loPI   C1B 4701   1.046  16.407  10.076  0.2400 -0.0934 -0.0878
  294loPI   C2B 4702   1.045  16.351   9.663  0.0155 -0.0728 -0.0702
  294loPI   C3B 4703   1.127  16.453   9.158 -0.1201  0.3543 -0.1214
  294loPI   C4B 4704   1.142  16.452   8.702  0.0912  0.2472 -0.0450
  295loPI    C1 4705  11.632  13.068  11.068 -0.1706 -0.2097 -0.0955
  295loPI    C2 4706  11.879  13.295  11.286 -0.2070 -0.1209 -0.1460
  295loPI    C3 4707  11.581  13.096  11.464 -0.2279 -0.0600 -0.1125
  295loPI   PO4 4708  11.800  13.219  10.812  0.0802 -0.0939  0.0941
  295loPI   GL1 4709  11.776  13.195  10.332 -0.1308 -0.1692 -0.0146
  295loPI   GL2 4710  11.435  13.288  10.183 -0.1337 -0.1181 -0.0020
  295loPI   C1A 4711  11.951  13.207   9.878  0.1685  0.1738  0.1580
  295loPI   C2A 4712  12.086  13.222   9.451  0.2016  0.1033  0.0048
  295loPI   C3A 4713  12.101  13.368   9.020 -0.1841 -0.0256  0.2493
  295loPI   C4A 4714  11.755  13.396   8.757 -0.0388  0.1066 -0.1737
  295loPI   C5A 4715  11.716  13.381   8.399 -0.2451  0.1295 -0.1616
  295loPI   C6A 4716  11.818  13.158   8.052 -0.2931 -0.1270  0.1551
  295loPI   C1B 4717  11.609  13.575   9.885 -0.1619 -0.2851 -0.3944
  295loPI   C2B 4718  11.714  13.697   9.466  0.2638 -0.2265  0.0536
  295loPI   C3B 4719  11.644  13.780   9.075  0.1498  0.0484 -0.1521
  295loPI   C4B 4720  11.932  13.895   8.793  0.2873 -0.2554  0.2014
  296loPI    C1 4721  16.649  16.763  11.102 -0.0417 -0.1482  0.2397
  296loPI    C2 4722  16.868  16.942  11.384  0.0800  0.0679  0.0124
  296loPI    C3 4723  16.499  17.075  11.303  0.0072 -0.0559  0.1339
  296loPI   PO4 4724  16.823  16.766  10.838 -0.3216  0.1133 -0.1701
  296loPI   GL1 4725  17.126  16.525  10.598  0.0213  0.1579  0.2645
  296loPI   GL2 4726  16.858  16.333  10.506 -0.1567 -0.0734 -0.2204
  296loPI   C1A 4727  17.346  16.471  10.274  0.1391  0.0442 -0.0284
  296loPI   C2A 4728  17.432  16.578   9.868 -0.0573  0.3292 -0.2778
  296loPI   C3A 4729  17.415  16.328   9.391 -0.5383  0.1078 -0.1372
  296loPI   C4A 4730  17.331  16.409   8.991  0.0330  0.1014  0.1708
  296loPI   C5A 4731  17.452  16.457   8.670  0.0751 -0.1416 -0.1912
  296loPI   C6A 4732  17.287  16.712   8.359 -0.0187  0.0390  0.1625
  296loPI   C1B 4733  16.861  16.340  10.016  0.3818  0.1525  0.0850
  296loPI   C2B 4734  17.010  16.306   9.589  0.1411  0.1199 -0.1916
  296loPI   C3B 4735  16.869  16.308   9.178 -0.0800  0.0441  0.0225
  296loPI   C4B 4736  16.844  16.439   8.758 -0.2218  0.2037  0.0982
  297loPI    C1 4737   5.108  10.121  10.422  0.1423  0.0739 -0.1570
  297loPI    C2 4738   5.214  10.498  10.505 -0.3445  0.1880 -0.0223
  297loPI    C3 4739   5.267  10.211  10.778 -0.2588  0.2164 -0.0088
  297loPI   PO4 4740   5.059  10.129  10.228  0.3266  0.1402  0.0517
  297loPI   GL1 4741   5.319  10.388   9.898  0.0907  0.0177 -0.1316
  297loPI   GL2 4742   5.108  10.560   9.828  0.2814  0.2948  0.3402
  297loPI   C1A 4743   5.484  10.319   9.558  0.2895  0.1131 -0.0063
  297loPI   C2A 4744   5.396  10.315   9.012 -0.2618 -0.2116 -0.2279
  297loPI   C3A 4745   5.353  10.382   8.649 -0.0395  0.0110 -0.4781
  297loPI   C4A 4746   5.297  10.493   8.186  0.0446  0.2555  0.4719
  297loPI   C5A 4747   5.390  10.381   7.612 -0.3053 -0.1369 -0.0820
  297loPI   C6A 4748   5.565  10.265   7.236  0.0874  0.3697  0.1264
  297loPI   C1B 4749   5.119  10.579   9.391 -0.0505 -0.2636  0.0609
  297loPI   C2B 4750   5.021  10.720   9.012 -0.0481 -0.1035 -0.0214
  297loPI   C3B 4751   4.893  10.890   8.571 -0.1016  0.1045 -0.0807
  297loPI   C4B 4752   4.903  10.738   8.196 -0.2406 -0.1923  0.2004
  298loPI    C1 4753   2.468   8.040  10.358  0.0546  0.0741  0.1220
  298loPI    C2 4754   2.665   7.715  10.484  0.1772  0.1199  0.0502
  298loPI    C3 4755   2.361   7.861  10.700  0.2234  0.0505  0.1631
  298loPI   PO4 4756   2.411   8.073  10.118  0.1501  0.2241 -0.0369
  298loPI   GL1 4757   2.555   8.259   9.849  0.0158  0.1689 -0.1316
  298loPI   GL2 4758   2.680   7.985   9.730  0.1352 -0.0771  0.0245
  298loPI   C1A 4759   2.394   8.277   9.434  0.1117  0.0369  0.1229
  298loPI   C2A 4760   2.206   8.361   8.970 -0.1507  0.0108 -0.0457
  298loPI   C3A 4761   2.062   8.558   8.652  0.4227 -0.0503 -0.0922
  298loPI   C4A 4762   2.045   8.677   8.211  0.3393 -0.2432  0.1066
  298loPI   C5A 4763   2.045   8.655   7.736  0.4981 -0.1265  0.1280
  298loPI   C6A 4764   1.836   8.697   7.348  0.4285  0.1543  0.1303
  298loPI   C1B 4765   2.807   7.941   9.262 -0.0997 -0.3779 -0.0395
  298loPI   C2B 4766   2.904   7.881   8.859  0.1327 -0.0209  0.0782
  298loPI   C3B 4767   2.756   7.822   8.500  0.0303  0.1398  0.1233
  298loPI   C4B 4768   2.490   7.801   8.095  0.2444  0.0886 -0.0214
  299loPI    C1 4769  10.397  17.432  11.280  0.2855  0.0452 -0.0561
  299loPI    C2 4770  10.722  17.663  11.247  0.3570 -0.0334  0.0840
  299loPI    C3 4771  10.684  17.415  11.558  0.1644 -0.0288  0.0659
  299loPI   PO4 4772  10.390  17.282  11.065 -0.0539 -0.0323 -0.1947
  299loPI   GL1 4773  10.545  17.267  10.735 -0.0592 -0.1979 -0.1348
  299loPI   GL2 4774  10.771  17.027  10.595  0.0146 -0.0737 -0.0676
  299loPI   C1A 4775  10.428  17.228  10.241  0.2355 -0.0993 -0.1362
  299loPI   C2A 4776  10.327  17.155   9.767 -0.0126  0.0668 -0.0393
  299loPI   C3A 4777  10.250  17.177   9.398  0.0808  0.0077 -0.0241
  299loPI   C4A 4778  10.175  17.168   8.886 -0.0814  0.0889 -0.2782
  299loPI   C5A 4779  10.403  17.115   8.516 -0.1493  0.2970  0.2190
  299loPI   C6A 4780  10.460  17.294   8.123  0.0976  0.3594  0.0712
  299loPI   C1B 4781  10.732  16.823  10.182  0.0507  0.1515 -0.0575
  299loPI   C2B 4782  10.726  16.685   9.715  0.1409  0.0758  0.0694
  299loPI   C3B 4783  10.619  16.775   9.185 -0.0111  0.0341  0.1538
  299loPI   C4B 4784  10.714  16.733   8.673  0.4024 -0.0039 -0.2199
  300loPI    C1 4785  14.045  16.747  11.407 -0.0137 -0.0971  0.2301
  300loPI    C2 4786  13.694  16.937  11.426  0.0683  0.0815  0.0004
  300loPI    C3 4787  14.035  17.140  11.477  0.1444 -0.0683  0.0969
  300loPI   PO4 4788  14.044  16.553  11.191  0.0471  0.1262 -0.0781
  300loPI   GL1 4789  14.243  16.494  10.803 -0.0510 -0.1743 -0.0723
  300loPI   GL2 4790  14.561  16.474  10.877  0.3153  0.0032 -0.1490
  300loPI   C1A 4791  14.381  16.692  10.391 -0.2664  0.1860  0.2192
  300loPI   C2A 4792  14.472  16.686  10.081  0.1075 -0.2057 -0.0415
  300loPI   C3A 4793  14.445  16.542   9.623 -0.1150  0.2172  0.1313
  300loPI   C4A 4794  14.480  16.739   9.192 -0.2378  0.1469 -0.0042
  300loPI   C5A 4795  14.544  16.764   8.774  0.3513 -0.1792  0.1132
  300loPI   C6A 4796  14.295  16.563   8.456  0.0634 -0.0426 -0.2936
  300loPI   C1B 4797  14.725  16.343  10.515 -0.3261 -0.5013  0.3022
  300loPI   C2B 4798  14.754  16.294  10.061 -0.0470 -0.1323  0.1079
  300loPI   C3B 4799  14.935  16.228   9.747 -0.1147 -0.1757 -0.1062
  300loPI   C4B 4800  14.937  16.316   9.264  0.1132  0.3421 -0.2073
  301loPI    C1 4801  10.939   4.304  10.971 -0.0716  0.0206 -0.0198
  301loPI    C2 4802  10.963   3.989  11.217  0.0763  0.0957  0.0641
  301loPI    C3 4803  10.798   4.331  11.344  0.0920  0.1136  0.0367
  301loPI   PO4 4804  10.849   4.219  10.753  0.2032  0.1214 -0.1027
  301loPI   GL1 4805  10.759   3.966  10.389 -0.3424 -0.0277  0.0663
  301loPI   GL2 4806  10.444   3.988  10.519  0.0840 -0.2191  0.1108
  301loPI   C1A 4807  10.830   3.924   9.992 -0.2187 -0.2933  0.1259
  301loPI   C2A 4808  10.845   3.750   9.545  0.0910 -0.1277  0.0128
  301loPI   C3A 4809  10.880   3.760   9.118  0.0418 -0.1277 -0.2280
  301loPI   C4A 4810  10.928   3.746   8.723  0.3570 -0.2241  0.1929
  301loPI   C5A 4811  10.830   3.483   8.369  0.3959 -0.1552 -0.2857
  301loPI   C6A 4812  10.801   3.538   7.853 -0.1967 -0.3267  0.2851
  301loPI   C1B 4813  10.380   3.795  10.123  0.0706  0.3673 -0.0168
  301loPI   C2B 4814  10.276   3.659   9.779  0.1331 -0.2015  0.0261
  301loPI   C3B 4815  10.331   3.562   9.275 -0.2246 -0.1560  0.0296
  301loPI   C4B 4816  10.399   3.684   8.730 -0.1556  0.0241  0.2872
  302loPI    C1 4817   6.903   9.371  10.317 -0.0886 -0.1279  0.0937
  302loPI    C2 4818   6.871   8.980  10.239 -0.1304 -0.1166  0.0541
  302loPI    C3 4819   7.152   9.111  10.492 -0.0933 -0.1686  0.0401
  302loPI   PO4 4820   6.924   9.470  10.009  0.4675  0.0495 -0.2165
  302loPI   GL1 4821   6.501   9.517   9.770  0.0120 -0.1639  0.0414
  302loPI   GL2 4822   6.557   9.801   9.826  0.2479  0.3429  0.1290
  302loPI   C1A 4823   6.195   9.624   9.377 -0.0882 -0.2380  0.2927
  302loPI   C2A 4824   6.153   9.590   8.995  0.2503  0.0731 -0.1148
  302loPI   C3A 4825   6.027   9.613   8.683 -0.3968 -0.0518 -0.0589
  302loPI   C4A 4826   5.952   9.641   8.296  0.0264 -0.3426 -0.0497
  302loPI   C5A 4827   5.843   9.776   7.839 -0.1290 -0.0989 -0.2417
  302loPI   C6A 4828   5.454   9.797   7.604  0.0398  0.3173 -0.2475
  302loPI   C1B 4829   6.643   9.834   9.389 -0.0054 -0.0337 -0.1955
  302loPI   C2B 4830   6.539   9.873   8.915 -0.2506 -0.0143  0.0669
  302loPI   C3B 4831   6.468   9.855   8.444  0.3711 -0.0824 -0.0209
  302loPI   C4B 4832   6.372   9.887   7.997 -0.1182  0.3462 -0.1970
  303loPI    C1 4833   4.742  10.543  10.314  0.0642 -0.1441  0.1252
  303loPI    C2 4834   4.807  10.736  10.658 -0.2316  0.0943  0.0512
  303loPI    C3 4835   4.733  10.343  10.661 -0.0830  0.0661  0.2445
  303loPI   PO4 4836   4.582  10.673  10.189 -0.1855 -0.0470 -0.1144
  303loPI   GL1 4837   4.735  10.936   9.944 -0.3816 -0.1255  0.0956
  303loPI   GL2 4838   5.029  11.036   9.756 -0.0631 -0.1994 -0.0216
  303loPI   C1A 4839   4.563  11.221   9.601 -0.0147 -0.2890 -0.0866
  303loPI   C2A 4840   4.598  11.277   9.068 -0.2708 -0.0472 -0.1101
  303loPI   C3A 4841   4.623  11.276   8.707 -0.0321 -0.0314  0.1176
  303loPI   C4A 4842   4.395  11.246   8.242 -0.0484  0.0735 -0.2555
  303loPI   C5A 4843   4.551  11.083   7.849  0.1762  0.2984 -0.1881
  303loPI   C6A 4844   5.011  10.983   7.723 -0.0259  0.0775  0.1707
  303loPI   C1B 4845   4.970  11.064   9.365 -0.3023  0.1480  0.0377
  303loPI   C2B 4846   5.152  11.184   9.023  0.1159 -0.1872 -0.1667
  303loPI   C3B 4847   5.113  11.385   8.618 -0.5278 -0.0122 -0.0197
  303loPI   C4B 4848   4.950  11.264   8.245 -0.3075  0.2245  0.2428
  304loPI    C1 4849   2.536   8.950  10.062 -0.2583 -0.0996  0.1458
  304loPI    C2 4850   2.777   9.209   9.875 -0.1461 -0.2522  0.0773
  304loPI    C3 4851   2.731   9.230  10.271 -0.0083 -0.2305  0.0929
  304loPI   PO4 4852   2.587   8.772   9.948 -0.1555 -0.0723 -0.1173
  304loPI   GL1 4853   2.548   8.884   9.546  0.1282  0.1004  0.2590
  304loPI   GL2 4854   2.230   9.054   9.597  0.2500 -0.1075 -0.3026
  304loPI   C1A 4855   2.454   8.724   9.242  0.2107  0.1228 -0.0952
  304loPI   C2A 4856   2.460   8.813   8.836 -0.0539 -0.2792  0.0280
  304loPI   C3A 4857   2.471   8.861   8.455  0.1701 -0.1260  0.0776
  304loPI   C4A 4858   2.537   8.653   8.045 -0.1996 -0.1523  0.3101
  304loPI   C5A 4859   2.524   8.677   7.606 -0.0100 -0.0419 -0.0923
  304loPI   C6A 4860   2.316   8.902   7.249  0.0360 -0.3581 -0.0576
  304loPI   C1B 4861   2.220   9.177   9.114 -0.1640 -0.3138 -0.3426
  304loPI   C2B 4862   2.140   9.154   8.661 -0.1401  0.1594 -0.1617
  304loPI   C3B 4863   2.051   9.215   8.329  0.0814  0.1010  0.3570
  304loPI   C4B 4864   1.828   9.229   7.954 -0.2629 -0.1608 -0.1942
  305loPI    C1 4865  16.299   7.200  10.302 -0.1261 -0.0235 -0.0840
  305loPI    C2 4866  16.174   7.516  10.513  0.3016  0.0963 -0.0022
  305loPI    C3 4867  16.235   7.166  10.696 -0.2109 -0.0521 -0.0998
  305loPI   PO4 4868  16.515   7.268  10.115  0.0580  0.1332  0.3480
  305loPI   GL1 4869  16.587   7.471   9.736 -0.0929 -0.1388  0.2373
  305loPI   GL2 4870  16.303   7.358   9.637  0.1283 -0.0070 -0.3197
  305loPI   C1A 4871  16.795   7.446   9.320 -0.1430 -0.0507  0.4609
  305loPI   C2A 4872  16.888   7.396   8.845 -0.1915  0.0184 -0.2160
  305loPI   C3A 4873  16.808   7.354   8.441 -0.0079 -0.1983  0.0005
  305loPI   C4A 4874  16.803   7.431   8.055 -0.1785 -0.1245 -0.1155
  305loPI   C5A 4875  16.824   7.734   7.629  0.1247  0.1961  0.1368
  305loPI   C6A 4876  16.511   7.864   7.387  0.0055 -0.4441  0.0794
  305loPI   C1B 4877  16.305   7.327   9.143 -0.4116 -0.2365 -0.3794
  305loPI   C2B 4878  16.306   7.332   8.681  0.0645  0.2746 -0.1171
  305loPI   C3B 4879  16.294   7.346   8.176 -0.0286 -0.0486 -0.1130
  305loPI   C4B 4880  16.284   7.466   7.790 -0.1881 -0.1171 -0.2786
  306loPI    C1 4881   1.856  11.507  10.628  0.1241  0.1172 -0.3365
  306loPI    C2 4882   1.880  11.211  10.359  0.0547 -0.1128 -0.0940
  306loPI    C3 4883   1.929  11.132  10.748 -0.1349  0.1666 -0.0104
  306loPI   PO4 4884   1.628  11.668  10.509 -0.2987 -0.2002  0.3526
  306loPI   GL1 4885   1.640  11.761   9.956 -0.1252  0.1809  0.0917
  306loPI   GL2 4886   1.639  11.971  10.118  0.1913  0.1411 -0.1931
  306loPI   C1A 4887   1.564  11.900   9.482 -0.1477 -0.3179  0.1484
  306loPI   C2A 4888   1.491  11.974   9.129  0.0693  0.0818  0.0588
  306loPI   C3A 4889   1.473  11.891   8.785  0.2868 -0.0386  0.1649
  306loPI   C4A 4890   1.468  11.831   8.346 -0.2321  0.1296 -0.1217
  306loPI   C5A 4891   1.502  11.507   8.026 -0.2694  0.2411 -0.1282
  306loPI   C6A 4892   1.234  11.163   7.904  0.0047 -0.3851  0.2313
  306loPI   C1B 4893   1.769  12.386   9.768  0.0537  0.1672 -0.1334
  306loPI   C2B 4894   1.669  12.500   9.318 -0.0590  0.0138 -0.2292
  306loPI   C3B 4895   1.603  12.390   8.853 -0.1902  0.3197  0.0647
  306loPI   C4B 4896   1.553  12.303   8.377  0.0657 -0.0134  0.0328
  307loPI    C1 4897   5.655   2.894  10.891  0.0110  0.0584  0.0655
  307loPI    C2 4898   5.464   3.245  10.883 -0.3036 -0.1038  0.2517
  307loPI    C3 4899   5.598   3.098  11.230  0.4498  0.1525  0.0881
  307loPI   PO4 4900   5.507   2.779  10.721  0.0580 -0.1378 -0.0254
  307loPI   GL1 4901   5.605   2.761  10.249 -0.1034 -0.0145  0.1264
  307loPI   GL2 4902   5.467   2.997  10.186  0.2437 -0.0768 -0.1283
  307loPI   C1A 4903   5.709   2.620   9.856 -0.3565 -0.0776  0.1386
  307loPI   C2A 4904   5.785   2.564   9.406 -0.1950 -0.0561 -0.0837
  307loPI   C3A 4905   5.757   2.534   9.004  0.0664  0.1870  0.2654
  307loPI   C4A 4906   5.758   2.481   8.615  0.0285  0.1212  0.1186
  307loPI   C5A 4907   5.558   2.431   8.227 -0.1960  0.0279 -0.0664
  307loPI   C6A 4908   5.643   2.460   7.818  0.0688 -0.1734  0.1917
  307loPI   C1B 4909   5.342   3.019   9.776  0.0154 -0.1920  0.1230
  307loPI   C2B 4910   5.341   2.907   9.304 -0.2279 -0.0334 -0.0347
  307loPI   C3B 4911   5.414   2.908   8.884  0.2118 -0.0910  0.0042
  307loPI   C4B 4912   5.426   2.887   8.428  0.3580  0.1292 -0.0898
  308loPI    C1 4913   7.006   6.183  10.492 -0.2582 -0.3385 -0.1071
  308loPI    C2 4914   7.200   6.218  10.840  0.0993 -0.0964 -0.3238
  308loPI    C3 4915   6.822   6.345  10.807  0.1423  0.1011 -0.0877
  308loPI   PO4 4916   7.066   5.888  10.315 -0.0027 -0.2903 -0.2993
  308loPI   GL1 4917   6.950   5.777   9.913  0.1329 -0.2000  0.1316
  308loPI   GL2 4918   6.644   5.781   9.692  0.2640 -0.2254  0.1119
  308loPI   C1A 4919   7.100   5.774   9.477  0.0630 -0.0128  0.1419
  308loPI   C2A 4920   7.066   5.647   9.058  0.1457 -0.0206 -0.0875
  308loPI   C3A 4921   7.101   5.676   8.593 -0.1013 -0.1757 -0.0999
  308loPI   C4A 4922   7.558   5.627   8.365  0.0170  0.0666 -0.2759
  308loPI   C5A 4923   7.780   5.401   8.038  0.0794 -0.2157  0.0011
  308loPI   C6A 4924   7.755   5.019   7.865 -0.0356  0.3133  0.0997
  308loPI   C1B 4925   6.637   5.588   9.331 -0.2874  0.1197  0.3214
  308loPI   C2B 4926   6.599   5.467   8.962 -0.3393 -0.0230  0.1116
  308loPI   C3B 4927   6.584   5.580   8.517  0.1120 -0.2202 -0.0056
  308loPI   C4B 4928   6.497   5.640   8.061 -0.1807  0.1872  0.0950
  309loPI    C1 4929   2.838   3.829  10.823  0.2223 -0.0987  0.4266
  309loPI    C2 4930   2.821   4.228  10.850 -0.1332 -0.0859  0.1017
  309loPI    C3 4931   2.614   4.001  11.106 -0.2480 -0.0528  0.0383
  309loPI   PO4 4932   2.796   3.749  10.585  0.3328  0.1911  0.0827
  309loPI   GL1 4933   2.809   3.733  10.140 -0.2282  0.2233 -0.0281
  309loPI   GL2 4934   3.093   3.883  10.192  0.2969 -0.0645 -0.2960
  309loPI   C1A 4935   2.750   3.715   9.720  0.0825  0.1630  0.2599
  309loPI   C2A 4936   2.753   3.655   9.262  0.1957  0.0877  0.2235
  309loPI   C3A 4937   2.704   3.597   8.905 -0.3858 -0.0224 -0.0996
  309loPI   C4A 4938   2.761   3.637   8.476 -0.2356 -0.1244  0.3095
  309loPI   C5A 4939   2.995   3.484   8.145 -0.2504 -0.0353  0.1387
  309loPI   C6A 4940   3.235   3.345   7.760  0.2181 -0.2322  0.1157
  309loPI   C1B 4941   3.284   3.854   9.814 -0.2245 -0.2725  0.2393
  309loPI   C2B 4942   3.237   3.827   9.348  0.1704 -0.0071 -0.1659
  309loPI   C3B 4943   3.158   3.743   8.922  0.3838  0.1001 -0.0189
  309loPI   C4B 4944   3.310   3.684   8.521 -0.0674  0.1324  0.1440
  310loPI    C1 4945  15.123   1.695  11.010  0.1610 -0.1716 -0.0395
  310loPI    C2 4946  15.342   1.937  11.241 -0.0085 -0.1461  0.0969
  310loPI    C3 4947  15.480   1.575  11.143  0.3365  0.0776 -0.2744
  310loPI   PO4 4948  15.081   1.756  10.763  0.0417  0.0225  0.1964
  310loPI   GL1 4949  14.955   2.047  10.549  0.1321 -0.2264  0.1908
  310loPI   GL2 4950  15.280   2.207  10.475  0.1761  0.0466 -0.0091
  310loPI   C1A 4951  15.071   2.046  10.036 -0.0160  0.1186  0.1023
  310loPI   C2A 4952  15.049   2.008   9.659 -0.3469 -0.4961 -0.0698
  310loPI   C3A 4953  15.054   1.954   9.220 -0.1543 -0.0445  0.4293
  310loPI   C4A 4954  15.127   1.805   8.804  0.0658 -0.2736  0.0252
  310loPI   C5A 4955  15.110   1.777   8.419  0.0218  0.0712  0.0780
  310loPI   C6A 4956  15.384   1.821   8.079 -0.0596  0.1358  0.0794
  310loPI   C1B 4957  15.226   2.499  10.150 -0.2367 -0.2347  0.0283
  310loPI   C2B 4958  15.203   2.502   9.727  0.1326  0.0858 -0.2205
  310loPI   C3B 4959  15.235   2.429   9.254  0.1134 -0.2684 -0.4097
  310loPI   C4B 4960  15.246   2.374   8.895 -0.0439 -0.1305  0.1411
  311loPI    C1 4961   1.647   5.268  10.747 -0.0550 -0.0688 -0.0071
  311loPI    C2 4962   1.377   5.446  10.983 -0.1474 -0.0792 -0.1045
  311loPI    C3 4963   1.767   5.510  11.042 -0.1674 -0.1351  0.0937
  311loPI   PO4 4964   1.466   5.079  10.643  0.0690  0.2838 -0.2000
  311loPI   GL1 4965   1.584   4.610  10.419  0.2448  0.3286  0.1617
  311loPI   GL2 4966   1.743   4.887  10.253  0.1484  0.0077  0.1247
  311loPI   C1A 4967   1.512   4.359  10.076  0.0324 -0.0775 -0.2203
  311loPI   C2A 4968   1.570   4.400   9.639  0.4035  0.1219  0.3044
  311loPI   C3A 4969   1.577   4.349   9.190  0.1766  0.0555  0.1053
  311loPI   C4A 4970   1.441   4.418   8.714 -0.1928  0.1058  0.2138
  311loPI   C5A 4971   1.554   4.400   8.326 -0.1430 -0.2590  0.0472
  311loPI   C6A 4972   1.328   4.308   7.957 -0.3880 -0.2552 -0.1811
  311loPI   C1B 4973   1.716   4.844   9.826  0.3287  0.1273 -0.0521
  311loPI   C2B 4974   1.698   4.824   9.356 -0.1211  0.1541 -0.0699
  311loPI   C3B 4975   1.647   4.817   8.946 -0.0970 -0.4540  0.4390
  311loPI   C4B 4976   1.633   4.937   8.491  0.0928  0.1251  0.1176
  312loPI    C1 4977   4.065  13.425  10.990  0.2281  0.1663  0.4002
  312loPI    C2 4978   3.700  13.300  11.097  0.1533 -0.0231 -0.0541
  312loPI    C3 4979   3.894  13.567  11.323 -0.1761 -0.0785  0.3044
  312loPI   PO4 4980   4.090  13.644  10.808  0.2684 -0.1350  0.0812
  312loPI   GL1 4981   4.067  13.559  10.358  0.0581 -0.1611 -0.1495
  312loPI   GL2 4982   3.956  13.888  10.386 -0.3762  0.1685  0.0586
  312loPI   C1A 4983   3.818  13.380   9.985 -0.2035  0.0484 -0.0144
  312loPI   C2A 4984   3.848  13.401   9.535 -0.3048 -0.0742 -0.1155
  312loPI   C3A 4985   3.784  13.456   9.219  0.2336 -0.1071 -0.2340
  312loPI   C4A 4986   3.836  13.392   8.812 -0.0664  0.2867  0.0121
  312loPI   C5A 4987   3.757  13.362   8.373 -0.1308 -0.0789 -0.0075
  312loPI   C6A 4988   3.800  13.063   8.000 -0.0581 -0.2451  0.0446
  312loPI   C1B 4989   4.000  13.839   9.954  0.2635 -0.2724 -0.2000
  312loPI   C2B 4990   4.058  13.893   9.588  0.4281  0.0830 -0.0851
  312loPI   C3B 4991   4.013  13.840   9.097  0.1784 -0.1320  0.0103
  312loPI   C4B 4992   3.927  13.896   8.708 -0.2729  0.0260 -0.2637
  313loPI    C1 4993   7.018  14.396  10.857 -0.2942  0.2110  0.0607
  313loPI    C2 4994   7.143  14.590  11.184  0.0168  0.2687 -0.0894
  313loPI    C3 4995   6.791  14.400  11.187  0.1128  0.0864  0.3500
  313loPI   PO4 4996   7.093  14.574  10.588  0.1072  0.2236  0.3624
  313loPI   GL1 4997   7.098  14.511  10.182  0.0249  0.0376  0.0237
  313loPI   GL2 4998   7.236  14.341  10.006 -0.0414  0.0365  0.0133
  313loPI   C1A 4999   6.851  14.763   9.908 -0.3848 -0.1140  0.2195
  313loPI   C2A 5000   6.780  14.882   9.470 -0.1623  0.0401  0.3351
  313loPI   C3A 5001   6.734  15.032   9.041 -0.0361 -0.0152  0.0147
  313loPI   C4A 5002   6.700  15.072   8.523 -0.4275  0.0765 -0.0304
  313loPI   C5A 5003   6.445  15.073   8.195 -0.0060 -0.0811 -0.3088
  313loPI   C6A 5004   6.338  14.916   7.717 -0.0746 -0.0024 -0.2495
  313loPI   C1B 5005   7.127  14.465   9.594  0.0577  0.1241  0.4568
  313loPI   C2B 5006   7.191  14.619   9.164 -0.0868  0.0983 -0.0015
  313loPI   C3B 5007   7.099  14.719   8.735  0.0885  0.3315 -0.1345
  313loPI   C4B 5008   7.039  14.713   8.348 -0.3417 -0.2005  0.2264
  314loPI    C1 5009   5.684   1.736  11.121  0.0106  0.2567  0.0618
  314loPI    C2 5010   5.384   1.992  11.187 -0.1947  0.0499 -0.0534
  314loPI    C3 5011   5.367   1.622  11.337  0.1332  0.1219  0.1729
  314loPI   PO4 5012   5.689   1.729  10.849  0.2852 -0.2569 -0.0995
  314loPI   GL1 5013   5.699   1.672  10.349  0.0769 -0.0013  0.2076
  314loPI   GL2 5014   5.998   1.475  10.466 -0.2640 -0.3221 -0.0848
  314loPI   C1A 5015   5.950   1.706   9.821  0.0474  0.1822  0.1595
  314loPI   C2A 5016   6.150   1.611   9.433 -0.3467 -0.0688 -0.2097
  314loPI   C3A 5017   5.933   1.653   9.114 -0.1969 -0.1681 -0.1165
  314loPI   C4A 5018   6.029   1.494   8.662  0.2144  0.0046  0.3147
  314loPI   C5A 5019   5.817   1.145   8.415 -0.0817 -0.2777 -0.1772
  314loPI   C6A 5020   5.492   0.866   8.314 -0.2260 -0.0514  0.0559
  314loPI   C1B 5021   6.278   1.266  10.245  0.1536  0.0479  0.0338
  314loPI   C2B 5022   6.346   1.337   9.844  0.0959  0.4445 -0.1020
  314loPI   C3B 5023   6.379   1.189   9.464  0.1292  0.0125  0.1669
  314loPI   C4B 5024   6.385   1.259   9.021 -0.1418 -0.2937 -0.1949
  315loPI    C1 5025   8.248   4.308  10.651  0.4573 -0.1084  0.0752
  315loPI    C2 5026   7.905   4.426  10.820  0.2061 -0.1761 -0.3721
  315loPI    C3 5027   8.251   4.475  11.015 -0.0432 -0.0149  0.0436
  315loPI   PO4 5028   8.142   4.350  10.326 -0.0933  0.1907  0.2953
  315loPI   GL1 5029   7.948   4.020  10.155 -0.0481 -0.0437  0.1693
  315loPI   GL2 5030   7.713   4.241  10.073 -0.1100 -0.2626 -0.2530
  315loPI   C1A 5031   8.087   4.047   9.703  0.0817 -0.2021 -0.1945
  315loPI   C2A 5032   8.156   4.017   9.237 -0.1158 -0.1106  0.0925
  315loPI   C3A 5033   7.975   3.984   8.783 -0.2219 -0.0158 -0.1064
  315loPI   C4A 5034   7.915   3.810   8.358  0.4293  0.0416 -0.4118
  315loPI   C5A 5035   7.616   3.777   8.046 -0.1951 -0.1422 -0.1363
  315loPI   C6A 5036   7.327   3.962   7.860  0.1542 -0.0436  0.0262
  315loPI   C1B 5037   7.612   4.043   9.803  0.2641 -0.0627 -0.1401
  315loPI   C2B 5038   7.620   3.990   9.350 -0.1774  0.0393  0.0406
  315loPI   C3B 5039   7.483   3.883   8.965 -0.3424 -0.1280 -0.0579
  315loPI   C4B 5040   7.473   3.778   8.611 -0.1586 -0.1440 -0.1506
  316loPI    C1 5041  17.265  15.500  11.057  0.0083  0.1235 -0.0879
  316loPI    C2 5042  16.975  15.753  11.163 -0.1002  0.0269 -0.1515
  316loPI    C3 5043  17.195  15.572  11.444  0.0148  0.2332 -0.1071
  316loPI   PO4 5044  17.285  15.396  10.858 -0.1839  0.0796 -0.0574
  316loPI   GL1 5045  17.078  15.253  10.580  0.0076  0.1055  0.3816
  316loPI   GL2 5046  16.847  15.017  10.482  0.0836  0.0120 -0.0813
  316loPI   C1A 5047  17.067  15.389  10.119 -0.2191  0.2186  0.0776
  316loPI   C2A 5048  17.000  15.393   9.742 -0.1876  0.0795  0.1230
  316loPI   C3A 5049  17.182  15.435   9.394  0.1338 -0.0112  0.0230
  316loPI   C4A 5050  17.124  15.403   9.005  0.5101  0.1248  0.0546
  316loPI   C5A 5051  17.380  15.183   8.670 -0.1064 -0.1014  0.0511
  316loPI   C6A 5052  17.662  15.193   8.295  0.0343 -0.2013 -0.0818
  316loPI   C1B 5053  16.787  14.953  10.035  0.3514 -0.2042 -0.3243
  316loPI   C2B 5054  16.870  14.871   9.604  0.1486 -0.3275 -0.2081
  316loPI   C3B 5055  16.878  14.993   9.266 -0.1902  0.1726 -0.1616
  316loPI   C4B 5056  16.795  15.055   8.824  0.2462  0.1694 -0.1197
  317loPI    C1 5057   2.573  16.909  11.115 -0.0126 -0.1512 -0.0603
  317loPI    C2 5058   2.247  16.927  11.346  0.0829  0.0679  0.0600
  317loPI    C3 5059   2.563  17.159  11.427  0.2074 -0.0252 -0.1521
  317loPI   PO4 5060   2.515  16.862  10.832  0.0647  0.4546 -0.0736
  317loPI   GL1 5061   2.473  17.111  10.429  0.4481 -0.0942 -0.3235
  317loPI   GL2 5062   2.523  16.712  10.306  0.1573 -0.0181 -0.0664
  317loPI   C1A 5063   2.276  17.104  10.008 -0.1053  0.0971  0.0453
  317loPI   C2A 5064   2.151  17.125   9.594 -0.0347 -0.1220  0.2368
  317loPI   C3A 5065   2.242  17.143   9.144 -0.1361 -0.1156 -0.2207
  317loPI   C4A 5066   2.221  17.351   8.720 -0.2603  0.4786  0.2435
  317loPI   C5A 5067   2.327  17.478   8.280  0.0778 -0.0497  0.3032
  317loPI   C6A 5068   2.282  17.808   8.043  0.2554  0.1420  0.5289
  317loPI   C1B 5069   2.472  16.662   9.894 -0.3009 -0.2194 -0.0624
  317loPI   C2B 5070   2.520  16.821   9.523 -0.0819  0.0051  0.1287
  317loPI   C3B 5071   2.645  16.681   9.054  0.1495  0.0649  0.0182
  317loPI   C4B 5072   2.509  16.848   8.668 -0.2056 -0.3266  0.1150
  318loPI    C1 5073   2.479  11.880  10.538  0.0546 -0.0501 -0.1540
  318loPI    C2 5074   2.510  12.178  10.802 -0.0591 -0.1513 -0.0251
  318loPI    C3 5075   2.655  11.816  10.891 -0.0673 -0.1771 -0.1153
  318loPI   PO4 5076   2.528  11.944  10.344 -0.0136  0.1568  0.1242
  318loPI   GL1 5077   2.513  11.923   9.947 -0.0269  0.0600 -0.0819
  318loPI   GL2 5078   2.464  11.649   9.956 -0.1341  0.3168 -0.4029
  318loPI   C1A 5079   2.565  12.126   9.524  0.1307  0.1379  0.2794
  318loPI   C2A 5080   2.485  12.206   9.086  0.3372 -0.0530  0.1332
  318loPI   C3A 5081   2.439  12.076   8.661 -0.2734  0.1952 -0.4687
  318loPI   C4A 5082   2.558  12.150   8.281  0.1245  0.1027  0.0441
  318loPI   C5A 5083   3.004  12.323   8.134  0.3441  0.1624  0.0087
  318loPI   C6A 5084   3.482  12.306   8.170  0.0163 -0.0457 -0.2383
  318loPI   C1B 5085   2.387  11.553   9.570 -0.2242  0.0532  0.0419
  318loPI   C2B 5086   2.358  11.728   9.153  0.0146 -0.0446 -0.0450
  318loPI   C3B 5087   2.307  11.619   8.782 -0.1628  0.2871 -0.3296
  318loPI   C4B 5088   2.322  11.598   8.357 -0.4936 -0.2834 -0.1310
  319loPI    C1 5089   7.626   1.698  11.284  0.0918 -0.0073 -0.2643
  319loPI    C2 5090   7.621   1.961  11.585  0.3283 -0.0460 -0.2249
  319loPI    C3 5091   7.579   1.570  11.660  0.1022 -0.0317 -0.2713
  319loPI   PO4 5092   7.492   1.775  11.076 -0.0004  0.0077  0.1689
  319loPI   GL1 5093   7.571   1.967  10.654  0.1945 -0.2718  0.1079
  319loPI   GL2 5094   7.772   1.747  10.553  0.0590  0.1485  0.1719
  319loPI   C1A 5095   7.470   2.042  10.302 -0.0055  0.1455 -0.1287
  319loPI   C2A 5096   7.524   2.017   9.864 -0.1741 -0.0906  0.4622
  319loPI   C3A 5097   7.542   1.970   9.537  0.0429  0.0187 -0.0481
  319loPI   C4A 5098   7.578   2.105   9.057 -0.0082 -0.2355 -0.2226
  319loPI   C5A 5099   7.680   2.111   8.569  0.0387  0.4659 -0.1720
  319loPI   C6A 5100   8.052   1.963   8.355 -0.0941 -0.1329  0.1377
  319loPI   C1B 5101   7.867   1.684  10.082 -0.1994  0.1101 -0.2729
  319loPI   C2B 5102   7.975   1.657   9.698 -0.1866 -0.3370  0.0485
  319loPI   C3B 5103   7.882   1.681   9.338  0.1561 -0.1333 -0.1422
  319loPI   C4B 5104   7.903   1.639   8.856  0.1073  0.0789 -0.0726
  320loPI    C1 5105   7.149  17.850  11.293  0.3340  0.1934  0.0759
  320loPI    C2 5106   6.915  18.138  11.442 -0.0654  0.0971 -0.3443
  320loPI    C3 5107   6.878  17.763  11.574  0.2023  0.1673 -0.0581
  320loPI   PO4 5108   7.075  17.829  10.969 -0.1081 -0.2070  0.1478
  320loPI   GL1 5109   6.904  17.694  10.542  0.1626 -0.0232 -0.0553
  320loPI   GL2 5110   6.555  17.581  10.481  0.2461 -0.3180  0.1314
  320loPI   C1A 5111   7.184  17.744  10.136  0.1270  0.1333  0.0706
  320loPI   C2A 5112   7.224  17.733   9.685  0.1010  0.1899 -0.2872
  320loPI   C3A 5113   7.170  17.787   9.223 -0.3264  0.0644 -0.0997
  320loPI   C4A 5114   7.246  17.951   8.820  0.2656  0.3417 -0.4888
  320loPI   C5A 5115   7.256  18.066   8.342  0.2581 -0.1825 -0.1129
  320loPI   C6A 5116   7.686  18.105   8.179 -0.1719 -0.1464  0.1641
  320loPI   C1B 5117   6.698  17.671  10.093  0.0154  0.1935 -0.1316
  320loPI   C2B 5118   6.719  17.660   9.509 -0.1015 -0.0670 -0.1627
  320loPI   C3B 5119   6.733  17.789   9.020 -0.0486  0.1264  0.1445
  320loPI   C4B 5120   6.647  17.731   8.537  0.1250  0.2547  0.3383
  321loPI    C1 5121   9.003   0.938  11.007  0.0143  0.2095  0.0737
  321loPI    C2 5122   9.100   0.557  11.081  0.2706  0.2881  0.1508
  321loPI    C3 5123   8.876   0.760  11.343 -0.1371  0.0977 -0.0409
  321loPI   PO4 5124   9.015   0.951  10.699  0.0473  0.0121 -0.1094
  321loPI   GL1 5125   8.876   0.796  10.345 -0.1544  0.2318 -0.1252
  321loPI   GL2 5126   8.816   0.526  10.285  0.1557  0.0668 -0.2209
  321loPI   C1A 5127   9.030   1.008   9.949  0.1551  0.3354 -0.0716
  321loPI   C2A 5128   9.094   1.099   9.533  0.2859 -0.0338  0.0153
  321loPI   C3A 5129   9.049   0.988   9.116 -0.1935  0.1431 -0.1989
  321loPI   C4A 5130   9.045   1.046   8.728 -0.0580 -0.0151  0.0621
  321loPI   C5A 5131   9.145   1.197   8.370 -0.0374  0.0094  0.0894
  321loPI   C6A 5132   9.263   1.292   8.022 -0.1063  0.2554  0.1147
  321loPI   C1B 5133   9.028   0.487   9.922 -0.0431 -0.0760  0.0061
  321loPI   C2B 5134   8.990   0.485   9.493 -0.3741  0.2361  0.2700
  321loPI   C3B 5135   8.854   0.513   9.069 -0.0538  0.0773 -0.2394
  321loPI   C4B 5136   8.871   0.528   8.650  0.2945  0.1981  0.1245
  322loPI    C1 5137  15.883   6.212  10.245  0.2710  0.3659  0.0990
  322loPI    C2 5138  16.012   6.280  10.617  0.0706  0.1891  0.2032
  322loPI    C3 5139  15.917   5.908  10.503  0.0262  0.2588  0.0091
  322loPI   PO4 5140  16.046   6.359  10.107 -0.0324 -0.1942 -0.1039
  322loPI   GL1 5141  16.003   6.291   9.714 -0.1953  0.0966  0.0783
  322loPI   GL2 5142  16.446   6.213   9.747  0.1636  0.2949  0.1258
  322loPI   C1A 5143  15.996   6.400   9.208 -0.1816  0.1667  0.0316
  322loPI   C2A 5144  16.014   6.329   8.814  0.3901 -0.2133  0.1221
  322loPI   C3A 5145  16.053   6.310   8.423  0.4192  0.1861  0.1114
  322loPI   C4A 5146  15.957   6.062   8.051 -0.2246 -0.1797 -0.0729
  322loPI   C5A 5147  15.964   5.730   7.734 -0.1733 -0.1451  0.0259
  322loPI   C6A 5148  15.888   5.291   7.886 -0.2860 -0.0780  0.1331
  322loPI   C1B 5149  16.289   5.956   9.405 -0.3440  0.0920  0.1394
  322loPI   C2B 5150  16.360   5.858   8.880 -0.2315  0.3259  0.0992
  322loPI   C3B 5151  16.362   5.878   8.464 -0.1176 -0.2066 -0.1266
  322loPI   C4B 5152  16.412   5.798   8.006 -0.2129 -0.2172  0.1234
  323loPI    C1 5153  10.037  16.970  11.071 -0.0241  0.1789  0.0514
  323loPI    C2 5154   9.701  17.098  11.246 -0.0270  0.0848  0.1153
  323loPI    C3 5155  10.035  17.058  11.461  0.0209  0.1616  0.0556
  323loPI   PO4 5156  10.005  17.027  10.798  0.1739  0.2191  0.2145
  323loPI   GL1 5157  10.163  16.840  10.497 -0.0669  0.0252  0.2860
  323loPI   GL2 5158  10.291  16.583  10.558 -0.1796 -0.2545 -0.0765
  323loPI   C1A 5159  10.000  17.021  10.121  0.2117  0.2801  0.3493
  323loPI   C2A 5160   9.858  17.074   9.731  0.0633  0.1041  0.3713
  323loPI   C3A 5161   9.755  17.068   9.207 -0.0358 -0.0095  0.1547
  323loPI   C4A 5162   9.718  17.103   8.804  0.2317  0.3005 -0.0731
  323loPI   C5A 5163   9.899  17.298   8.474  0.1405  0.0051  0.3424
  323loPI   C6A 5164  10.014  17.438   8.118  0.1840  0.2132  0.2928
  323loPI   C1B 5165  10.280  16.636  10.001  0.2530  0.0683  0.3805
  323loPI   C2B 5166  10.257  16.656   9.531  0.2387 -0.2260  0.0244
  323loPI   C3B 5167  10.130  16.704   9.134  0.1720 -0.1971 -0.1829
  323loPI   C4B 5168  10.113  16.710   8.683  0.1063  0.0605  0.1803
  324loPI    C1 5169   2.931  18.026  11.032  0.0889  0.0006  0.0578
  324loPI    C2 5170   3.095  17.892  11.371  0.1722  0.0550  0.0392
  324loPI    C3 5171   3.039  18.284  11.318  0.1156  0.0429  0.0096
  324loPI   PO4 5172   3.046  17.965  10.807 -0.0851  0.0389 -0.2678
  324loPI   GL1 5173   2.958  18.005  10.378 -0.1008 -0.0690 -0.0846
  324loPI   GL2 5174   2.823  17.721  10.268 -0.2109  0.0483  0.2373
  324loPI   C1A 5175   2.969  18.259  10.069  0.2189 -0.2780  0.1601
  324loPI   C2A 5176   3.036  18.292   9.687 -0.1047 -0.3868  0.0168
  324loPI   C3A 5177   3.108  18.209   9.296  0.3088 -0.0439 -0.0792
  324loPI   C4A 5178   3.056  18.188   8.861 -0.2421  0.0298 -0.0801
  324loPI   C5A 5179   3.025  18.175   8.431  0.0466  0.2801 -0.1017
  324loPI   C6A 5180   3.156  17.803   8.290  0.2001  0.3356  0.1291
  324loPI   C1B 5181   3.037  17.615   9.926 -0.0933  0.2626  0.0949
  324loPI   C2B 5182   2.926  17.721   9.578 -0.1835  0.1522  0.0615
  324loPI   C3B 5183   3.028  17.677   9.214 -0.0964  0.0549 -0.0640
  324loPI   C4B 5184   3.097  17.659   8.776 -0.1303 -0.1665 -0.2174
  325loPI    C1 5185  16.022   1.182  11.211  0.1482 -0.0256 -0.0969
  325loPI    C2 5186  15.929   1.531  11.382  0.1134 -0.1385  0.1181
  325loPI    C3 5187  16.044   1.222  11.608 -0.2827 -0.4005 -0.0271
  325loPI   PO4 5188  15.903   1.241  10.964 -0.1128  0.0560 -0.1146
  325loPI   GL1 5189  15.939   1.286  10.559  0.1254 -0.1175  0.0654
  325loPI   GL2 5190  16.024   1.574  10.558  0.2804 -0.0445  0.2140
  325loPI   C1A 5191  16.192   1.176  10.216 -0.3323  0.0172 -0.2544
  325loPI   C2A 5192  16.266   1.370   9.838  0.0073  0.4239 -0.0363
  325loPI   C3A 5193  16.217   1.355   9.438  0.0580  0.0243  0.0190
  325loPI   C4A 5194  16.406   1.276   9.055  0.2182  0.3668  0.0377
  325loPI   C5A 5195  16.485   1.221   8.580  0.1471  0.2063 -0.2179
  325loPI   C6A 5196  16.156   1.236   8.439  0.1989  0.0627 -0.4347
  325loPI   C1B 5197  15.880   1.663  10.083 -0.0372 -0.0167  0.0681
  325loPI   C2B 5198  15.868   1.732   9.666 -0.2490 -0.1394 -0.1830
  325loPI   C3B 5199  15.885   1.641   9.189  0.1885 -0.1480 -0.0369
  325loPI   C4B 5200  16.057   1.620   8.837  0.1237 -0.0178 -0.3600
  326loPI    C1 5201   4.743   8.557   9.919 -0.1452 -0.2032 -0.2482
  326loPI    C2 5202   5.067   8.731   9.761 -0.0375 -0.1962 -0.0233
  326loPI    C3 5203   5.041   8.679  10.157 -0.2228 -0.3794 -0.0579
  326loPI   PO4 5204   4.708   8.295   9.786 -0.1398 -0.0493  0.0460
  326loPI   GL1 5205   5.000   8.233   9.454 -0.0406  0.0667 -0.0429
  326loPI   GL2 5206   4.799   8.478   9.290 -0.2348 -0.2508  0.0628
  326loPI   C1A 5207   5.045   7.912   9.112 -0.0767 -0.1112 -0.3054
  326loPI   C2A 5208   4.975   7.940   8.601  0.1662  0.1998  0.0948
  326loPI   C3A 5209   4.914   8.087   8.193 -0.3519  0.0436 -0.1856
  326loPI   C4A 5210   5.065   8.042   7.841  0.4350  0.0288  0.2041
  326loPI   C5A 5211   5.324   8.324   7.552 -0.1567  0.0030  0.0989
  326loPI   C6A 5212   5.376   8.756   7.351 -0.0145 -0.1654  0.2930
  326loPI   C1B 5213   4.752   8.234   8.926  0.0238 -0.0714 -0.0129
  326loPI   C2B 5214   4.742   8.392   8.540  0.0181  0.0669  0.0648
  326loPI   C3B 5215   4.544   8.434   8.114 -0.0868 -0.1530  0.0501
  326loPI   C4B 5216   4.583   8.224   7.731 -0.1221  0.1931 -0.3315
  327loPI    C1 5217   2.055   1.759  11.170  0.3105  0.0914 -0.0910
  327loPI    C2 5218   2.019   2.070  11.419 -0.1879  0.0316 -0.0789
  327loPI    C3 5219   1.932   1.701  11.546  0.6970 -0.1727  0.0017
  327loPI   PO4 5220   2.151   1.808  10.980  0.0639 -0.0254  0.3402
  327loPI   GL1 5221   1.981   1.927  10.545  0.2090  0.2299  0.1550
  327loPI   GL2 5222   1.817   2.096  10.441  0.1379  0.2175 -0.2195
  327loPI   C1A 5223   2.172   1.764  10.169 -0.1793  0.2965  0.1406
  327loPI   C2A 5224   2.155   1.719   9.722 -0.1286  0.2639  0.2888
  327loPI   C3A 5225   2.199   1.656   9.301  0.2332  0.1793  0.1328
  327loPI   C4A 5226   2.215   1.673   8.963  0.2804 -0.1696 -0.1275
  327loPI   C5A 5227   2.156   1.579   8.640 -0.3184  0.1172 -0.0598
  327loPI   C6A 5228   2.111   1.826   8.244 -0.1538  0.2785  0.0435
  327loPI   C1B 5229   1.790   2.082  10.017 -0.0638  0.1505 -0.1035
  327loPI   C2B 5230   1.765   2.124   9.613 -0.4192 -0.0237 -0.1326
  327loPI   C3B 5231   1.760   2.100   9.297 -0.0413  0.1192  0.2916
  327loPI   C4B 5232   1.853   2.195   8.863  0.1166 -0.0283 -0.1405
  328loPI    C1 5233  12.780  17.951  10.947 -0.1385 -0.2275  0.1257
  328loPI    C2 5234  12.827  18.318  11.099  0.1523 -0.2392  0.0701
  328loPI    C3 5235  12.466  18.144  11.103  0.0138  0.0432  0.1031
  328loPI   PO4 5236  13.067  17.996  10.792  0.0597  0.1078  0.0128
  328loPI   GL1 5237  13.170  18.058  10.338 -0.0349 -0.1883  0.3716
  328loPI   GL2 5238  13.012  18.363  10.141  0.0545 -0.2792  0.4125
  328loPI   C1A 5239  13.249  17.862   9.873  0.2560  0.2937  0.2173
  328loPI   C2A 5240  13.349  17.832   9.404 -0.1101  0.2341 -0.1652
  328loPI   C3A 5241  13.556  17.909   8.983  0.2270 -0.2237 -0.0170
  328loPI   C4A 5242  13.572  17.716   8.534 -0.2870 -0.1030  0.2422
  328loPI   C5A 5243  13.954  17.634   8.392 -0.0319  0.1836  0.2862
  328loPI   C6A 5244  14.372  17.424   8.330  0.1864  0.2615 -0.0620
  328loPI   C1B 5245  13.009  18.264   9.710  0.0114  0.2189 -0.3092
  328loPI   C2B 5246  12.959  18.218   9.322  0.0555 -0.1724  0.2767
  328loPI   C3B 5247  13.157  18.274   8.869 -0.2670  0.0297 -0.0585
  328loPI   C4B 5248  13.189  18.181   8.406  0.4065 -0.1746  0.3096
  329loPI    C1 5249  11.226   9.267  10.177  0.0262 -0.1292  0.2907
  329loPI    C2 5250  11.539   9.270  10.426 -0.2491  0.1709  0.6442
  329loPI    C3 5251  11.290   9.583  10.414 -0.0926  0.2877 -0.2144
  329loPI   PO4 5252  11.256   9.008   9.960  0.4327  0.2221  0.1362
  329loPI   GL1 5253  11.452   8.882   9.549 -0.1783  0.3092 -0.0134
  329loPI   GL2 5254  11.458   8.568   9.407  0.0458 -0.1460  0.1738
  329loPI   C1A 5255  11.719   8.839   9.102  0.2077  0.1359 -0.2724
  329loPI   C2A 5256  11.840   8.803   8.771  0.1549  0.0962 -0.1131
  329loPI   C3A 5257  11.931   8.831   8.391 -0.1417  0.1758 -0.0388
  329loPI   C4A 5258  11.948   8.624   7.963 -0.1785 -0.0471 -0.2112
  329loPI   C5A 5259  12.024   8.676   7.586 -0.1077 -0.2806 -0.0511
  329loPI   C6A 5260  12.367   8.533   7.258 -0.0801 -0.0916 -0.3888
  329loPI   C1B 5261  11.544   8.371   9.101 -0.0042 -0.1373  0.0156
  329loPI   C2B 5262  11.720   8.324   8.742  0.0734 -0.4152  0.0216
  329loPI   C3B 5263  11.769   8.295   8.303  0.2041  0.0337  0.4564
  329loPI   C4B 5264  11.841   8.097   8.020  0.1592  0.3463 -0.0379
  330loPI    C1 5265  15.827   9.070  10.076 -0.1533  0.2582  0.0191
  330loPI    C2 5266  16.175   9.251  10.152  0.0646 -0.1780  0.0929
  330loPI    C3 5267  15.936   9.142  10.454 -0.1610  0.1582  0.0408
  330loPI   PO4 5268  15.679   9.240   9.946 -0.0389  0.2229 -0.0684
  330loPI   GL1 5269  15.282   9.353   9.687  0.0312  0.0334 -0.1648
  330loPI   GL2 5270  15.533   9.377   9.524  0.0865  0.2004 -0.0707
  330loPI   C1A 5271  15.036   9.472   9.339  0.0535 -0.1863 -0.0379
  330loPI   C2A 5272  15.032   9.465   8.884  0.0173 -0.3065  0.0352
  330loPI   C3A 5273  15.020   9.399   8.545  0.2102 -0.2176  0.1231
  330loPI   C4A 5274  15.118   9.368   8.085 -0.0436  0.0292 -0.0039
  330loPI   C5A 5275  14.806   9.358   7.707  0.2744  0.0939  0.3011
  330loPI   C6A 5276  14.359   9.341   7.448  0.0763 -0.0471  0.3381
  330loPI   C1B 5277  15.594   9.493   9.115  0.2183  0.1391  0.2069
  330loPI   C2B 5278  15.531   9.525   8.715 -0.1405  0.0567 -0.2717
  330loPI   C3B 5279  15.630   9.447   8.279  0.0041  0.1544 -0.3699
  330loPI   C4B 5280  15.509   9.273   7.799 -0.0041  0.2000  0.2294
  331loPI    C1 5281  16.622   1.867  11.122 -0.1793 -0.0392 -0.0399
  331loPI    C2 5282  16.283   2.012  11.276  0.0260  0.2382  0.1603
  331loPI    C3 5283  16.612   1.992  11.502  0.1299 -0.0869 -0.0140
  331loPI   PO4 5284  16.555   1.937  10.863 -0.0623 -0.3097 -0.1339
  331loPI   GL1 5285  16.339   1.951  10.447  0.2460 -0.2134 -0.0608
  331loPI   GL2 5286  15.988   2.069  10.383 -0.1019  0.1555  0.3005
  331loPI   C1A 5287  16.411   1.758  10.068 -0.0339 -0.3236 -0.0235
  331loPI   C2A 5288  16.372   1.857   9.593  0.0368  0.0749 -0.1891
  331loPI   C3A 5289  16.426   1.740   9.194 -0.0544  0.1985 -0.2119
  331loPI   C4A 5290  16.515   1.716   8.770 -0.1253 -0.2281  0.0903
  331loPI   C5A 5291  16.350   1.692   8.421  0.2243  0.1034  0.1794
  331loPI   C6A 5292  16.194   2.065   8.241 -0.1350  0.0123 -0.4570
  331loPI   C1B 5293  16.039   2.233   9.905  0.3057 -0.0490  0.0127
  331loPI   C2B 5294  16.004   2.244   9.532  0.1158 -0.0924  0.0914
  331loPI   C3B 5295  16.126   2.128   9.140  0.1255 -0.0871 -0.1827
  331loPI   C4B 5296  16.157   2.104   8.694 -0.2052 -0.2504  0.2341
  332loPI    C1 5297  14.144   7.329   9.983  0.2806 -0.0879 -0.1564
  332loPI    C2 5298  14.385   7.183  10.266  0.2535  0.1680  0.0027
  332loPI    C3 5299  14.034   7.344  10.367  0.2023  0.1774 -0.1866
  332loPI   PO4 5300  14.215   7.181   9.773 -0.0613  0.3177 -0.2935
  332loPI   GL1 5301  14.126   6.888   9.542  0.0569 -0.1249  0.1634
  332loPI   GL2 5302  14.243   6.935   9.265 -0.2319 -0.0897  0.0902
  332loPI   C1A 5303  13.755   6.877   9.261  0.0489 -0.0698 -0.1616
  332loPI   C2A 5304  13.644   6.672   8.945  0.2419  0.1334 -0.0738
  332loPI   C3A 5305  13.746   6.614   8.439 -0.0106 -0.2162 -0.0393
  332loPI   C4A 5306  13.945   6.655   8.071  0.0207 -0.1128  0.0880
  332loPI   C5A 5307  13.887   6.404   7.693 -0.1022 -0.3225 -0.2158
  332loPI   C6A 5308  13.756   6.267   7.298 -0.0622 -0.0384  0.0462
  332loPI   C1B 5309  14.251   6.875   8.799  0.2349 -0.0349  0.0123
  332loPI   C2B 5310  14.336   6.746   8.360 -0.1095  0.0831 -0.0155
  332loPI   C3B 5311  14.406   6.568   7.954 -0.1798 -0.0405  0.0986
  332loPI   C4B 5312  14.414   6.449   7.468 -0.2894  0.0488 -0.0595
  333loPI    C1 5313   9.086  11.644  10.297  0.0067  0.2282 -0.0003
  333loPI    C2 5314   8.874  11.351  10.468  0.1489  0.1245  0.0001
  333loPI    C3 5315   9.066  11.617  10.696 -0.0911  0.3011  0.0003
  333loPI   PO4 5316   9.044  11.707  10.008 -0.4625 -0.2249  0.1711
  333loPI   GL1 5317   9.272  11.705   9.617 -0.1823 -0.0814  0.2371
  333loPI   GL2 5318   9.603  11.754   9.620  0.1421  0.0729 -0.2682
  333loPI   C1A 5319   9.317  11.516   9.273  0.3575 -0.1608 -0.0663
  333loPI   C2A 5320   9.397  11.580   8.853  0.2617  0.1246  0.1576
  333loPI   C3A 5321   9.450  11.609   8.423  0.1007  0.1549 -0.3019
  333loPI   C4A 5322   9.407  11.918   8.104 -0.1428  0.3151  0.0804
  333loPI   C5A 5323   9.348  12.207   7.799  0.0584  0.1978 -0.0437
  333loPI   C6A 5324   9.412  12.682   7.850  0.2323 -0.1531  0.0696
  333loPI   C1B 5325   9.823  11.982   9.197 -0.3102 -0.0362 -0.0296
  333loPI   C2B 5326   9.900  11.925   8.728  0.0174  0.2354 -0.0991
  333loPI   C3B 5327   9.935  11.773   8.346 -0.4103  0.0952 -0.2620
  333loPI   C4B 5328   9.793  11.622   7.927 -0.1766  0.0089  0.1706
  334loPI    C1 5329   0.724   8.136  10.268  0.2354  0.2826  0.0625
  334loPI    C2 5330   0.833   7.830  10.502  0.0078  0.1445 -0.0085
  334loPI    C3 5331   0.509   8.046  10.593  0.0015  0.1814 -0.1170
  334loPI   PO4 5332   0.759   8.002  10.015 -0.1162 -0.2323 -0.0193
  334loPI   GL1 5333   0.629   7.761   9.680 -0.0869  0.1016  0.0076
  334loPI   GL2 5334   0.432   7.475   9.688 -0.2127  0.0769  0.1621
  334loPI   C1A 5335   0.810   7.962   9.261 -0.1224 -0.0694 -0.1375
  334loPI   C2A 5336   0.709   7.945   8.910  0.0265  0.0283 -0.1606
  334loPI   C3A 5337   0.765   7.873   8.461  0.2328  0.3492 -0.1742
  334loPI   C4A 5338   0.794   7.995   8.017 -0.1752 -0.1861  0.0225
  334loPI   C5A 5339   1.145   8.231   7.787 -0.1132 -0.1087 -0.0064
  334loPI   C6A 5340   1.399   8.138   7.353  0.1998 -0.1561 -0.2618
  334loPI   C1B 5341   0.552   7.506   9.288 -0.1323 -0.1083  0.1262
  334loPI   C2B 5342   0.524   7.493   8.865  0.1152 -0.1210  0.1437
  334loPI   C3B 5343   0.607   7.388   8.494 -0.4156 -0.0207 -0.1609
  334loPI   C4B 5344   0.640   7.435   8.086 -0.1680  0.1946  0.2061
  335loPI    C1 5345   7.830   2.941  11.406  0.1182  0.1013  0.1312
  335loPI    C2 5346   7.934   3.177  11.711 -0.0745 -0.0378  0.3075
  335loPI    C3 5347   7.559   3.042  11.682 -0.0002 -0.2119  0.1343
  335loPI   PO4 5348   7.912   3.078  11.168  0.2686  0.3613  0.0721
  335loPI   GL1 5349   8.015   2.789  10.758 -0.0899  0.2020 -0.1236
  335loPI   GL2 5350   7.893   3.121  10.658  0.2449 -0.1403 -0.2257
  335loPI   C1A 5351   8.183   2.760  10.359 -0.0645 -0.1035 -0.1335
  335loPI   C2A 5352   8.037   2.610   9.981 -0.0712 -0.0279  0.0925
  335loPI   C3A 5353   8.189   2.632   9.602 -0.2252 -0.1424 -0.1668
  335loPI   C4A 5354   8.230   2.698   9.166  0.2625 -0.0172  0.1928
  335loPI   C5A 5355   8.180   2.613   8.808 -0.1102  0.2486 -0.3155
  335loPI   C6A 5356   8.132   2.545   8.405  0.3326  0.0355 -0.1861
  335loPI   C1B 5357   7.730   3.062  10.270  0.1943  0.0799 -0.1287
  335loPI   C2B 5358   7.745   3.039   9.961  0.0155 -0.1065  0.2462
  335loPI   C3B 5359   7.803   2.963   9.507  0.1958 -0.0070 -0.3404
  335loPI   C4B 5360   7.822   3.028   9.068  0.1275 -0.1583  0.2243
  336loPI    C1 5361   2.065  10.005  10.075 -0.2053  0.1890  0.0129
  336loPI    C2 5362   1.840  10.276  10.265 -0.0993  0.2593  0.0387
  336loPI    C3 5363   2.214  10.204  10.389 -0.1561  0.0391  0.0856
  336loPI   PO4 5364   1.947   9.819  10.060 -0.1274  0.1453  0.0512
  336loPI   GL1 5365   1.489   9.953   9.927 -0.2299 -0.3052 -0.2141
  336loPI   GL2 5366   1.531  10.247   9.738 -0.0482  0.0983  0.1909
  336loPI   C1A 5367   1.593   9.808   9.511  0.0839 -0.0211 -0.2275
  336loPI   C2A 5368   1.360   9.930   9.158  0.0691 -0.1120  0.1762
  336loPI   C3A 5369   1.247   9.989   8.636  0.2751  0.0344  0.0746
  336loPI   C4A 5370   1.037   9.826   8.281  0.0063  0.0301  0.1868
  336loPI   C5A 5371   0.737   9.778   7.931  0.3377 -0.3855 -0.0053
  336loPI   C6A 5372   0.221   9.705   7.835  0.0350  0.1917  0.1885
  336loPI   C1B 5373   1.586  10.313   9.328 -0.2254 -0.0021  0.1827
  336loPI   C2B 5374   1.522  10.515   8.906 -0.0303  0.0034  0.0076
  336loPI   C3B 5375   1.425  10.479   8.452  0.0662  0.0506  0.2233
  336loPI   C4B 5376   1.529  10.239   8.037  0.0135  0.0846  0.0512
  337loPI    C1 5377  13.176   0.668  10.923  0.2253 -0.1009  0.0437
  337loPI    C2 5378  13.218   0.920  11.230  0.0393  0.0509 -0.0531
  337loPI    C3 5379  13.030   0.571  11.282  0.0741  0.0433  0.0227
  337loPI   PO4 5380  13.284   0.817  10.742  0.1958  0.1015 -0.0615
  337loPI   GL1 5381  13.373   0.547  10.364  0.2012 -0.1979  0.1043
  337loPI   GL2 5382  13.561   0.865  10.372 -0.2480  0.2389  0.1196
  337loPI   C1A 5383  13.544   0.471   9.969 -0.1959 -0.1244 -0.1044
  337loPI   C2A 5384  13.439   0.527   9.638 -0.2379 -0.1959 -0.3407
  337loPI   C3A 5385  13.221   0.576   9.249 -0.1123  0.0255  0.1185
  337loPI   C4A 5386  13.165   0.619   8.782 -0.2167 -0.1128 -0.0957
  337loPI   C5A 5387  13.128   0.530   8.336 -0.2124 -0.1921  0.1042
  337loPI   C6A 5388  12.800   0.374   8.014 -0.1463 -0.0094 -0.1756
  337loPI   C1B 5389  13.429   0.974  10.004 -0.0476 -0.1521  0.0506
  337loPI   C2B 5390  13.413   1.095   9.467 -0.1473  0.4295  0.0486
  337loPI   C3B 5391  13.386   1.047   9.057  0.0906  0.0829  0.2021
  337loPI   C4B 5392  13.373   0.988   8.554 -0.0256 -0.0839 -0.3146
  338loPI    C1 5393   1.881   3.897  10.929 -0.1813  0.0462 -0.2836
  338loPI    C2 5394   1.963   3.830  11.315 -0.1842 -0.2027 -0.3243
  338loPI    C3 5395   2.162   4.113  11.113 -0.3245  0.0690 -0.0887
  338loPI   PO4 5396   1.804   3.616  10.829 -0.1776 -0.1572 -0.3426
  338loPI   GL1 5397   1.732   3.221  10.566 -0.2757 -0.1769 -0.0715
  338loPI   GL2 5398   1.606   3.413  10.413  0.0475  0.0012 -0.1737
  338loPI   C1A 5399   2.031   3.222  10.240 -0.0749 -0.0202 -0.0254
  338loPI   C2A 5400   2.076   3.069   9.791  0.0792 -0.1001  0.2272
  338loPI   C3A 5401   2.041   3.043   9.289 -0.1402  0.1448 -0.1894
  338loPI   C4A 5402   2.067   3.144   8.873 -0.0739 -0.0904  0.0245
  338loPI   C5A 5403   1.989   3.062   8.404 -0.0056 -0.0307 -0.2226
  338loPI   C6A 5404   2.114   2.847   8.013  0.0551 -0.0517 -0.0824
  338loPI   C1B 5405   1.711   3.504  10.043 -0.1234  0.2256 -0.1346
  338loPI   C2B 5406   1.802   3.483   9.618 -0.0338 -0.1685  0.1838
  338loPI   C3B 5407   1.774   3.463   9.141  0.2899  0.2058 -0.1127
  338loPI   C4B 5408   1.750   3.431   8.647 -0.0051 -0.0501 -0.0631
  339loPI    C1 5409   6.959  10.373  10.504 -0.0139 -0.2179 -0.0493
  339loPI    C2 5410   7.329  10.474  10.392  0.0335 -0.1065  0.1996
  339loPI    C3 5411   7.262  10.119  10.563  0.0257 -0.1246  0.1591
  339loPI   PO4 5412   6.831  10.507  10.308 -0.2021  0.4613  0.1200
  339loPI   GL1 5413   6.652  10.406   9.886 -0.1039 -0.1400  0.0826
  339loPI   GL2 5414   6.804  10.288   9.594 -0.2973 -0.0100 -0.2381
  339loPI   C1A 5415   6.556  10.678   9.440 -0.0415  0.1028  0.2088
  339loPI   C2A 5416   6.436  10.634   8.973  0.1159  0.2182  0.0036
  339loPI   C3A 5417   6.316  10.658   8.543 -0.0343  0.3673  0.0856
  339loPI   C4A 5418   6.254  10.633   8.163 -0.5202  0.0564  0.2291
  339loPI   C5A 5419   6.246  10.778   7.748  0.0749 -0.0131 -0.1298
  339loPI   C6A 5420   6.032  10.574   7.440 -0.0721  0.1955  0.0210
  339loPI   C1B 5421   6.834  10.267   9.215 -0.0292 -0.2532 -0.0649
  339loPI   C2B 5422   6.757  10.282   8.755  0.1770  0.1524 -0.1006
  339loPI   C3B 5423   6.640  10.313   8.395 -0.3242 -0.0117 -0.1298
  339loPI   C4B 5424   6.618  10.414   7.972 -0.1396  0.1062  0.0911
  340loPI    C1 5425   1.357  12.715  10.709  0.2249 -0.0285 -0.1904
  340loPI    C2 5426   1.689  12.528  10.831  0.2871  0.2600  0.0985
  340loPI    C3 5427   1.404  12.622  11.096  0.0628  0.1934 -0.1155
  340loPI   PO4 5428   1.393  12.905  10.577  0.1080 -0.0574  0.2996
  340loPI   GL1 5429   1.303  13.016  10.229 -0.1648  0.1752  0.2539
  340loPI   GL2 5430   0.994  13.145  10.077  0.2595 -0.1685  0.1646
  340loPI   C1A 5431   1.491  13.222   9.910 -0.1271 -0.0628 -0.0703
  340loPI   C2A 5432   1.466  13.347   9.484 -0.0219 -0.1909 -0.1134
  340loPI   C3A 5433   1.497  13.310   9.062  0.2843 -0.3372 -0.2047
  340loPI   C4A 5434   1.456  13.249   8.564  0.0369 -0.4479  0.0338
  340loPI   C5A 5435   1.414  13.174   8.093  0.2922  0.3975 -0.1222
  340loPI   C6A 5436   1.728  13.143   7.851  0.0994 -0.0359  0.0782
  340loPI   C1B 5437   1.013  13.161   9.649 -0.0546  0.0629  0.3033
  340loPI   C2B 5438   1.001  13.194   9.229  0.0918  0.0791 -0.0688
  340loPI   C3B 5439   1.041  13.211   8.905  0.5367  0.1443  0.1016
  340loPI   C4B 5440   0.934  13.051   8.506  0.0030  0.0211  0.2283
  341loPI    C1 5441   2.870   6.443  10.709 -0.3414  0.1695 -0.2995
  341loPI    C2 5442   2.689   6.235  11.000  0.2362  0.0526 -0.0091
  341loPI    C3 5443   2.780   6.620  11.057 -0.1577  0.1890 -0.2612
  341loPI   PO4 5444   2.940   6.294  10.572  0.1587 -0.0606  0.2784
  341loPI   GL1 5445   2.773   6.450  10.141  0.0568 -0.1590  0.0632
  341loPI   GL2 5446   2.650   6.106  10.093 -0.0905 -0.0460  0.0420
  341loPI   C1A 5447   2.700   6.518   9.687 -0.0932 -0.1557  0.1670
  341loPI   C2A 5448   2.641   6.409   9.211 -0.0641 -0.0499  0.1311
  341loPI   C3A 5449   2.552   6.342   8.788  0.0395  0.2915 -0.0703
  341loPI   C4A 5450   2.722   6.465   8.370  0.1445  0.1173  0.0476
  341loPI   C5A 5451   3.069   6.472   8.040  0.0194  0.4275  0.0527
  341loPI   C6A 5452   3.363   6.686   7.992  0.1944 -0.0527  0.2453
  341loPI   C1B 5453   2.572   6.010   9.579 -0.0921 -0.5291 -0.1108
  341loPI   C2B 5454   2.598   5.957   9.028  0.0118 -0.3450 -0.0673
  341loPI   C3B 5455   2.584   5.909   8.607  0.0666  0.1997 -0.0138
  341loPI   C4B 5456   2.521   6.014   8.146 -0.1125  0.0189  0.2010
  342loPI    C1 5457   3.487  12.217  11.021  0.0426  0.0992  0.0368
  342loPI    C2 5458   3.831  12.070  10.878  0.0055 -0.0869  0.1351
  342loPI    C3 5459   3.697  11.954  11.237  0.0231  0.2636  0.2593
  342loPI   PO4 5460   3.426  12.337  10.823  0.0314 -0.0493 -0.1651
  342loPI   GL1 5461   3.288  12.593  10.462 -0.0161  0.0001  0.1958
  342loPI   GL2 5462   3.377  12.322  10.281  0.1205  0.0222 -0.1873
  342loPI   C1A 5463   3.118  12.671  10.032 -0.0010  0.2013 -0.0659
  342loPI   C2A 5464   3.268  12.738   9.618  0.0854  0.1356  0.1072
  342loPI   C3A 5465   3.214  12.816   9.190 -0.1636  0.2962 -0.0529
  342loPI   C4A 5466   3.167  12.788   8.802  0.3206 -0.0705  0.1350
  342loPI   C5A 5467   3.213  12.768   8.391 -0.1579 -0.1704 -0.3015
  342loPI   C6A 5468   3.395  12.814   8.017  0.1034  0.2944 -0.5263
  342loPI   C1B 5469   3.439  12.317   9.899 -0.0287  0.1797 -0.1542
  342loPI   C2B 5470   3.558  12.333   9.480  0.0541  0.3035  0.1358
  342loPI   C3B 5471   3.535  12.396   9.089  0.1369  0.0283 -0.0453
  342loPI   C4B 5472   3.537  12.362   8.645  0.0844 -0.1116 -0.0435
  343loPI    C1 5473   9.705  10.864  10.422  0.0907  0.1359  0.1059
  343loPI    C2 5474   9.587  10.864  10.804  0.2026  0.1340  0.1408
  343loPI    C3 5475   9.837  10.581  10.672 -0.0233 -0.0064  0.0073
  343loPI   PO4 5476   9.893  11.065  10.266  0.0590  0.3241 -0.1880
  343loPI   GL1 5477   9.766  11.094   9.784  0.3055  0.1885  0.0787
  343loPI   GL2 5478   9.723  11.328   9.501 -0.2065  0.2784 -0.0334
  343loPI   C1A 5479   9.430  10.888   9.437 -0.0581 -0.0795 -0.1787
  343loPI   C2A 5480   9.450  11.068   9.052  0.0235 -0.0245  0.0956
  343loPI   C3A 5481   9.466  11.065   8.581 -0.0396 -0.1045 -0.2455
  343loPI   C4A 5482   9.540  10.860   8.178  0.0805 -0.2174  0.0475
  343loPI   C5A 5483   9.277  10.678   8.009  0.1643  0.0318  0.2214
  343loPI   C6A 5484   9.089  10.449   7.697  0.1913  0.0281 -0.0179
  343loPI   C1B 5485   9.833  11.511   9.109  0.1932 -0.1476  0.2870
  343loPI   C2B 5486   9.833  11.427   8.698 -0.1301  0.0227  0.1001
  343loPI   C3B 5487   9.925  11.277   8.277 -0.3420 -0.1205 -0.2248
  343loPI   C4B 5488  10.024  11.145   7.947 -0.2907 -0.3234  0.2277
  344loPI    C1 5489   8.131   4.879  10.724 -0.0291 -0.1363  0.1417
  344loPI    C2 5490   7.849   5.127  10.861  0.0020  0.0424 -0.1109
  344loPI    C3 5491   8.235   5.228  10.890  0.0143  0.0288 -0.2236
  344loPI   PO4 5492   8.091   4.839  10.408  0.1614  0.3040  0.0103
  344loPI   GL1 5493   8.311   4.946  10.028 -0.1077  0.1818 -0.1916
  344loPI   GL2 5494   8.268   4.630   9.989 -0.4115 -0.0337 -0.3089
  344loPI   C1A 5495   8.391   5.076   9.686 -0.3737  0.1576 -0.3135
  344loPI   C2A 5496   8.485   4.972   9.247  0.0200 -0.1618 -0.2109
  344loPI   C3A 5497   8.489   5.065   8.801 -0.2059  0.0634 -0.0605
  344loPI   C4A 5498   8.400   4.948   8.452  0.0020  0.1590  0.1103
  344loPI   C5A 5499   8.398   4.844   8.106 -0.2027  0.0978 -0.2563
  344loPI   C6A 5500   8.277   5.157   7.843  0.0171 -0.0980 -0.2808
  344loPI   C1B 5501   8.305   4.628   9.503  0.0798  0.0508  0.1988
  344loPI   C2B 5502   8.189   4.462   9.026  0.1005  0.0005 -0.2885
  344loPI   C3B 5503   8.111   4.389   8.601 -0.2072  0.4762  0.0370
  344loPI   C4B 5504   8.182   4.238   8.197 -0.2740 -0.0007 -0.0927
  345loPI    C1 5505   6.212   4.151  10.894 -0.2482 -0.1746 -0.0708
  345loPI    C2 5506   6.081   3.789  11.004 -0.0398 -0.2467 -0.0547
  345loPI    C3 5507   6.245   4.034  11.275  0.0971 -0.2613 -0.1234
  345loPI   PO4 5508   6.275   4.101  10.651 -0.0600 -0.0664 -0.1178
  345loPI   GL1 5509   6.205   4.148  10.261 -0.1941  0.1555 -0.2311
  345loPI   GL2 5510   6.223   4.382   9.998  0.1841 -0.0250  0.0941
  345loPI   C1A 5511   6.333   3.935   9.901  0.0196  0.3596  0.2509
  345loPI   C2A 5512   6.434   3.699   9.506  0.2174 -0.0181 -0.0180
  345loPI   C3A 5513   6.504   3.665   9.118  0.2358 -0.3330  0.1450
  345loPI   C4A 5514   6.451   3.567   8.674 -0.0138  0.1070 -0.0826
  345loPI   C5A 5515   6.539   3.499   8.195 -0.0493  0.1260  0.1578
  345loPI   C6A 5516   6.474   3.590   7.680  0.0147 -0.0178  0.1281
  345loPI   C1B 5517   6.140   4.319   9.567  0.0612 -0.0219  0.1012
  345loPI   C2B 5518   6.227   4.077   9.248  0.2934 -0.2377 -0.1454
  345loPI   C3B 5519   6.191   3.965   8.840  0.1223 -0.2292  0.1655
  345loPI   C4B 5520   6.151   3.859   8.419  0.0073 -0.0182  0.0055
  346loPI    C1 5521  13.346   6.791  10.151 -0.0152  0.1502  0.1040
  346loPI    C2 5522  13.353   6.706  10.542  0.1441  0.0748  0.0856
  346loPI    C3 5523  13.586   6.997  10.396  0.1829  0.0146  0.0268
  346loPI   PO4 5524  13.027   6.802  10.151  0.1066  0.2929 -0.1836
  346loPI   GL1 5525  12.826   6.510   9.779 -0.0268  0.2535  0.2415
  346loPI   GL2 5526  12.557   6.386   9.851  0.2656  0.2101 -0.2281
  346loPI   C1A 5527  12.725   6.560   9.323 -0.3443 -0.1295  0.0604
  346loPI   C2A 5528  12.641   6.511   8.894 -0.3150  0.2101 -0.1513
  346loPI   C3A 5529  12.754   6.473   8.489  0.1334 -0.0751  0.3048
  346loPI   C4A 5530  12.807   6.414   8.051 -0.1626 -0.1205  0.0610
  346loPI   C5A 5531  12.608   6.170   7.602  0.3941 -0.2358 -0.1190
  346loPI   C6A 5532  12.125   6.145   7.655 -0.1344 -0.0631  0.0254
  346loPI   C1B 5533  12.639   6.088   9.502 -0.2839 -0.2004  0.0707
  346loPI   C2B 5534  12.465   5.976   9.164  0.2037  0.2086 -0.2925
  346loPI   C3B 5535  12.544   5.840   8.820 -0.3249 -0.0283  0.0748
  346loPI   C4B 5536  12.686   5.925   8.423  0.0075 -0.3079  0.0230
  347loPI    C1 5537   0.369  14.230  11.021  0.0369  0.0376 -0.0762
  347loPI    C2 5538   0.571  13.887  11.062  0.1002  0.0859  0.0193
  347loPI    C3 5539   0.345  14.024  11.363 -0.2284 -0.0644 -0.1531
  347loPI   PO4 5540   0.449  14.310  10.816  0.2436  0.3195 -0.2822
  347loPI   GL1 5541   0.637  14.199  10.437  0.1711 -0.1892  0.1732
  347loPI   GL2 5542   0.794  13.966  10.201  0.2610 -0.1208 -0.3746
  347loPI   C1A 5543   0.492  14.368  10.075  0.4691  0.1548 -0.1352
  347loPI   C2A 5544   0.345  14.359   9.649  0.0506  0.0372  0.1250
  347loPI   C3A 5545   0.450  14.381   9.243 -0.2421  0.4502 -0.0907
  347loPI   C4A 5546   0.401  14.464   8.862  0.0134 -0.2007  0.1432
  347loPI   C5A 5547   0.200  14.518   8.480  0.0792  0.0383 -0.0611
  347loPI   C6A 5548  -0.180  14.681   8.201 -0.0610  0.2943  0.4705
  347loPI   C1B 5549   0.801  14.039   9.796 -0.2335  0.0463 -0.0404
  347loPI   C2B 5550   0.746  13.952   9.413  0.0448 -0.2712  0.0432
  347loPI   C3B 5551   0.757  14.091   8.988  0.0566  0.0449  0.0151
  347loPI   C4B 5552   0.788  14.023   8.525 -0.0371 -0.0021  0.2293
  348loPI    C1 5553   4.302  12.442  10.813 -0.0253  0.1211 -0.1117
  348loPI    C2 5554   3.989  12.501  11.055  0.0033 -0.2370  0.0192
  348loPI    C3 5555   4.329  12.703  11.115 -0.1260 -0.0148  0.0159
  348loPI   PO4 5556   4.262  12.539  10.564 -0.0853  0.0582 -0.1906
  348loPI   GL1 5557   4.327  12.764  10.226  0.1116 -0.0932  0.1771
  348loPI   GL2 5558   4.110  12.551  10.085 -0.0503  0.1289  0.0849
  348loPI   C1A 5559   4.583  12.591   9.952  0.0946  0.1757 -0.0629
  348loPI   C2A 5560   4.600  12.706   9.503 -0.2024 -0.0691 -0.2005
  348loPI   C3A 5561   4.569  12.562   9.129 -0.2404 -0.1247 -0.1685
  348loPI   C4A 5562   4.601  12.614   8.670 -0.2420  0.0465 -0.0270
  348loPI   C5A 5563   4.477  12.488   8.232 -0.0067 -0.0889 -0.1251
  348loPI   C6A 5564   4.313  12.366   7.901 -0.1287 -0.3097 -0.3133
  348loPI   C1B 5565   4.081  12.531   9.644 -0.1614 -0.1443 -0.1219
  348loPI   C2B 5566   4.053  12.494   9.238  0.3267  0.0460 -0.0374
  348loPI   C3B 5567   4.037  12.518   8.727 -0.0484 -0.0011  0.0518
  348loPI   C4B 5568   4.015  12.587   8.335  0.0581  0.0393 -0.1146
  349loPI    C1 5569   1.336  14.732  11.070  0.0683 -0.0340  0.0572
  349loPI    C2 5570   1.034  14.990  11.112  0.0673 -0.0663  0.2591
  349loPI    C3 5571   1.283  14.923  11.418  0.2418 -0.0871  0.1141
  349loPI   PO4 5572   1.400  14.711  10.867 -0.2356 -0.2492  0.0211
  349loPI   GL1 5573   1.291  14.954  10.536 -0.5686  0.1696  0.2378
  349loPI   GL2 5574   1.560  14.983  10.396 -0.0374  0.0414 -0.4751
  349loPI   C1A 5575   1.119  14.986  10.104  0.3675 -0.1748 -0.1471
  349loPI   C2A 5576   1.044  14.985   9.709 -0.0262  0.0439 -0.2818
  349loPI   C3A 5577   1.077  15.009   9.285  0.2882  0.1906  0.1465
  349loPI   C4A 5578   1.105  14.970   8.905  0.1502  0.0012 -0.0518
  349loPI   C5A 5579   1.244  14.793   8.417 -0.1603 -0.0890  0.0658
  349loPI   C6A 5580   0.994  14.470   8.181  0.0933 -0.0885 -0.2362
  349loPI   C1B 5581   1.557  15.092   9.980 -0.1541 -0.1687  0.3502
  349loPI   C2B 5582   1.601  15.086   9.502  0.0796 -0.2271 -0.1910
  349loPI   C3B 5583   1.595  15.117   9.075 -0.1056 -0.1267  0.1329
  349loPI   C4B 5584   1.534  15.127   8.633  0.0304 -0.0115  0.1312
  350loPI    C1 5585   6.437   6.965  10.007 -0.1148  0.3724  0.0442
  350loPI    C2 5586   6.623   7.086  10.340  0.0442  0.0746  0.0675
  350loPI    C3 5587   6.226   7.035  10.340 -0.0163  0.5071  0.0788
  350loPI   PO4 5588   6.478   7.091   9.858 -0.1024 -0.1936 -0.2377
  350loPI   GL1 5589   6.297   7.216   9.420  0.0398 -0.1310 -0.0141
  350loPI   GL2 5590   6.257   6.868   9.400 -0.2267 -0.4202 -0.0530
  350loPI   C1A 5591   6.216   7.446   9.064 -0.3873  0.1664 -0.1155
  350loPI   C2A 5592   6.229   7.383   8.670  0.0079  0.4470  0.3354
  350loPI   C3A 5593   6.260   7.350   8.228 -0.2511 -0.0234 -0.0263
  350loPI   C4A 5594   6.389   7.280   7.816 -0.0265  0.0909 -0.0546
  350loPI   C5A 5595   6.406   7.254   7.345 -0.0649 -0.0875 -0.0192
  350loPI   C6A 5596   6.350   6.871   7.284  0.0447  0.1707  0.0751
  350loPI   C1B 5597   6.131   6.941   8.979 -0.1099  0.2249  0.0854
  350loPI   C2B 5598   6.132   6.784   8.573 -0.2707  0.1468  0.1417
  350loPI   C3B 5599   6.076   6.758   8.179 -0.0846 -0.0350  0.2729
  350loPI   C4B 5600   6.228   6.805   7.776 -0.1101  0.1788 -0.2157
  351loPI    C1 5601  14.994   7.114   9.934  0.0683  0.0722  0.0801
  351loPI    C2 5602  15.027   7.080  10.331  0.0845  0.0655  0.0781
  351loPI    C3 5603  15.356   7.082  10.102  0.0680 -0.0840  0.0521
  351loPI   PO4 5604  14.796   6.910   9.910  0.0294 -0.0129  0.0986
  351loPI   GL1 5605  14.693   6.828   9.529 -0.2270  0.2422 -0.0922
  351loPI   GL2 5606  14.560   6.565   9.520  0.3016  0.3092  0.0125
  351loPI   C1A 5607  14.773   7.033   9.162  0.1930  0.1078 -0.0289
  351loPI   C2A 5608  14.776   6.891   8.744  0.0012  0.0367 -0.2203
  351loPI   C3A 5609  14.790   6.875   8.280  0.1474  0.1355  0.0772
  351loPI   C4A 5610  14.816   6.810   7.788  0.3100  0.1917 -0.0277
  351loPI   C5A 5611  14.935   6.505   7.465 -0.0752  0.0582  0.2921
  351loPI   C6A 5612  15.125   6.172   7.246  0.0020  0.0247  0.0323
  351loPI   C1B 5613  14.503   6.490   9.106 -0.0763 -0.2917 -0.2098
  351loPI   C2B 5614  14.609   6.413   8.636  0.0026  0.3153 -0.0623
  351loPI   C3B 5615  14.665   6.294   8.226 -0.0003  0.3019  0.0109
  351loPI   C4B 5616  14.726   6.174   7.801  0.3160 -0.1839 -0.0122
  352loPI    C1 5617   1.880  13.683  10.903  0.1466 -0.0069  0.0220
  352loPI    C2 5618   2.143  13.583  11.188 -0.0387 -0.0242  0.1892
  352loPI    C3 5619   1.803  13.375  11.148 -0.1137  0.1149  0.0969
  352loPI   PO4 5620   1.921  13.981  10.851  0.1176 -0.0489 -0.4043
  352loPI   GL1 5621   1.817  14.253  10.549  0.2731 -0.2173 -0.0094
  352loPI   GL2 5622   1.630  14.457  10.516  0.3695 -0.3663  0.2164
  352loPI   C1A 5623   1.814  14.162  10.143  0.1484 -0.2663 -0.1200
  352loPI   C2A 5624   1.682  14.188   9.763 -0.0243 -0.0958 -0.2440
  352loPI   C3A 5625   1.827  14.378   9.445 -0.1321  0.0059  0.1724
  352loPI   C4A 5626   1.774  14.245   9.076  0.1275  0.1746 -0.2740
  352loPI   C5A 5627   1.731  14.271   8.617  0.1165  0.0448 -0.1947
  352loPI   C6A 5628   1.474  14.421   8.184  0.2686 -0.0744  0.1163
  352loPI   C1B 5629   1.460  14.552  10.151 -0.1215 -0.2002  0.2094
  352loPI   C2B 5630   1.431  14.656   9.750 -0.2891 -0.3573 -0.2758
  352loPI   C3B 5631   1.427  14.616   9.259  0.0314  0.1612 -0.1843
  352loPI   C4B 5632   1.419  14.609   8.822  0.0589 -0.0915 -0.1808
  353loPI    C1 5633   9.260   3.513  10.938 -0.0362  0.0262 -0.0338
  353loPI    C2 5634   9.256   3.852  11.149  0.1549 -0.0465  0.0896
  353loPI    C3 5635   9.248   3.500  11.338  0.2931 -0.1120 -0.0246
  353loPI   PO4 5636   9.113   3.535  10.742  0.0711  0.2948 -0.1496
  353loPI   GL1 5637   9.040   3.260  10.404  0.0862 -0.0480  0.0441
  353loPI   GL2 5638   9.129   2.964  10.239 -0.2289 -0.2565 -0.0060
  353loPI   C1A 5639   9.267   3.389   9.966 -0.0852 -0.1494 -0.0375
  353loPI   C2A 5640   9.332   3.410   9.602  0.2048 -0.2941  0.3424
  353loPI   C3A 5641   9.311   3.430   9.160  0.3736 -0.2177 -0.1239
  353loPI   C4A 5642   9.388   3.442   8.706 -0.0228  0.1595  0.0601
  353loPI   C5A 5643   9.066   3.405   8.419  0.0880  0.0290 -0.1048
  353loPI   C6A 5644   8.877   3.574   8.071  0.0286 -0.0053  0.0819
  353loPI   C1B 5645   9.151   2.918   9.825  0.0099  0.1357  0.0719
  353loPI   C2B 5646   9.181   2.834   9.354  0.1938 -0.1592 -0.0842
  353loPI   C3B 5647   9.287   2.946   8.825  0.1725  0.2342 -0.0268
  353loPI   C4B 5648   9.284   2.791   8.435  0.1089  0.2913  0.4672
  354loPI    C1 5649  10.025  14.867  11.118  0.1401  0.0315  0.0176
  354loPI    C2 5650  10.378  14.887  11.306  0.1076 -0.0992  0.0945
  354loPI    C3 5651  10.044  14.818  11.515  0.0182  0.1555  0.0393
  354loPI   PO4 5652  10.120  14.730  10.911 -0.1343 -0.0420  0.1775
  354loPI   GL1 5653  10.452  14.866  10.566 -0.1411  0.3174  0.3672
  354loPI   GL2 5654  10.196  14.813  10.449  0.1313 -0.0638 -0.1737
  354loPI   C1A 5655  10.610  14.799  10.116 -0.1394 -0.1343 -0.0605
  354loPI   C2A 5656  10.584  14.762   9.685  0.1020 -0.0706 -0.2123
  354loPI   C3A 5657  10.611  14.802   9.246  0.2441 -0.0929  0.3864
  354loPI   C4A 5658  10.674  14.934   8.866  0.2617 -0.0655 -0.0748
  354loPI   C5A 5659  10.750  15.093   8.445 -0.0208  0.0679  0.3667
  354loPI   C6A 5660  10.944  14.987   7.954 -0.0968 -0.1244  0.0614
  354loPI   C1B 5661  10.140  14.702   9.995 -0.1292 -0.0523  0.0560
  354loPI   C2B 5662  10.148  14.771   9.556  0.1580  0.2475  0.0108
  354loPI   C3B 5663  10.120  14.933   9.091  0.2074  0.0362  0.1681
  354loPI   C4B 5664  10.146  14.752   8.695 -0.1583  0.1283  0.0290
  355loPI    C1 5665   7.395   2.713  11.171 -0.1493  0.2257  0.0613
  355loPI    C2 5666   7.064   2.913  11.071 -0.0937  0.2967  0.0179
  355loPI    C3 5667   7.169   2.879  11.456 -0.1694  0.2445  0.0344
  355loPI   PO4 5668   7.516   2.729  10.989  0.0709  0.0498 -0.1573
  355loPI   GL1 5669   7.555   2.504  10.655 -0.0133 -0.1740  0.3840
  355loPI   GL2 5670   7.831   2.337  10.719 -0.2446 -0.2545 -0.0254
  355loPI   C1A 5671   7.573   2.529  10.186  0.1375  0.1210  0.0151
  355loPI   C2A 5672   7.656   2.489   9.729 -0.2376 -0.3116  0.2170
  355loPI   C3A 5673   7.626   2.573   9.263  0.0447 -0.1122  0.6358
  355loPI   C4A 5674   7.702   2.559   8.836 -0.1463  0.1650 -0.1087
  355loPI   C5A 5675   7.765   2.914   8.559  0.2375 -0.0834 -0.3647
  355loPI   C6A 5676   7.564   3.098   8.306  0.0406  0.1189  0.1349
  355loPI   C1B 5677   7.976   2.170  10.280 -0.0309 -0.0287  0.1490
  355loPI   C2B 5678   8.036   2.139   9.833  0.0033  0.0194  0.1725
  355loPI   C3B 5679   7.991   2.227   9.368 -0.1158  0.1783 -0.4187
  355loPI   C4B 5680   8.066   2.126   8.910  0.1761  0.0562 -0.3071
  356loPI    C1 5681  16.625   5.166  10.595 -0.0113 -0.2169 -0.0729
  356loPI    C2 5682  16.406   5.007  10.889 -0.0222  0.0559  0.0699
  356loPI    C3 5683  16.640   5.323  10.962  0.1296  0.0013 -0.1698
  356loPI   PO4 5684  16.690   4.972  10.464  0.0700  0.2343 -0.0255
  356loPI   GL1 5685  16.768   4.850  10.081  0.0168  0.1090  0.1798
  356loPI   GL2 5686  16.519   4.679   9.994  0.0340  0.1933  0.1892
  356loPI   C1A 5687  16.936   4.744   9.727 -0.0889  0.2162  0.2182
  356loPI   C2A 5688  16.822   4.606   9.436 -0.0297  0.3817  0.3205
  356loPI   C3A 5689  16.935   4.591   8.992  0.4125 -0.0388 -0.1935
  356loPI   C4A 5690  16.934   4.603   8.467 -0.4850 -0.0218  0.1576
  356loPI   C5A 5691  16.806   4.421   8.068  0.2658  0.1601  0.0470
  356loPI   C6A 5692  16.536   4.051   7.963  0.0186 -0.0859  0.0959
  356loPI   C1B 5693  16.334   4.592   9.675 -0.0448 -0.2986 -0.0519
  356loPI   C2B 5694  16.346   4.513   9.181 -0.0944  0.1080  0.0321
  356loPI   C3B 5695  16.441   4.437   8.834  0.0717 -0.3155  0.4986
  356loPI   C4B 5696  16.484   4.224   8.444 -0.4392  0.0797  0.0657
  357loPI    C1 5697  14.460  10.617  10.556  0.2175 -0.1884  0.2755
  357loPI    C2 5698  14.517  10.250  10.408 -0.0756 -0.0797 -0.1244
  357loPI    C3 5699  14.194  10.328  10.632  0.1058 -0.1184  0.1559
  357loPI   PO4 5700  14.557  10.791  10.303 -0.2352  0.0436  0.1034
  357loPI   GL1 5701  14.709  11.169  10.153  0.1762 -0.3400 -0.0513
  357loPI   GL2 5702  14.816  11.498  10.137  0.2684 -0.1630  0.0290
  357loPI   C1A 5703  14.730  11.227   9.675 -0.2159 -0.0592  0.2521
  357loPI   C2A 5704  14.676  11.156   9.240  0.0414  0.2540  0.2564
  357loPI   C3A 5705  14.744  11.177   8.864 -0.1118 -0.2980  0.1907
  357loPI   C4A 5706  14.699  11.259   8.446 -0.2199 -0.3851 -0.2866
  357loPI   C5A 5707  14.666  11.545   8.143 -0.1019 -0.1976 -0.0024
  357loPI   C6A 5708  15.003  11.409   7.805  0.0555 -0.0322  0.2391
  357loPI   C1B 5709  14.970  11.633   9.819  0.1443 -0.0371 -0.0822
  357loPI   C2B 5710  14.922  11.755   9.411  0.2562  0.1282 -0.0030
  357loPI   C3B 5711  14.884  11.633   9.060 -0.2182 -0.1046 -0.0962
  357loPI   C4B 5712  14.831  11.650   8.669 -0.0831  0.3746 -0.4162
  358loPI    C1 5713  16.665  17.851  11.191 -0.0077 -0.1515 -0.1328
  358loPI    C2 5714  16.603  17.535  11.428  0.1320  0.0639  0.1989
  358loPI    C3 5715  16.362  17.853  11.453  0.0111  0.0001 -0.1110
  358loPI   PO4 5716  16.656  17.767  10.858  0.2242  0.0273 -0.1235
  358loPI   GL1 5717  16.620  17.826  10.551 -0.3586 -0.2604 -0.0198
  358loPI   GL2 5718  16.403  17.564  10.486 -0.2417 -0.1742  0.0080
  358loPI   C1A 5719  16.700  17.736  10.136  0.0712  0.0390  0.3806
  358loPI   C2A 5720  16.806  17.740   9.852 -0.1304  0.0003 -0.2120
  358loPI   C3A 5721  16.750  17.781   9.389 -0.2384 -0.0040  0.1724
  358loPI   C4A 5722  16.814  17.755   9.019 -0.4346  0.0442  0.1611
  358loPI   C5A 5723  16.801  17.850   8.575 -0.1592  0.0855  0.1804
  358loPI   C6A 5724  17.013  17.802   8.197  0.0765 -0.0081 -0.0125
  358loPI   C1B 5725  16.217  17.555  10.033 -0.1963 -0.0672 -0.3457
  358loPI   C2B 5726  16.245  17.568   9.516 -0.3033  0.2428  0.2389
  358loPI   C3B 5727  16.302  17.677   9.194 -0.1779  0.1025 -0.0030
  358loPI   C4B 5728  16.247  17.789   8.820 -0.0535  0.1785 -0.0235
  359loPI    C1 5729   1.052  15.585  11.014  0.1046 -0.0007 -0.2274
  359loPI    C2 5730   1.183  15.448  11.366 -0.0251  0.0776 -0.1474
  359loPI    C3 5731   0.865  15.689  11.352 -0.1418 -0.0844 -0.3355
  359loPI   PO4 5732   1.174  15.435  10.854  0.2945  0.3608 -0.0649
  359loPI   GL1 5733   1.337  15.443  10.447 -0.0280 -0.0354 -0.0901
  359loPI   GL2 5734   1.552  15.610  10.554 -0.2323  0.0213 -0.0817
  359loPI   C1A 5735   1.201  15.462   9.959  0.1203 -0.0488  0.2928
  359loPI   C2A 5736   1.262  15.461   9.491  0.0908  0.1369  0.0736
  359loPI   C3A 5737   1.321  15.525   9.083 -0.0575  0.0689  0.0447
  359loPI   C4A 5738   1.254  15.489   8.612 -0.2806 -0.3493  0.1111
  359loPI   C5A 5739   1.161  15.253   8.235  0.1624 -0.1697  0.0428
  359loPI   C6A 5740   0.884  14.920   8.035  0.1842  0.1134  0.0601
  359loPI   C1B 5741   1.665  15.661  10.093  0.2534  0.0033  0.1562
  359loPI   C2B 5742   1.676  15.569   9.679  0.1629 -0.0059 -0.0364
  359loPI   C3B 5743   1.797  15.569   9.285  0.0665  0.1008 -0.0488
  359loPI   C4B 5744   1.754  15.584   8.844 -0.0953 -0.2693 -0.3628
  360loPI    C1 5745   0.286  17.644  11.222  0.1117 -0.0034  0.0171
  360loPI    C2 5746   0.194  17.910  11.506 -0.1200 -0.0764  0.0119
  360loPI    C3 5747   0.190  17.519  11.590 -0.0282 -0.0903 -0.0479
  360loPI   PO4 5748   0.207  17.725  11.023 -0.1219 -0.0077 -0.0468
  360loPI   GL1 5749   0.051  17.543  10.671  0.6628  0.1580 -0.2056
  360loPI   GL2 5750   0.367  17.627  10.589  0.0600  0.1381  0.3035
  360loPI   C1A 5751  -0.035  17.470  10.284  0.2436 -0.0787  0.1700
  360loPI   C2A 5752  -0.057  17.527   9.840 -0.2901  0.1245 -0.1437
  360loPI   C3A 5753  -0.022  17.582   9.377  0.1163 -0.0472  0.0266
  360loPI   C4A 5754   0.032  17.552   8.947  0.0460 -0.0528  0.0744
  360loPI   C5A 5755   0.186  17.493   8.557 -0.0447  0.0018 -0.1784
  360loPI   C6A 5756   0.595  17.577   8.414 -0.0288  0.3472  0.0545
  360loPI   C1B 5757   0.457  17.706  10.131  0.3615  0.1469 -0.0022
  360loPI   C2B 5758   0.414  17.731   9.682 -0.1841 -0.2130  0.1370
  360loPI   C3B 5759   0.521  17.704   9.233 -0.2699  0.2662  0.1059
  360loPI   C4B 5760   0.534  17.688   8.887  0.3230  0.0304  0.0241
  361loPI    C1 5761  15.914  10.023  10.604 -0.0304 -0.0782 -0.0690
  361loPI    C2 5762  15.721  10.137  10.935  0.0334 -0.0504 -0.0413
  361loPI    C3 5763  15.784   9.748  10.864  0.1334 -0.0503  0.0439
  361loPI   PO4 5764  15.875  10.238  10.453 -0.4132  0.0241 -0.2026
  361loPI   GL1 5765  15.910  10.486  10.083  0.1398 -0.1750  0.0277
  361loPI   GL2 5766  15.753  10.264   9.967  0.0804  0.4333  0.1132
  361loPI   C1A 5767  15.967  10.690   9.753  0.0171  0.0438  0.1561
  361loPI   C2A 5768  16.012  10.666   9.284  0.1800 -0.0189  0.1565
  361loPI   C3A 5769  15.946  10.531   8.882  0.0980 -0.0423  0.3999
  361loPI   C4A 5770  15.838  10.476   8.454  0.5890 -0.1466  0.3252
  361loPI   C5A 5771  15.634  10.449   8.057  0.1116 -0.0912 -0.0237
  361loPI   C6A 5772  15.356  10.234   7.822 -0.0027 -0.2440  0.2058
  361loPI   C1B 5773  16.101  10.188   9.635  0.1259 -0.3179 -0.0310
  361loPI   C2B 5774  16.336  10.313   9.261 -0.0081 -0.2540 -0.1732
  361loPI   C3B 5775  16.293  10.211   8.754  0.1046  0.1658 -0.0455
  361loPI   C4B 5776  16.228  10.068   8.233  0.0726  0.1299  0.1065
  362loPI    C1 5777  16.945  10.269  10.751  0.0382 -0.1967 -0.1360
  362loPI    C2 5778  16.792   9.904  10.808 -0.0162 -0.1185  0.2476
  362loPI    C3 5779  17.042  10.060  11.078 -0.1070  0.1864  0.1590
  362loPI   PO4 5780  17.117  10.298  10.550  0.0627  0.1144  0.2317
  362loPI   GL1 5781  17.110  10.567  10.177  0.1170 -0.4837  0.0072
  362loPI   GL2 5782  17.231  10.264  10.074  0.0401 -0.2142  0.1866
  362loPI   C1A 5783  16.920  10.618   9.814 -0.1737 -0.4429 -0.1987
  362loPI   C2A 5784  16.983  10.770   9.424 -0.4172  0.0562  0.2576
  362loPI   C3A 5785  16.972  10.832   8.962 -0.2061 -0.0497  0.2037
  362loPI   C4A 5786  16.906  10.759   8.532  0.1370  0.0980  0.0200
  362loPI   C5A 5787  16.823  10.691   8.069 -0.2588  0.0230  0.0000
  362loPI   C6A 5788  17.142  10.391   7.755  0.1973  0.1072  0.2564
  362loPI   C1B 5789  17.331  10.316   9.678  0.0985 -0.2636  0.0203
  362loPI   C2B 5790  17.312  10.364   9.188 -0.1319  0.1888  0.1925
  362loPI   C3B 5791  17.258  10.418   8.716 -0.2308 -0.2001  0.1776
  362loPI   C4B 5792  17.310  10.302   8.221  0.1444  0.1716  0.1073
  363loPI    C1 5793   0.567  12.360  11.159  0.1780 -0.3171  0.0204
  363loPI    C2 5794   0.937  12.505  11.211  0.0651  0.0661 -0.2046
  363loPI    C3 5795   0.657  12.564  11.491  0.0897  0.0522 -0.1771
  363loPI   PO4 5796   0.530  12.135  10.952  0.0479  0.2234  0.1654
  363loPI   GL1 5797   0.457  12.136  10.514  0.1341 -0.0790  0.2544
  363loPI   GL2 5798   0.194  12.056  10.321  0.3672  0.1813 -0.0695
  363loPI   C1A 5799   0.650  12.202  10.137  0.0137 -0.0334  0.0629
  363loPI   C2A 5800   0.770  12.224   9.666  0.2642 -0.1515  0.0748
  363loPI   C3A 5801   0.669  12.242   9.267 -0.1624  0.0055  0.1220
  363loPI   C4A 5802   0.672  12.094   8.850  0.1422 -0.3126  0.2055
  363loPI   C5A 5803   0.650  12.008   8.402 -0.1809  0.0362  0.0273
  363loPI   C6A 5804   0.420  11.678   8.339  0.1365 -0.1413  0.2148
  363loPI   C1B 5805   0.178  12.015   9.820 -0.1766  0.0359 -0.1146
  363loPI   C2B 5806   0.192  12.096   9.428  0.0489  0.0976 -0.2111
  363loPI   C3B 5807   0.093  11.971   9.026  0.0681 -0.0109  0.3556
  363loPI   C4B 5808   0.200  12.074   8.683  0.2044  0.1006 -0.1328
  364loPI    C1 5809   9.629   3.197  11.081 -0.1004 -0.0871  0.1440
  364loPI    C2 5810   9.911   3.187  11.365  0.1333  0.0448 -0.0789
  364loPI    C3 5811   9.782   3.538  11.222 -0.0675 -0.0178 -0.0552
  364loPI   PO4 5812   9.732   3.019  10.882 -0.0928  0.2601  0.0006
  364loPI   GL1 5813   9.775   2.998  10.451  0.2969 -0.1072 -0.2581
  364loPI   GL2 5814   9.618   2.823  10.362  0.0782  0.1926 -0.1679
  364loPI   C1A 5815   9.695   3.142   9.966  0.0785 -0.1232 -0.0276
  364loPI   C2A 5816   9.605   3.048   9.564  0.0117  0.2445  0.0149
  364loPI   C3A 5817   9.659   3.072   9.046 -0.2058  0.0958 -0.1717
  364loPI   C4A 5818   9.797   3.015   8.653 -0.1510 -0.1011  0.2246
  364loPI   C5A 5819   9.708   3.081   8.258 -0.0176 -0.1376 -0.1597
  364loPI   C6A 5820   9.390   3.140   7.908 -0.2529  0.2624  0.3345
  364loPI   C1B 5821   9.526   2.615   9.972 -0.0379 -0.1673  0.1537
  364loPI   C2B 5822   9.546   2.522   9.618  0.0503  0.0637 -0.1974
  364loPI   C3B 5823   9.596   2.612   9.193 -0.2486  0.2028 -0.1150
  364loPI   C4B 5824   9.639   2.566   8.832 -0.0971 -0.1245  0.2250
  365loPI    C1 5825  14.126   1.808  10.904 -0.2420 -0.0058  0.1513
  365loPI    C2 5826  14.241   1.605  11.229  0.1440  0.0941  0.0828
  365loPI    C3 5827  14.195   2.002  11.247 -0.1666  0.0601  0.0994
  365loPI   PO4 5828  14.002   1.498  10.796  0.0900 -0.3160 -0.1277
  365loPI   GL1 5829  13.662   1.377  10.491  0.1324  0.0709 -0.0828
  365loPI   GL2 5830  13.469   1.462  10.367 -0.0703 -0.2711 -0.4415
  365loPI   C1A 5831  13.812   1.356  10.088  0.2668 -0.3209 -0.1278
  365loPI   C2A 5832  13.792   1.291   9.684 -0.1002 -0.0305  0.1617
  365loPI   C3A 5833  13.910   1.210   9.273 -0.1959  0.1454 -0.0755
  365loPI   C4A 5834  13.917   1.226   8.811  0.1353  0.0456  0.1452
  365loPI   C5A 5835  13.856   1.192   8.452 -0.0737  0.6085 -0.2565
  365loPI   C6A 5836  13.575   1.345   8.142  0.0867  0.0930  0.1415
  365loPI   C1B 5837  13.441   1.730   9.989 -0.0154  0.0042 -0.0708
  365loPI   C2B 5838  13.461   1.655   9.540 -0.0144  0.2456 -0.0211
  365loPI   C3B 5839  13.535   1.593   9.122 -0.3067 -0.0997 -0.1078
  365loPI   C4B 5840  13.490   1.529   8.682  0.1112  0.1082  0.0807
  366loPI    C1 5841   0.700   5.810  10.623 -0.1847 -0.1764  0.1923
  366loPI    C2 5842   0.451   5.831  10.935 -0.0684 -0.1022  0.2813
  366loPI    C3 5843   0.782   6.055  10.929 -0.0738 -0.0977  0.1004
  366loPI   PO4 5844   0.698   5.596  10.482 -0.0050  0.0123 -0.0745
  366loPI   GL1 5845   0.647   5.369  10.265  0.1782 -0.0904  0.1862
  366loPI   GL2 5846   0.522   5.085  10.223 -0.0803  0.0731 -0.0007
  366loPI   C1A 5847   0.462   5.396   9.831 -0.0173 -0.1401 -0.1225
  366loPI   C2A 5848   0.520   5.469   9.356  0.4093  0.0965 -0.1970
  366loPI   C3A 5849   0.474   5.363   8.943 -0.1636  0.0442 -0.1582
  366loPI   C4A 5850   0.332   5.580   8.517  0.0161  0.4166 -0.0756
  366loPI   C5A 5851   0.670   5.512   8.147 -0.0390 -0.1424  0.2373
  366loPI   C6A 5852   1.028   5.701   8.122 -0.0700 -0.0884  0.2415
  366loPI   C1B 5853   0.674   4.728  10.005  0.3241 -0.0562 -0.2234
  366loPI   C2B 5854   0.735   4.566   9.594  0.1479  0.1107  0.0549
  366loPI   C3B 5855   0.716   4.556   9.095 -0.1483 -0.1421  0.1669
  366loPI   C4B 5856   0.633   4.545   8.661  0.0776 -0.0757  0.0162
  367loPI    C1 5857   4.230   1.520  10.918 -0.0900 -0.2025 -0.0505
  367loPI    C2 5858   4.146   1.523  11.309  0.0721  0.2189 -0.0139
  367loPI    C3 5859   4.501   1.655  11.180 -0.0598  0.2817 -0.3206
  367loPI   PO4 5860   4.238   1.347  10.799  0.2055  0.0822  0.0982
  367loPI   GL1 5861   3.914   1.322  10.632  0.1387 -0.0231  0.0256
  367loPI   GL2 5862   3.621   1.217  10.741 -0.0115 -0.0101 -0.2453
  367loPI   C1A 5863   3.828   1.118  10.159 -0.0015  0.1709 -0.0064
  367loPI   C2A 5864   3.834   1.033   9.688  0.1973  0.0207  0.1546
  367loPI   C3A 5865   3.922   1.178   9.272 -0.2514 -0.2561 -0.0182
  367loPI   C4A 5866   3.876   1.163   8.813 -0.1950  0.2699 -0.0030
  367loPI   C5A 5867   3.648   1.353   8.574  0.2909  0.0091 -0.1551
  367loPI   C6A 5868   3.593   1.650   8.624  0.1932  0.0635  0.1736
  367loPI   C1B 5869   3.423   1.481  10.376  0.1313 -0.1944  0.0400
  367loPI   C2B 5870   3.464   1.551   9.924 -0.1126 -0.0804  0.1401
  367loPI   C3B 5871   3.455   1.540   9.434 -0.0076  0.1396 -0.1832
  367loPI   C4B 5872   3.584   1.617   9.111 -0.4629  0.0958  0.0935
  368loPI    C1 5873   3.922   5.511  10.725  0.1958 -0.1879  0.2430
  368loPI    C2 5874   3.571   5.372  10.592  0.1423  0.1262  0.0450
  368loPI    C3 5875   3.587   5.719  10.790  0.3149  0.0028  0.2529
  368loPI   PO4 5876   4.098   5.354  10.521  0.0966 -0.2200 -0.0696
  368loPI   GL1 5877   4.144   5.443  10.160  0.0702 -0.2610 -0.0914
  368loPI   GL2 5878   4.334   5.615  10.113  0.1334  0.2342 -0.0586
  368loPI   C1A 5879   3.794   5.405   9.979  0.0613 -0.0188 -0.1044
  368loPI   C2A 5880   3.704   5.403   9.628 -0.3924  0.1374  0.0320
  368loPI   C3A 5881   3.720   5.347   9.268  0.2529  0.2860 -0.0552
  368loPI   C4A 5882   3.664   5.181   8.864 -0.0079  0.2246 -0.0994
  368loPI   C5A 5883   3.688   5.186   8.481 -0.0392  0.2597  0.1104
  368loPI   C6A 5884   3.368   5.136   8.107 -0.0687 -0.1610 -0.0104
  368loPI   C1B 5885   4.317   5.581   9.629 -0.2969 -0.0425 -0.3954
  368loPI   C2B 5886   4.185   5.536   9.185 -0.0004  0.0038 -0.0628
  368loPI   C3B 5887   4.185   5.300   8.844 -0.3415  0.0198 -0.1446
  368loPI   C4B 5888   4.133   5.362   8.400  0.3261  0.2197  0.0327
  369loPI    C1 5889   4.934   7.753  10.175  0.4053 -0.0487  0.1373
  369loPI    C2 5890   4.851   8.127  10.289  0.0947 -0.1108  0.1247
  369loPI    C3 5891   4.653   7.820  10.452  0.2005 -0.2552 -0.0161
  369loPI   PO4 5892   4.897   7.811   9.867  0.1876 -0.0739 -0.0343
  369loPI   GL1 5893   4.651   7.734   9.583 -0.2050 -0.2238 -0.0948
  369loPI   GL2 5894   4.961   7.554   9.466 -0.0191 -0.0318 -0.0423
  369loPI   C1A 5895   4.560   7.735   9.127 -0.2007  0.0275 -0.1089
  369loPI   C2A 5896   4.444   7.867   8.709 -0.0118 -0.2306 -0.1857
  369loPI   C3A 5897   4.440   7.929   8.259  0.2944  0.1813 -0.0562
  369loPI   C4A 5898   4.148   8.073   7.977  0.0328 -0.0370 -0.2988
  369loPI   C5A 5899   4.004   8.413   7.666  0.0387  0.1216 -0.2600
  369loPI   C6A 5900   3.848   8.784   7.429 -0.1977 -0.0936 -0.2397
  369loPI   C1B 5901   4.932   7.385   9.135  0.3263 -0.0382  0.1198
  369loPI   C2B 5902   4.833   7.475   8.777  0.0786  0.0091  0.0884
  369loPI   C3B 5903   4.924   7.461   8.410  0.1506  0.2683 -0.0172
  369loPI   C4B 5904   4.796   7.534   8.097  0.1825 -0.1320  0.1039
  370loPI    C1 5905   9.922  17.566  11.189  0.1030 -0.1953  0.0062
  370loPI    C2 5906   9.535  17.592  11.285  0.0740 -0.1815 -0.1135
  370loPI    C3 5907   9.812  17.732  11.536 -0.0113  0.0375 -0.1390
  370loPI   PO4 5908   9.903  17.503  11.012  0.0691  0.0550  0.1500
  370loPI   GL1 5909   9.740  17.354  10.611  0.1546 -0.1200 -0.0580
  370loPI   GL2 5910  10.052  17.544  10.553  0.0899  0.3161  0.0261
  370loPI   C1A 5911   9.587  17.370  10.171  0.2728  0.1886 -0.0751
  370loPI   C2A 5912   9.533  17.396   9.785 -0.0497 -0.0222 -0.0271
  370loPI   C3A 5913   9.595  17.445   9.489 -0.1679  0.0970 -0.0045
  370loPI   C4A 5914   9.401  17.434   9.087  0.0197  0.2026 -0.1971
  370loPI   C5A 5915   9.407  17.454   8.706  0.0227 -0.0741 -0.0290
  370loPI   C6A 5916   9.432  17.509   8.282  0.0055 -0.0472  0.0145
  370loPI   C1B 5917  10.045  17.531  10.136 -0.2238  0.4813  0.2482
  370loPI   C2B 5918  10.081  17.600   9.682  0.2526  0.3036  0.0681
  370loPI   C3B 5919  10.014  17.544   9.251  0.2359 -0.0134 -0.3991
  370loPI   C4B 5920   9.867  17.551   8.888 -0.4023  0.1220  0.0482
  371loPI    C1 5921   0.888   0.221  11.073  0.0673 -0.0514 -0.0349
  371loPI    C2 5922   0.705   0.492  11.303 -0.0418 -0.0059 -0.1747
  371loPI    C3 5923   1.068   0.569  11.154 -0.0301  0.0221 -0.1316
  371loPI   PO4 5924   0.697   0.216  10.860  0.0481  0.0651 -0.0902
  371loPI   GL1 5925   0.516   0.243  10.445 -0.0893  0.1418  0.0718
  371loPI   GL2 5926   0.452   0.027  10.298 -0.1677 -0.2110 -0.1226
  371loPI   C1A 5927   0.643   0.452  10.103 -0.1172 -0.2509 -0.2967
  371loPI   C2A 5928   0.782   0.551   9.818  0.0401 -0.0698 -0.0631
  371loPI   C3A 5929   0.796   0.555   9.406 -0.2311 -0.0194  0.0276
  371loPI   C4A 5930   0.860   0.493   9.024 -0.2358  0.1789  0.0424
  371loPI   C5A 5931   1.101   0.466   8.599  0.2057 -0.0243  0.1841
  371loPI   C6A 5932   1.011   0.300   8.141  0.0058  0.2872 -0.0732
  371loPI   C1B 5933   0.675  -0.020   9.952 -0.0404 -0.2799  0.0524
  371loPI   C2B 5934   0.642   0.028   9.578  0.4251 -0.0825  0.3011
  371loPI   C3B 5935   0.636   0.013   9.149  0.2161  0.3909  0.0143
  371loPI   C4B 5936   0.821  -0.047   8.658  0.1422  0.1297  0.0594
  372loPI    C1 5937   0.881  14.378  11.213 -0.1100  0.0350  0.1477
  372loPI    C2 5938   1.136  14.070  11.239 -0.1237  0.0191  0.0961
  372loPI    C3 5939   1.191  14.396  11.464 -0.2116 -0.0946  0.2841
  372loPI   PO4 5940   0.933  14.414  10.862 -0.0002 -0.0067  0.0635
  372loPI   GL1 5941   1.067  14.535  10.472 -0.2885  0.2235 -0.1528
  372loPI   GL2 5942   1.174  14.260  10.414 -0.0628  0.3037  0.0852
  372loPI   C1A 5943   0.994  14.500  10.001  0.4103  0.2191  0.3527
  372loPI   C2A 5944   1.024  14.474   9.553 -0.0212  0.0068 -0.1865
  372loPI   C3A 5945   0.928  14.556   9.113 -0.2028 -0.1703 -0.2086
  372loPI   C4A 5946   0.899  14.516   8.723  0.0746  0.0049  0.0269
  372loPI   C5A 5947   0.607  14.771   8.480 -0.0484  0.0986 -0.1425
  372loPI   C6A 5948   0.153  14.996   8.547  0.3844  0.0370  0.3636
  372loPI   C1B 5949   1.261  14.040   9.978 -0.3523  0.1270  0.3167
  372loPI   C2B 5950   1.302  14.127   9.460 -0.3602 -0.0203  0.0657
  372loPI   C3B 5951   1.239  14.188   9.005  0.4250  0.4149 -0.2581
  372loPI   C4B 5952   1.272  14.155   8.645  0.0354  0.2433  0.1746
  373loPI    C1 5953   5.907   8.242  10.055 -0.1977 -0.1569  0.1598
  373loPI    C2 5954   6.032   7.867   9.995 -0.0420 -0.0542 -0.1803
  373loPI    C3 5955   6.218   8.099  10.262  0.0330 -0.1338 -0.1628
  373loPI   PO4 5956   5.845   8.298   9.778  0.1314 -0.0204  0.0481
  373loPI   GL1 5957   5.962   8.441   9.484 -0.0366  0.0734 -0.3389
  373loPI   GL2 5958   6.012   8.710   9.369 -0.2471  0.0431 -0.1695
  373loPI   C1A 5959   5.994   8.268   9.162  0.2376 -0.3117  0.1468
  373loPI   C2A 5960   6.083   8.175   8.714 -0.1995 -0.3657  0.0199
  373loPI   C3A 5961   6.050   8.260   8.329 -0.1631 -0.0063  0.0884
  373loPI   C4A 5962   6.137   8.377   7.929  0.2902 -0.2433  0.1359
  373loPI   C5A 5963   6.372   8.740   7.513  0.0782  0.0674 -0.0215
  373loPI   C6A 5964   6.600   8.885   7.194 -0.0491  0.2123  0.2029
  373loPI   C1B 5965   5.777   8.741   9.083 -0.2496 -0.1349 -0.1365
  373loPI   C2B 5966   5.804   8.624   8.691  0.2736  0.2404 -0.4417
  373loPI   C3B 5967   5.693   8.602   8.173  0.0861 -0.1055  0.0240
  373loPI   C4B 5968   5.537   8.791   7.806 -0.3934  0.2646  0.1362
  374loPI    C1 5969   0.916   7.330  10.682  0.1106  0.1379  0.0145
  374loPI    C2 5970   1.240   7.098  10.714  0.3135  0.4285  0.1102
  374loPI    C3 5971   1.002   7.153  11.030  0.0501  0.0483 -0.0160
  374loPI   PO4 5972   0.866   7.249  10.456 -0.1019 -0.1870 -0.0965
  374loPI   GL1 5973   0.975   6.970  10.010  0.1880  0.1877 -0.1328
  374loPI   GL2 5974   0.804   7.240   9.894 -0.0516  0.3968 -0.1601
  374loPI   C1A 5975   1.062   6.748   9.611  0.3294  0.0828  0.2232
  374loPI   C2A 5976   1.142   6.580   9.212 -0.0414  0.1533  0.0644
  374loPI   C3A 5977   1.272   6.574   8.722 -0.1020 -0.2034 -0.0118
  374loPI   C4A 5978   1.232   6.549   8.236 -0.0156 -0.3091 -0.1465
  374loPI   C5A 5979   1.271   6.135   8.060  0.4530 -0.2218 -0.2183
  374loPI   C6A 5980   1.585   5.750   7.984 -0.2297 -0.1753 -0.1270
  374loPI   C1B 5981   0.866   7.156   9.422 -0.1311  0.1544 -0.0685
  374loPI   C2B 5982   0.985   7.024   9.038  0.1725 -0.2346  0.0616
  374loPI   C3B 5983   0.962   6.972   8.626  0.0760 -0.1503 -0.0224
  374loPI   C4B 5984   0.962   7.084   8.232 -0.2848  0.0771 -0.0721
  375loPI    C1 5985   7.766  15.382  10.591  0.0164  0.1577  0.0178
  375loPI    C2 5986   7.835  15.099  10.865 -0.1813  0.0518 -0.0401
  375loPI    C3 5987   7.944  15.477  10.937 -0.3668  0.0534  0.2495
  375loPI   PO4 5988   7.867  15.272  10.400 -0.2438  0.0942 -0.0992
  375loPI   GL1 5989   7.874  15.381  10.085 -0.3000  0.0063 -0.0134
  375loPI   GL2 5990   8.058  15.666  10.019 -0.1399 -0.0710  0.2827
  375loPI   C1A 5991   7.827  15.147   9.676 -0.0786 -0.2186  0.0155
  375loPI   C2A 5992   7.872  15.134   9.342 -0.1916 -0.1635  0.3621
  375loPI   C3A 5993   7.814  15.169   8.863 -0.0263 -0.2256 -0.3956
  375loPI   C4A 5994   7.780  15.198   8.468 -0.0392  0.4985  0.0508
  375loPI   C5A 5995   7.686  15.351   8.107  0.1941 -0.2042  0.1144
  375loPI   C6A 5996   7.488  15.623   7.871 -0.1199  0.2613  0.0997
  375loPI   C1B 5997   8.040  15.591   9.582 -0.0074  0.3328  0.1965
  375loPI   C2B 5998   8.022  15.643   9.243  0.0275 -0.2424 -0.5849
  375loPI   C3B 5999   7.941  15.662   8.845 -0.2179  0.2409 -0.4686
  375loPI   C4B 6000   7.930  15.726   8.367 -0.2123  0.0032  0.1004
  376loPI    C1 6001  11.648   0.605  11.037 -0.3623  0.1017  0.0468
  376loPI    C2 6002  11.501   0.458  11.379 -0.1387 -0.1161  0.0526
  376loPI    C3 6003  11.485   0.851  11.306  0.0774 -0.0300  0.4466
  376loPI   PO4 6004  11.709   0.363  10.875  0.1254  0.0462 -0.0230
  376loPI   GL1 6005  11.659   0.163  10.467  0.2604  0.2193 -0.2786
  376loPI   GL2 6006  11.714   0.481  10.409 -0.1208 -0.2690 -0.2187
  376loPI   C1A 6007  11.551  -0.107  10.146  0.1298 -0.2019 -0.4155
  376loPI   C2A 6008  11.511  -0.203   9.682 -0.1275  0.1975  0.1001
  376loPI   C3A 6009  11.529  -0.328   9.224 -0.1296 -0.1342  0.0905
  376loPI   C4A 6010  11.618  -0.309   8.788 -0.2744  0.0516 -0.1145
  376loPI   C5A 6011  11.752  -0.297   8.358 -0.0319  0.0024  0.5245
  376loPI   C6A 6012  11.751  -0.390   7.943 -0.0830  0.2535 -0.1053
  376loPI   C1B 6013  11.677   0.338   9.979 -0.0706 -0.2225 -0.0171
  376loPI   C2B 6014  11.752   0.224   9.562  0.0531  0.4216 -0.1318
  376loPI   C3B 6015  11.667   0.169   9.146  0.0936 -0.2313  0.0346
  376loPI   C4B 6016  11.459   0.117   8.662 -0.1023  0.1313  0.0393
  377loPI    C1 6017  14.719   7.891  10.202  0.2192 -0.0782 -0.0266
  377loPI    C2 6018  14.721   7.502  10.294 -0.1535 -0.0627  0.0631
  377loPI    C3 6019  14.387   7.716  10.339  0.0311  0.2552 -0.0471
  377loPI   PO4 6020  14.888   7.899   9.970 -0.3516 -0.1245 -0.0404
  377loPI   GL1 6021  14.936   8.073   9.536 -0.3004 -0.0430 -0.1106
  377loPI   GL2 6022  14.951   7.709   9.463  0.0337  0.3256  0.0932
  377loPI   C1A 6023  15.208   8.033   9.227 -0.0273 -0.2090 -0.3562
  377loPI   C2A 6024  15.112   7.927   8.720 -0.1555  0.1119 -0.1898
  377loPI   C3A 6025  15.176   7.944   8.326  0.1384 -0.1080  0.0936
  377loPI   C4A 6026  15.163   7.785   7.907 -0.0272 -0.3972  0.1821
  377loPI   C5A 6027  15.402   7.466   7.651 -0.2366  0.1697  0.0073
  377loPI   C6A 6028  15.654   7.031   7.489 -0.1144 -0.0733  0.0924
  377loPI   C1B 6029  14.912   7.495   9.095 -0.0598 -0.1311  0.0377
  377loPI   C2B 6030  14.957   7.473   8.732 -0.2456  0.1254 -0.2395
  377loPI   C3B 6031  14.988   7.497   8.317  0.0912  0.0098 -0.2588
  377loPI   C4B 6032  14.769   7.411   7.975  0.2782  0.4524  0.1223
  378loPI    C1 6033   3.410  10.100  10.310 -0.0237  0.0745 -0.2161
  378loPI    C2 6034   3.212   9.908  10.599  0.0023 -0.0474 -0.2786
  378loPI    C3 6035   3.584  10.038  10.665 -0.0408  0.0437 -0.2130
  378loPI   PO4 6036   3.321  10.006  10.069  0.0075 -0.2860 -0.0116
  378loPI   GL1 6037   3.225   9.816   9.688  0.2190  0.0185  0.1438
  378loPI   GL2 6038   2.854   9.751   9.623 -0.2162 -0.1697 -0.0022
  378loPI   C1A 6039   3.454   9.836   9.258 -0.1986 -0.0410 -0.4455
  378loPI   C2A 6040   3.421  10.037   8.841 -0.0676 -0.0612  0.2278
  378loPI   C3A 6041   3.332  10.009   8.443  0.2289  0.2746  0.0554
  378loPI   C4A 6042   3.239  10.065   8.096 -0.0869 -0.1714 -0.2023
  378loPI   C5A 6043   3.268   9.849   7.755 -0.1921 -0.0328 -0.0031
  378loPI   C6A 6044   3.298   9.702   7.419 -0.0238 -0.1040 -0.0682
  378loPI   C1B 6045   2.944   9.821   9.179 -0.1477 -0.0272  0.0547
  378loPI   C2B 6046   2.915   9.854   8.760  0.0150  0.1853 -0.1181
  378loPI   C3B 6047   2.789   9.855   8.265 -0.1687 -0.0487 -0.7057
  378loPI   C4B 6048   2.813   9.848   7.925  0.1042 -0.0705 -0.1295
  379loPI    C1 6049   8.739   5.247  10.495  0.1276  0.1188  0.0159
  379loPI    C2 6050   9.126   5.342  10.523  0.1247  0.0581  0.2893
  379loPI    C3 6051   9.004   4.971  10.611  0.0214  0.0385  0.0701
  379loPI   PO4 6052   8.631   5.162  10.294  0.0165 -0.4037  0.2971
  379loPI   GL1 6053   8.822   4.821  10.085  0.0936  0.2134  0.0542
  379loPI   GL2 6054   9.119   5.079  10.096 -0.0718  0.1525  0.1732
  379loPI   C1A 6055   8.797   4.718   9.662  0.1724  0.1638 -0.1403
  379loPI   C2A 6056   8.791   4.642   9.281 -0.2576 -0.2761 -0.0563
  379loPI   C3A 6057   8.737   4.612   8.804  0.1562 -0.0676  0.1928
  379loPI   C4A 6058   8.676   4.549   8.386  0.2503 -0.0657 -0.0016
  379loPI   C5A 6059   8.852   4.622   7.978 -0.0474  0.0908  0.0918
  379loPI   C6A 6060   8.933   4.922   7.806  0.2422  0.1284 -0.0766
  379loPI   C1B 6061   9.340   4.857   9.838  0.1271 -0.0363  0.1494
  379loPI   C2B 6062   9.287   4.817   9.505 -0.3622 -0.1556  0.1191
  379loPI   C3B 6063   9.279   4.694   9.129 -0.0887  0.3516 -0.0463
  379loPI   C4B 6064   9.308   4.740   8.654  0.3615  0.2714 -0.0961
  380loPI    C1 6065   6.296  16.411  11.087 -0.1353 -0.0600  0.0463
  380loPI    C2 6066   5.945  16.268  11.215 -0.1231 -0.0675  0.0715
  380loPI    C3 6067   6.287  16.111  11.352 -0.1091  0.0539  0.1778
  380loPI   PO4 6068   6.247  16.404  10.819  0.3065 -0.0087 -0.1475
  380loPI   GL1 6069   5.951  16.549  10.495  0.2065  0.0605  0.0851
  380loPI   GL2 6070   5.598  16.405  10.561  0.3014  0.1816  0.5480
  380loPI   C1A 6071   5.937  16.619  10.056  0.0703 -0.1485 -0.1300
  380loPI   C2A 6072   5.832  16.465   9.639  0.0586 -0.0704  0.1169
  380loPI   C3A 6073   5.801  16.502   9.203  0.0706 -0.1070 -0.1562
  380loPI   C4A 6074   5.892  16.544   8.739 -0.0744  0.1836 -0.0318
  380loPI   C5A 6075   5.956  16.548   8.281 -0.2171 -0.1388  0.1894
  380loPI   C6A 6076   5.659  16.675   8.008 -0.1289  0.4820 -0.1107
  380loPI   C1B 6077   5.483  16.413  10.111 -0.1704 -0.0161  0.1893
  380loPI   C2B 6078   5.294  16.443   9.622 -0.1235  0.2133  0.1289
  380loPI   C3B 6079   5.301  16.350   9.233 -0.0975 -0.4279 -0.0023
  380loPI   C4B 6080   5.439  16.486   8.900  0.0698 -0.1295  0.3845
  381loPI    C1 6081   5.517   6.924   9.950  0.1127  0.1680  0.2234
  381loPI    C2 6082   5.630   6.542   9.913 -0.0461  0.1501 -0.1253
  381loPI    C3 6083   5.711   6.743  10.250  0.1116 -0.1636  0.0295
  381loPI   PO4 6084   5.324   6.918   9.883  0.0144 -0.1299 -0.1612
  381loPI   GL1 6085   5.135   6.637   9.787  0.0103  0.1987  0.0336
  381loPI   GL2 6086   4.848   6.595   9.854 -0.0148 -0.0351 -0.2352
  381loPI   C1A 6087   5.049   6.609   9.325 -0.0044 -0.1525  0.0511
  381loPI   C2A 6088   5.019   6.481   8.844 -0.1645  0.1312 -0.1111
  381loPI   C3A 6089   5.018   6.467   8.483  0.1030 -0.1608 -0.1900
  381loPI   C4A 6090   5.106   6.556   8.085  0.0917  0.1349  0.0792
  381loPI   C5A 6091   5.193   6.677   7.693  0.0795  0.2598  0.1060
  381loPI   C6A 6092   4.928   6.988   7.522 -0.0344  0.3635 -0.1955
  381loPI   C1B 6093   4.608   6.464   9.537  0.0719 -0.2071 -0.1636
  381loPI   C2B 6094   4.595   6.361   9.086  0.0991 -0.3398  0.0813
  381loPI   C3B 6095   4.585   6.503   8.651  0.3330  0.2714  0.1096
  381loPI   C4B 6096   4.616   6.514   8.187  0.0890 -0.2711  0.0893
  382loPI    C1 6097   8.223   0.013  11.267  0.2734  0.1358 -0.1238
  382loPI    C2 6098   8.039   0.322  11.442  0.1876  0.0295 -0.0252
  382loPI    C3 6099   8.099  -0.017  11.646  0.3528  0.0085 -0.1073
  382loPI   PO4 6100   8.235   0.008  11.051  0.1639 -0.0234  0.1887
  382loPI   GL1 6101   8.010   0.016  10.632  0.2383 -0.0814  0.3187
  382loPI   GL2 6102   8.217   0.210  10.556  0.2062 -0.0358 -0.0594
  382loPI   C1A 6103   7.767   0.208  10.157 -0.1920 -0.2476 -0.1977
  382loPI   C2A 6104   7.899   0.239   9.797 -0.1622  0.0973 -0.2931
  382loPI   C3A 6105   7.997   0.219   9.358 -0.0814 -0.1364 -0.2796
  382loPI   C4A 6106   7.957   0.293   8.938  0.0878 -0.5950 -0.5031
  382loPI   C5A 6107   7.900   0.366   8.645 -0.1104  0.2626 -0.1341
  382loPI   C6A 6108   7.824   0.611   8.327  0.1167 -0.0553 -0.0003
  382loPI   C1B 6109   8.271   0.339  10.210 -0.0517 -0.2090 -0.0466
  382loPI   C2B 6110   8.419   0.377   9.887 -0.0701  0.2588 -0.0469
  382loPI   C3B 6111   8.492   0.392   9.399  0.0733  0.0348  0.0873
  382loPI   C4B 6112   8.421   0.421   8.890 -0.1173 -0.3555 -0.1684
  383loPI    C1 6113  12.387   7.375  10.411 -0.2286  0.3340 -0.0974
  383loPI    C2 6114  12.181   7.033  10.390  0.2136  0.0636 -0.1678
  383loPI    C3 6115  12.040   7.339  10.606 -0.1715 -0.1712 -0.0767
  383loPI   PO4 6116  12.505   7.435  10.223 -0.3017 -0.1033 -0.0423
  383loPI   GL1 6117  12.677   7.467   9.756  0.2269 -0.1606  0.0674
  383loPI   GL2 6118  12.276   7.358   9.808 -0.2592  0.0749 -0.2779
  383loPI   C1A 6119  12.526   7.470   9.349  0.1156 -0.1183  0.3700
  383loPI   C2A 6120  12.420   7.479   8.938 -0.0822 -0.0802  0.2081
  383loPI   C3A 6121  12.618   7.474   8.500  0.1512  0.1802 -0.0922
  383loPI   C4A 6122  12.553   7.351   8.119  0.1362  0.0561  0.1796
  383loPI   C5A 6123  12.760   7.352   7.709 -0.2931  0.1730 -0.0829
  383loPI   C6A 6124  12.985   7.010   7.572  0.0358 -0.3813  0.2348
  383loPI   C1B 6125  12.193   7.114   9.482 -0.2997 -0.1404 -0.2230
  383loPI   C2B 6126  12.289   6.893   9.076  0.0623  0.1279 -0.2505
  383loPI   C3B 6127  12.316   6.852   8.622 -0.1589 -0.2785  0.2655
  383loPI   C4B 6128  12.325   6.836   8.187  0.3684  0.0406 -0.0726
  384loPI    C1 6129  16.689   1.302  11.189  0.1994 -0.0982  0.3261
  384loPI    C2 6130  16.836   1.542  11.473  0.0295  0.1489  0.2087
  384loPI    C3 6131  16.441   1.507  11.426  0.0554 -0.0103  0.1024
  384loPI   PO4 6132  16.721   1.355  10.969 -0.2194  0.2590  0.1999
  384loPI   GL1 6133  16.836   1.363  10.583 -0.3275  0.2169 -0.0614
  384loPI   GL2 6134  16.522   1.488  10.457 -0.1149 -0.1885  0.0710
  384loPI   C1A 6135  17.233   1.502  10.327  0.0735  0.0466 -0.0988
  384loPI   C2A 6136  17.404   1.548   9.911 -0.2586 -0.0891 -0.0631
  384loPI   C3A 6137  17.260   1.517   9.533  0.2362  0.0488  0.0397
  384loPI   C4A 6138  17.369   1.563   9.181  0.1550  0.3054  0.0229
  384loPI   C5A 6139  17.500   1.503   8.807  0.2039 -0.0295  0.0778
  384loPI   C6A 6140  17.562   1.356   8.455 -0.0506 -0.2934 -0.1518
  384loPI   C1B 6141  16.761   1.390  10.055  0.1052  0.6337 -0.0707
  384loPI   C2B 6142  16.717   1.479   9.578  0.1753  0.2442 -0.0913
  384loPI   C3B 6143  16.877   1.380   9.232 -0.3475  0.1256  0.3146
  384loPI   C4B 6144  16.963   1.372   8.790 -0.0224 -0.1805 -0.1708
  385loPI    C1 6145  14.978  15.648  11.075  0.0918  0.1338 -0.0376
  385loPI    C2 6146  14.587  15.644  11.158  0.0782 -0.0806 -0.1053
  385loPI    C3 6147  14.854  15.657  11.455  0.0199  0.1242 -0.0606
  385loPI   PO4 6148  15.046  15.857  10.918  0.3521  0.2153 -0.0677
  385loPI   GL1 6149  15.210  15.832  10.508  0.0219  0.0990  0.2151
  385loPI   GL2 6150  15.559  15.712  10.548  0.0846 -0.1800  0.0205
  385loPI   C1A 6151  15.236  15.844  10.033 -0.3012 -0.0807  0.2858
  385loPI   C2A 6152  15.309  15.950   9.593 -0.1257  0.3130 -0.0403
  385loPI   C3A 6153  15.450  16.144   9.146 -0.1722  0.0141  0.0712
  385loPI   C4A 6154  15.685  16.155   8.712 -0.0214  0.0392 -0.1167
  385loPI   C5A 6155  15.846  16.538   8.589  0.1849  0.1081  0.1319
  385loPI   C6A 6156  16.005  16.939   8.554  0.1968 -0.2948  0.2260
  385loPI   C1B 6157  15.595  15.998  10.279 -0.1446 -0.2319 -0.1010
  385loPI   C2B 6158  15.732  16.096   9.916  0.0326 -0.1797  0.2706
  385loPI   C3B 6159  15.816  16.017   9.549 -0.0905 -0.0482  0.1024
  385loPI   C4B 6160  15.950  16.151   9.123 -0.0561 -0.1661  0.0442
  386loPI    C1 6161   7.947   9.405   9.922 -0.2337 -0.1860 -0.1227
  386loPI    C2 6162   8.234   9.380  10.200 -0.1489  0.0708 -0.1849
  386loPI    C3 6163   7.975   9.079  10.153 -0.0359 -0.0628  0.0308
  386loPI   PO4 6164   8.081   9.558   9.727 -0.0582 -0.2031 -0.0923
  386loPI   GL1 6165   8.039   9.491   9.360 -0.1268 -0.0667  0.0106
  386loPI   GL2 6166   8.227   9.303   9.355  0.0946  0.1427 -0.2487
  386loPI   C1A 6167   7.990   9.625   9.078 -0.0211 -0.1077 -0.1060
  386loPI   C2A 6168   8.022   9.716   8.644  0.3227 -0.1346  0.2048
  386loPI   C3A 6169   7.909   9.773   8.262 -0.1652 -0.1973 -0.0284
  386loPI   C4A 6170   7.880   9.755   7.869  0.0350 -0.0288 -0.3356
  386loPI   C5A 6171   8.118   9.636   7.566  0.0743  0.3506 -0.1548
  386loPI   C6A 6172   8.480   9.570   7.368 -0.0263 -0.0379  0.0499
  386loPI   C1B 6173   8.356   9.339   8.969  0.0086  0.2719  0.1807
  386loPI   C2B 6174   8.330   9.313   8.512  0.0040  0.3518 -0.1938
  386loPI   C3B 6175   8.268   9.376   8.033  0.0284  0.2353 -0.2432
  386loPI   C4B 6176   8.661   9.417   7.747 -0.1008 -0.1214 -0.0602
  387loPI    C1 6177   9.462   4.312  10.709  0.2362  0.1152 -0.0331
  387loPI    C2 6178   9.359   4.688  10.797 -0.2400 -0.0658  0.2193
  387loPI    C3 6179   9.393   4.417  11.089 -0.0041 -0.2467  0.0282
  387loPI   PO4 6180   9.693   4.330  10.606 -0.0057  0.1142 -0.2563
  387loPI   GL1 6181   9.880   4.037  10.375 -0.2030 -0.0348 -0.0048
  387loPI   GL2 6182   9.852   3.732  10.216 -0.0564 -0.0325 -0.1173
  387loPI   C1A 6183   9.967   4.131   9.981 -0.0525  0.0794 -0.0623
  387loPI   C2A 6184   9.984   4.015   9.565  0.2226  0.0415 -0.0392
  387loPI   C3A 6185   9.930   4.015   9.185  0.0716  0.0806  0.2569
  387loPI   C4A 6186  10.016   4.080   8.728 -0.0857  0.1378 -0.1220
  387loPI   C5A 6187  10.305   4.047   8.382  0.0187  0.1058 -0.3228
  387loPI   C6A 6188  10.660   3.922   8.210 -0.2393  0.1177  0.1452
  387loPI   C1B 6189   9.792   3.598   9.803 -0.1659  0.3101  0.0963
  387loPI   C2B 6190   9.862   3.448   9.277  0.3983 -0.1779  0.0066
  387loPI   C3B 6191   9.899   3.554   8.838  0.1575  0.1217 -0.0030
  387loPI   C4B 6192   9.925   3.556   8.384 -0.0073  0.0580 -0.2754
  388loPI    C1 6193   5.675  17.956  11.348 -0.0383  0.1489  0.0451
  388loPI    C2 6194   5.984  17.869  11.586  0.0893 -0.3038 -0.2730
  388loPI    C3 6195   5.610  17.830  11.722  0.1602  0.2089  0.1016
  388loPI   PO4 6196   5.695  18.147  11.255 -0.0342 -0.0764 -0.0882
  388loPI   GL1 6197   5.760  18.300  10.847  0.0245 -0.1264 -0.0563
  388loPI   GL2 6198   6.077  18.454  10.738  0.1138  0.2601 -0.0190
  388loPI   C1A 6199   5.487  18.292  10.434 -0.1060 -0.1379  0.2321
  388loPI   C2A 6200   5.508  18.338  10.027 -0.1004 -0.0140  0.0633
  388loPI   C3A 6201   5.448  18.298   9.611  0.1387  0.0583 -0.2786
  388loPI   C4A 6202   5.505  18.273   9.139 -0.2449  0.0172 -0.0474
  388loPI   C5A 6203   5.453  18.414   8.754  0.0344  0.0275  0.0937
  388loPI   C6A 6204   5.757  18.608   8.457 -0.1801  0.0317  0.0927
  388loPI   C1B 6205   5.998  18.499  10.363  0.1748 -0.1509  0.0009
  388loPI   C2B 6206   5.964  18.401   9.867 -0.0848 -0.0408  0.0562
  388loPI   C3B 6207   5.937  18.426   9.388  0.0293 -0.0005  0.0076
  388loPI   C4B 6208   6.031  18.476   8.963  0.1733 -0.1629 -0.0340
  389loPI    C1 6209  14.163   2.755  11.107  0.0708  0.1504  0.2227
  389loPI    C2 6210  14.166   2.743  11.507  0.0503 -0.0134  0.2187
  389loPI    C3 6211  14.379   2.477  11.297 -0.1270 -0.0783  0.1189
  389loPI   PO4 6212  13.995   2.890  10.867  0.1833 -0.1017  0.2799
  389loPI   GL1 6213  13.888   2.758  10.477 -0.0858 -0.1495 -0.2171
  389loPI   GL2 6214  13.678   2.509  10.500 -0.1610  0.1981  0.2599
  389loPI   C1A 6215  14.255   2.823  10.208  0.1982  0.2254 -0.3523
  389loPI   C2A 6216  14.395   2.761   9.807  0.2630  0.3075  0.0719
  389loPI   C3A 6217  14.354   2.666   9.435 -0.0639  0.4784 -0.0746
  389loPI   C4A 6218  14.469   2.651   9.018 -0.2131 -0.1412  0.1580
  389loPI   C5A 6219  14.379   2.644   8.494 -0.0037  0.1945  0.0364
  389loPI   C6A 6220  14.191   2.668   8.085 -0.0475 -0.2812  0.0292
  389loPI   C1B 6221  13.830   2.665  10.016 -0.0909 -0.0317 -0.1629
  389loPI   C2B 6222  13.921   2.553   9.668 -0.1168  0.0128 -0.1385
  389loPI   C3B 6223  13.800   2.592   9.247 -0.0474  0.3281  0.1178
  389loPI   C4B 6224  13.941   2.619   8.752 -0.3812 -0.0622  0.0120
  390loPI    C1 6225   0.126  12.902  10.843  0.0367  0.0187  0.0384
  390loPI    C2 6226   0.350  12.851  11.170  0.0514  0.0187  0.0283
  390loPI    C3 6227   0.087  13.151  11.154  0.1823  0.1311 -0.0321
  390loPI   PO4 6228   0.273  12.975  10.680  0.0096 -0.1218  0.1023
  390loPI   GL1 6229   0.672  13.003  10.469 -0.1804 -0.2356 -0.1128
  390loPI   GL2 6230   0.870  12.733  10.295  0.0683  0.1214  0.0346
  390loPI   C1A 6231   0.490  13.029  10.091 -0.2946  0.0519 -0.0291
  390loPI   C2A 6232   0.524  13.059   9.724 -0.0342 -0.2770  0.0830
  390loPI   C3A 6233   0.485  13.069   9.244  0.2044  0.1054 -0.2759
  390loPI   C4A 6234   0.515  13.026   8.792  0.2939 -0.0603  0.1386
  390loPI   C5A 6235   0.445  12.956   8.326 -0.1274 -0.1617  0.1540
  390loPI   C6A 6236   0.427  12.886   7.889 -0.3477 -0.1474  0.2980
  390loPI   C1B 6237   0.929  12.658   9.850 -0.0387  0.0347 -0.2326
  390loPI   C2B 6238   0.925  12.697   9.426 -0.0279  0.1710  0.0772
  390loPI   C3B 6239   0.818  12.760   9.049  0.4102  0.1535  0.0074
  390loPI   C4B 6240   0.759  12.608   8.595 -0.0217 -0.1910  0.0379
  391loPI    C1 6241   0.214   0.464  10.841  0.2544  0.2130 -0.0236
  391loPI    C2 6242   0.235   0.276  11.194 -0.0290  0.1592 -0.0331
  391loPI    C3 6243   0.208   0.675  11.181  0.0743  0.1676  0.0026
  391loPI   PO4 6244   0.066   0.323  10.705  0.3276 -0.0701 -0.0175
  391loPI   GL1 6245  -0.021  -0.005  10.430 -0.1792  0.3121  0.0835
  391loPI   GL2 6246   0.067  -0.237  10.318 -0.1728  0.0510 -0.2026
  391loPI   C1A 6247   0.164   0.340  10.057  0.5068 -0.2468 -0.1093
  391loPI   C2A 6248   0.232   0.315   9.631  0.2353 -0.0740  0.0211
  391loPI   C3A 6249   0.354   0.343   9.261  0.3905  0.2519  0.0112
  391loPI   C4A 6250   0.348   0.331   8.863 -0.3194 -0.1179  0.2097
  391loPI   C5A 6251   0.323   0.376   8.434 -0.3245 -0.2124  0.1500
  391loPI   C6A 6252   0.279   0.189   8.018  0.0527  0.1060 -0.1304
  391loPI   C1B 6253   0.024  -0.136   9.902  0.2866  0.2326  0.3460
  391loPI   C2B 6254   0.131  -0.151   9.437 -0.0023  0.0865  0.0548
  391loPI   C3B 6255   0.192  -0.086   9.077  0.1004  0.1997  0.1824
  391loPI   C4B 6256   0.228  -0.161   8.627 -0.1215 -0.2614  0.1146
  392loPI    C1 6257  15.412   8.645  10.331 -0.0245 -0.1445 -0.0772
  392loPI    C2 6258  15.680   8.751  10.608 -0.3061  0.2088  0.0678
  392loPI    C3 6259  15.425   8.451  10.681 -0.2810  0.2026  0.1306
  392loPI   PO4 6260  15.568   8.592  10.157  0.0176 -0.2215  0.3962
  392loPI   GL1 6261  15.817   8.401   9.792  0.0539 -0.0424 -0.0401
  392loPI   GL2 6262  16.106   8.397   9.813 -0.1752 -0.2500 -0.0585
  392loPI   C1A 6263  15.639   8.254   9.391 -0.2459 -0.0846  0.0276
  392loPI   C2A 6264  15.705   8.071   9.065  0.0564  0.1492  0.2394
  392loPI   C3A 6265  15.667   8.007   8.669 -0.1156  0.2045 -0.0516
  392loPI   C4A 6266  15.702   8.141   8.228 -0.0190 -0.1757 -0.4137
  392loPI   C5A 6267  15.609   8.076   7.794  0.0413 -0.3450 -0.2303
  392loPI   C6A 6268  15.580   7.861   7.419 -0.2383 -0.0936 -0.1114
  392loPI   C1B 6269  16.133   8.309   9.345  0.0081  0.0897 -0.3506
  392loPI   C2B 6270  16.152   8.180   8.897 -0.2067  0.2579  0.0446
  392loPI   C3B 6271  16.138   8.169   8.474 -0.0703  0.1927  0.0819
  392loPI   C4B 6272  16.188   8.263   7.984  0.4218 -0.0366  0.0653
  393loPI    C1 6273   5.142  12.541  10.857 -0.0253  0.0173  0.1017
  393loPI    C2 6274   5.312  12.638  11.206 -0.2315  0.2093  0.1504
  393loPI    C3 6275   4.987  12.405  11.200 -0.0901  0.0123  0.0706
  393loPI   PO4 6276   5.136  12.816  10.755  0.1008 -0.0997  0.0571
  393loPI   GL1 6277   4.982  13.073  10.395  0.0014  0.1661 -0.0078
  393loPI   GL2 6278   5.168  13.301  10.177 -0.1213  0.1578  0.5033
  393loPI   C1A 6279   4.792  13.057   9.908 -0.1110  0.0317 -0.0415
  393loPI   C2A 6280   4.833  13.162   9.495  0.0490  0.1972 -0.0969
  393loPI   C3A 6281   4.757  13.007   9.002  0.2995 -0.0039 -0.1102
  393loPI   C4A 6282   4.646  13.158   8.653 -0.0744 -0.2054 -0.1658
  393loPI   C5A 6283   4.659  13.009   8.269 -0.1869 -0.0850 -0.0034
  393loPI   C6A 6284   4.295  12.869   8.031 -0.0549 -0.0875  0.1254
  393loPI   C1B 6285   5.246  13.247   9.788  0.0405 -0.2290  0.1748
  393loPI   C2B 6286   5.371  13.271   9.390 -0.4225  0.4299  0.1637
  393loPI   C3B 6287   5.223  13.201   9.046 -0.0526 -0.1253 -0.0036
  393loPI   C4B 6288   5.165  13.252   8.685 -0.1705  0.1264 -0.1918
  394loPI    C1 6289  15.897   8.234  10.386  0.1583 -0.2011 -0.1163
  394loPI    C2 6290  16.202   8.082  10.595  0.0815 -0.1138  0.0618
  394loPI    C3 6291  15.954   8.345  10.766  0.0270 -0.0285 -0.1454
  394loPI   PO4 6292  15.889   8.063  10.109 -0.2058  0.3105  0.2525
  394loPI   GL1 6293  15.921   7.957   9.683  0.0303  0.2671 -0.2531
  394loPI   GL2 6294  16.279   7.904   9.662  0.3256 -0.0627  0.0539
  394loPI   C1A 6295  15.967   7.690   9.261 -0.0165  0.0513  0.1518
  394loPI   C2A 6296  15.986   7.644   8.885  0.0445  0.0107  0.2093
  394loPI   C3A 6297  15.988   7.650   8.476 -0.2851  0.1622  0.2338
  394loPI   C4A 6298  16.003   7.811   8.029 -0.3582  0.1681 -0.4770
  394loPI   C5A 6299  16.007   7.889   7.622 -0.3385  0.4617  0.1522
  394loPI   C6A 6300  16.050   8.225   7.434 -0.2948 -0.2778  0.0381
  394loPI   C1B 6301  16.463   7.777   9.313  0.0573 -0.1182 -0.1641
  394loPI   C2B 6302  16.478   7.777   8.898 -0.1977  0.2636 -0.0503
  394loPI   C3B 6303  16.513   7.793   8.478  0.1273 -0.1504  0.1737
  394loPI   C4B 6304  16.536   7.826   8.038  0.1211 -0.0008  0.1451
  395loPI    C1 6305  15.932   3.513  10.928 -0.1907  0.0217 -0.1010
  395loPI    C2 6306  15.676   3.719  11.156  0.1078  0.2179  0.0630
  395loPI    C3 6307  16.061   3.689  11.263  0.1687 -0.0237 -0.2106
  395loPI   PO4 6308  15.961   3.665  10.631  0.2290  0.1723 -0.1561
  395loPI   GL1 6309  15.836   3.833  10.311  0.0425  0.1065 -0.0449
  395loPI   GL2 6310  16.058   3.841  10.118  0.4731 -0.0960 -0.1684
  395loPI   C1A 6311  15.621   3.992   9.869  0.0449  0.3757 -0.0943
  395loPI   C2A 6312  15.740   3.997   9.405  0.1506 -0.0694 -0.0840
  395loPI   C3A 6313  15.726   3.869   9.037 -0.0136  0.1736 -0.1874
  395loPI   C4A 6314  15.694   3.762   8.524 -0.0386  0.1499 -0.0474
  395loPI   C5A 6315  15.705   3.615   8.192  0.3270  0.0566 -0.3501
  395loPI   C6A 6316  15.778   3.412   7.753 -0.0080 -0.1488 -0.0398
  395loPI   C1B 6317  16.126   3.590   9.681 -0.1404 -0.1050 -0.0085
  395loPI   C2B 6318  16.049   3.523   9.298  0.1094 -0.0889 -0.0406
  395loPI   C3B 6319  16.101   3.487   8.819 -0.0703 -0.1481 -0.0755
  395loPI   C4B 6320  16.118   3.411   8.451 -0.0708  0.1627 -0.2274
  396loPI    C1 6321  10.834  18.121  10.791 -0.2603 -0.0461 -0.0974
  396loPI    C2 6322  10.738  18.155  11.178 -0.1043 -0.0701 -0.0560
  396loPI    C3 6323  10.785  18.483  10.954  0.0977 -0.0466  0.0189
  396loPI   PO4 6324  10.802  17.833  10.772 -0.1042  0.0253 -0.0187
  396loPI   GL1 6325  10.831  17.599  10.389  0.1959 -0.0118 -0.2875
  396loPI   GL2 6326  10.462  17.810  10.441 -0.0472  0.0074 -0.1156
  396loPI   C1A 6327  10.839  17.459  10.004 -0.0987  0.1030 -0.1981
  396loPI   C2A 6328  10.831  17.163   9.673 -0.0795  0.1074 -0.2227
  396loPI   C3A 6329  10.877  17.165   9.246 -0.1005  0.3121 -0.1925
  396loPI   C4A 6330  10.861  17.247   8.762  0.0217  0.0376  0.0415
  396loPI   C5A 6331  10.836  17.499   8.349 -0.1376  0.1772 -0.1708
  396loPI   C6A 6332  10.805  17.584   7.901  0.1869  0.3169 -0.2373
  396loPI   C1B 6333  10.438  17.816  10.030 -0.1102 -0.0678 -0.2329
  396loPI   C2B 6334  10.538  17.669   9.627 -0.3080  0.2529 -0.2185
  396loPI   C3B 6335  10.501  17.598   9.161 -0.0920  0.1476 -0.0841
  396loPI   C4B 6336  10.487  17.584   8.666  0.0009  0.0362  0.0626
  397loPI    C1 6337  13.037   8.569  10.302  0.1710  0.0556 -0.0998
  397loPI    C2 6338  12.720   8.400  10.127 -0.0407 -0.0895  0.4061
  397loPI    C3 6339  12.711   8.788  10.226  0.0181 -0.0459  0.2427
  397loPI   PO4 6340  13.259   8.547  10.070 -0.0507  0.0214 -0.0220
  397loPI   GL1 6341  13.587   8.487   9.702  0.1367 -0.1685  0.1536
  397loPI   GL2 6342  13.666   8.341   9.458  0.0893  0.1731  0.0062
  397loPI   C1A 6343  13.367   8.737   9.404 -0.0182  0.1556  0.2417
  397loPI   C2A 6344  13.296   8.854   8.930 -0.0698 -0.0834 -0.0990
  397loPI   C3A 6345  13.211   8.762   8.492 -0.0451  0.2175  0.1536
  397loPI   C4A 6346  13.018   8.391   8.272 -0.1970  0.2115  0.0605
  397loPI   C5A 6347  13.080   8.247   7.905 -0.0791  0.0151 -0.1332
  397loPI   C6A 6348  13.386   8.235   7.694  0.0590  0.1493  0.0946
  397loPI   C1B 6349  13.715   8.524   9.009 -0.1024 -0.0358  0.1158
  397loPI   C2B 6350  13.577   8.504   8.510 -0.1769 -0.0230 -0.0667
  397loPI   C3B 6351  13.487   8.610   8.065 -0.1079  0.2618  0.2902
  397loPI   C4B 6352  13.166   8.724   7.845  0.0719  0.1254  0.1234
  398loPI    C1 6353  11.878   5.610  10.577  0.3329  0.1199 -0.0100
  398loPI    C2 6354  11.762   5.687  10.952 -0.0764  0.1811 -0.1436
  398loPI    C3 6355  12.130   5.547  10.881  0.0065  0.1713  0.2780
  398loPI   PO4 6356  11.820   5.463  10.428  0.1639  0.0990  0.1456
  398loPI   GL1 6357  11.800   5.532   9.999  0.0388 -0.0190 -0.1547
  398loPI   GL2 6358  11.915   5.822  10.054  0.0123  0.1793  0.1444
  398loPI   C1A 6359  11.921   5.468   9.636 -0.0218  0.1272  0.1470
  398loPI   C2A 6360  11.768   5.382   9.316 -0.0762 -0.1339  0.0647
  398loPI   C3A 6361  11.832   5.306   8.844  0.0815  0.0445 -0.1440
  398loPI   C4A 6362  11.974   5.330   8.454  0.0504  0.3033  0.3591
  398loPI   C5A 6363  11.910   5.127   8.096  0.2110 -0.2820 -0.0390
  398loPI   C6A 6364  11.951   5.182   7.573  0.2683  0.0331  0.1816
  398loPI   C1B 6365  11.547   5.857   9.818 -0.2449  0.2629 -0.2123
  398loPI   C2B 6366  11.447   5.813   9.364  0.0563 -0.0997  0.0992
  398loPI   C3B 6367  11.487   5.703   8.933  0.0252 -0.1397 -0.1270
  398loPI   C4B 6368  11.655   5.718   8.575 -0.2567 -0.0172  0.0750
  399loPI    C1 6369   8.766   4.499  11.109 -0.0415  0.0318 -0.0747
  399loPI    C2 6370   9.056   4.746  11.230  0.1084 -0.1990  0.0452
  399loPI    C3 6371   8.963   4.424  11.448  0.0075 -0.3233 -0.1772
  399loPI   PO4 6372   8.859   4.498  10.836  0.1793 -0.0197 -0.2465
  399loPI   GL1 6373   9.053   4.514  10.410  0.0539  0.1005  0.1034
  399loPI   GL2 6374   9.469   4.613  10.270  0.0078 -0.0387 -0.2927
  399loPI   C1A 6375   9.119   4.461  10.013 -0.0282 -0.1228  0.1151
  399loPI   C2A 6376   9.064   4.276   9.611  0.0396  0.2736  0.0389
  399loPI   C3A 6377   9.108   4.220   9.146  0.0674  0.1655  0.1605
  399loPI   C4A 6378   9.160   4.316   8.771 -0.1398 -0.1638  0.0978
  399loPI   C5A 6379   9.155   4.339   8.374  0.4543  0.1996  0.1878
  399loPI   C6A 6380   9.342   4.127   8.031 -0.1461  0.0351 -0.1661
  399loPI   C1B 6381   9.634   4.468   9.902 -0.0677  0.3560 -0.0045
  399loPI   C2B 6382   9.534   4.321   9.403  0.0811 -0.3113 -0.0578
  399loPI   C3B 6383   9.596   4.349   8.958 -0.1214  0.2201 -0.1308
  399loPI   C4B 6384   9.667   4.384   8.574  0.0076 -0.0014 -0.1045
  400loPI    C1 6385  16.971   0.024  11.383  0.0308 -0.0241 -0.1724
  400loPI    C2 6386  16.849  -0.264  11.633  0.0570  0.2283  0.1384
  400loPI    C3 6387  16.633   0.070  11.592  0.1245  0.2472 -0.0760
  400loPI   PO4 6388  17.143  -0.086  11.171  0.0738 -0.2129  0.0023
  400loPI   GL1 6389  17.247  -0.049  10.710 -0.3717  0.1211  0.1212
  400loPI   GL2 6390  17.582   0.020  10.672  0.2931  0.0084  0.0855
  400loPI   C1A 6391  17.147  -0.284  10.366 -0.0412  0.1363 -0.0756
  400loPI   C2A 6392  17.236  -0.293   9.894  0.2338  0.0465 -0.3268
  400loPI   C3A 6393  17.347  -0.362   9.474 -0.1166 -0.0540 -0.0416
  400loPI   C4A 6394  17.349  -0.369   9.033 -0.0962 -0.1721  0.2019
  400loPI   C5A 6395  17.384  -0.300   8.578  0.1222 -0.0330  0.0812
  400loPI   C6A 6396  17.461  -0.166   8.119 -0.0895 -0.2395  0.0760
  400loPI   C1B 6397  17.421   0.058  10.252 -0.1823  0.0856  0.0722
  400loPI   C2B 6398  17.416   0.228   9.919 -0.1628 -0.1279  0.0415
  400loPI   C3B 6399  17.380   0.222   9.540  0.0077  0.0945  0.0269
  400loPI   C4B 6400  17.492   0.124   9.067 -0.6092  0.0501  0.3246
  401loPI    C1 6401  10.207   3.274  10.992  0.0159 -0.0929 -0.0440
  401loPI    C2 6402  10.601   3.214  10.966  0.0208 -0.0893  0.0183
  401loPI    C3 6403  10.440   3.342  11.310 -0.0298 -0.0531 -0.0187
  401loPI   PO4 6404  10.200   2.979  10.735  0.2842 -0.2109  0.3596
  401loPI   GL1 6405  10.145   2.653  10.346 -0.0002 -0.1999 -0.1426
  401loPI   GL2 6406  10.152   2.321  10.280  0.1749 -0.1512  0.1496
  401loPI   C1A 6407  10.020   2.757   9.900 -0.0309  0.0543 -0.2217
  401loPI   C2A 6408  10.008   2.671   9.509 -0.2729 -0.1626 -0.1327
  401loPI   C3A 6409  10.116   2.597   9.069 -0.2075 -0.0408 -0.2127
  401loPI   C4A 6410  10.131   2.613   8.681  0.2711 -0.1597 -0.2837
  401loPI   C5A 6411  10.328   2.479   8.354  0.0891 -0.0978 -0.1424
  401loPI   C6A 6412  10.080   2.402   7.999  0.1901  0.0208 -0.0864
  401loPI   C1B 6413  10.347   2.341   9.844 -0.0585  0.1672 -0.3272
  401loPI   C2B 6414  10.393   2.360   9.384 -0.1035  0.1447 -0.2945
  401loPI   C3B 6415  10.493   2.261   9.055  0.2022 -0.1122  0.0084
  401loPI   C4B 6416  10.441   2.127   8.637 -0.1012  0.1498 -0.4469
  402loPI    C1 6417   2.940  12.524  10.816  0.1219 -0.1294  0.0036
  402loPI    C2 6418   2.704  12.512  11.139  0.1009 -0.0643 -0.0091
  402loPI    C3 6419   2.957  12.211  11.064  0.1365 -0.0596  0.0911
  402loPI   PO4 6420   2.740  12.559  10.609  0.0600 -0.0891  0.1145
  402loPI   GL1 6421   2.675  12.432  10.131 -0.1372 -0.1288 -0.3577
  402loPI   GL2 6422   2.880  12.245  10.157  0.2894 -0.1132  0.0039
  402loPI   C1A 6423   2.699  12.611   9.712 -0.3155 -0.1539 -0.1782
  402loPI   C2A 6424   2.715  12.695   9.263 -0.0739  0.2232  0.1063
  402loPI   C3A 6425   2.651  12.635   8.827 -0.1763 -0.0450  0.0313
  402loPI   C4A 6426   2.715  12.742   8.333  0.1972  0.2969  0.1110
  402loPI   C5A 6427   2.822  12.844   7.909 -0.0580  0.0475 -0.2834
  402loPI   C6A 6428   2.725  13.151   7.525 -0.2375 -0.0800  0.0840
  402loPI   C1B 6429   3.014  12.101   9.750  0.1519  0.4754  0.4950
  402loPI   C2B 6430   3.030  12.295   9.365  0.3877  0.2554  0.1644
  402loPI   C3B 6431   2.967  12.357   9.038 -0.3815 -0.0359  0.0066
  402loPI   C4B 6432   3.080  12.353   8.609  0.0175  0.1308  0.1822
  403loPI    C1 6433  11.449  11.165  10.506 -0.0667  0.3659 -0.0622
  403loPI    C2 6434  11.210  10.966  10.255 -0.3302  0.6405 -0.0346
  403loPI    C3 6435  11.121  10.983  10.645  0.0488  0.2603  0.0758
  403loPI   PO4 6436  11.555  11.337  10.329 -0.0624  0.1752 -0.3431
  403loPI   GL1 6437  11.467  11.575  10.000  0.3870  0.0777  0.2500
  403loPI   GL2 6438  11.774  11.397   9.883  0.2883  0.0548  0.0854
  403loPI   C1A 6439  11.432  11.817   9.590 -0.1773  0.0586 -0.0791
  403loPI   C2A 6440  11.227  12.085   9.418  0.2392 -0.1087  0.3502
  403loPI   C3A 6441  11.379  12.136   9.017 -0.1838 -0.1878  0.0300
  403loPI   C4A 6442  11.395  12.161   8.668 -0.1666  0.2005  0.0649
  403loPI   C5A 6443  11.356  12.151   8.209  0.1193  0.1785  0.2488
  403loPI   C6A 6444  11.288  12.339   7.774  0.0408 -0.1559 -0.0845
  403loPI   C1B 6445  11.846  11.513   9.448 -0.3541  0.0395 -0.0520
  403loPI   C2B 6446  11.788  11.672   8.994  0.1067  0.0309  0.0466
  403loPI   C3B 6447  11.507  11.663   8.656  0.1121  0.2076 -0.0913
  403loPI   C4B 6448  11.673  11.770   8.195  0.2997  0.1037 -0.1106
  404loPI    C1 6449  12.746  13.692  11.186  0.0188  0.0352  0.1857
  404loPI    C2 6450  13.107  13.692  11.360  0.0939  0.0481  0.0311
  404loPI    C3 6451  12.780  13.766  11.578  0.1758 -0.0537  0.1899
  404loPI   PO4 6452  12.766  13.865  11.030  0.0857  0.2206  0.3230
  404loPI   GL1 6453  12.568  13.664  10.666 -0.2618  0.2700  0.2514
  404loPI   GL2 6454  12.847  13.462  10.561 -0.1667  0.2403  0.0323
  404loPI   C1A 6455  12.508  13.765  10.277  0.0557 -0.1325  0.0561
  404loPI   C2A 6456  12.698  13.839   9.952 -0.0217 -0.1115 -0.3431
  404loPI   C3A 6457  12.805  13.938   9.631  0.0381 -0.2986  0.1228
  404loPI   C4A 6458  12.773  13.910   9.190  0.0388 -0.0520  0.1663
  404loPI   C5A 6459  12.857  13.900   8.774 -0.1500  0.1710 -0.0091
  404loPI   C6A 6460  12.655  13.894   8.403  0.3043  0.0772  0.0093
  404loPI   C1B 6461  12.938  13.304  10.160  0.1815 -0.0236  0.3055
  404loPI   C2B 6462  13.122  13.344   9.774  0.0088 -0.0253  0.3279
  404loPI   C3B 6463  13.082  13.566   9.414 -0.0422 -0.4253  0.2684
  404loPI   C4B 6464  13.148  13.533   9.056 -0.0919  0.1373  0.1420
  405loPI    C1 6465  15.828   1.915  11.037  0.2103  0.0869 -0.1746
  405loPI    C2 6466  15.734   2.298  11.100  0.2778  0.0718  0.0263
  405loPI    C3 6467  15.830   2.063  11.409  0.0686 -0.1520 -0.0759
  405loPI   PO4 6468  15.620   1.933  10.821 -0.1031 -0.1107 -0.1441
  405loPI   GL1 6469  15.549   1.816  10.455  0.0071 -0.0747  0.1142
  405loPI   GL2 6470  15.304   1.686  10.293 -0.1175 -0.0435  0.0062
  405loPI   C1A 6471  15.638   2.061  10.046 -0.0419  0.3490 -0.3980
  405loPI   C2A 6472  15.525   2.134   9.648  0.1042  0.0685  0.1046
  405loPI   C3A 6473  15.580   2.099   9.186  0.2231  0.1000  0.0177
  405loPI   C4A 6474  15.594   1.872   8.732 -0.3984  0.0120  0.4325
  405loPI   C5A 6475  15.801   1.692   8.395 -0.0313  0.0031  0.5563
  405loPI   C6A 6476  15.863   1.838   7.964 -0.1838 -0.0072  0.2006
  405loPI   C1B 6477  15.350   1.599   9.960  0.0889  0.0552  0.0552
  405loPI   C2B 6478  15.403   1.606   9.505 -0.1660 -0.0778 -0.4073
  405loPI   C3B 6479  15.422   1.530   9.155 -0.1377  0.0020 -0.0993
  405loPI   C4B 6480  15.440   1.427   8.685  0.0026 -0.0104  0.1971
  406loPI    C1 6481   6.924  16.287  11.090  0.1371 -0.2540 -0.0372
  406loPI    C2 6482   6.741  16.377  11.434  0.0857  0.0443 -0.1394
  406loPI    C3 6483   7.049  16.121  11.432  0.1033  0.0601  0.1309
  406loPI   PO4 6484   6.817  16.366  10.936 -0.1464  0.3931 -0.1462
  406loPI   GL1 6485   6.664  16.627  10.664 -0.1957  0.2959  0.0679
  406loPI   GL2 6486   7.036  16.610  10.578 -0.0126 -0.1828 -0.0487
  406loPI   C1A 6487   6.470  16.672  10.253 -0.1849 -0.1560  0.1673
  406loPI   C2A 6488   6.473  16.649   9.850  0.0537  0.2988 -0.1347
  406loPI   C3A 6489   6.322  16.627   9.417  0.0153 -0.1710 -0.1826
  406loPI   C4A 6490   6.304  16.735   8.996 -0.1625  0.3199  0.0783
  406loPI   C5A 6491   6.292  16.777   8.517 -0.1218 -0.3271  0.1798
  406loPI   C6A 6492   6.273  16.928   8.072  0.0394  0.2104  0.3818
  406loPI   C1B 6493   7.040  16.763  10.222  0.0943 -0.3286 -0.1808
  406loPI   C2B 6494   6.944  16.671   9.765 -0.0724 -0.0499 -0.1660
  406loPI   C3B 6495   6.913  16.875   9.372  0.0184 -0.3330  0.1522
  406loPI   C4B 6496   6.819  16.912   8.946  0.0550 -0.0071 -0.2043
  407loPI    C1 6497  10.136   5.383  10.783  0.0008  0.0732  0.0642
  407loPI    C2 6498  10.507   5.522  10.729  0.0332 -0.1131 -0.2153
  407loPI    C3 6499  10.432   5.263  11.024  0.1465 -0.1515 -0.2197
  407loPI   PO4 6500  10.084   5.299  10.456  0.0731  0.1395  0.0662
  407loPI   GL1 6501  10.197   5.125  10.049 -0.3029  0.1014  0.1663
  407loPI   GL2 6502  10.041   5.415   9.985 -0.0882  0.2480  0.2589
  407loPI   C1A 6503  10.261   5.131   9.579 -0.2949  0.1858  0.1233
  407loPI   C2A 6504  10.249   4.990   9.162  0.1622 -0.0562  0.0589
  407loPI   C3A 6505  10.297   4.973   8.821  0.0155 -0.0352 -0.1297
  407loPI   C4A 6506  10.406   5.020   8.399 -0.0699  0.3157  0.0856
  407loPI   C5A 6507  10.399   4.662   8.212 -0.0127  0.1424  0.4071
  407loPI   C6A 6508  10.169   4.354   7.925  0.1082  0.0195  0.2176
  407loPI   C1B 6509  10.334   5.668   9.737  0.1287  0.0839  0.0767
  407loPI   C2B 6510  10.457   5.553   9.337 -0.2406 -0.3302  0.1735
  407loPI   C3B 6511  10.391   5.552   8.856 -0.0939 -0.0450 -0.2099
  407loPI   C4B 6512  10.541   5.554   8.526 -0.3480 -0.0414 -0.2123
  408loPI    C1 6513  11.456  12.257  10.592 -0.1138  0.1770  0.0711
  408loPI    C2 6514  11.652  12.376  10.921  0.2986  0.1042 -0.1411
  408loPI    C3 6515  11.635  11.987  10.827 -0.1711  0.0823  0.0066
  408loPI   PO4 6516  11.431  12.467  10.419  0.1267 -0.1259  0.0297
  408loPI   GL1 6517  11.240  12.709  10.138  0.2185 -0.0537 -0.2026
  408loPI   GL2 6518  11.046  12.910   9.942 -0.1755  0.0911 -0.1481
  408loPI   C1A 6519  11.485  12.962   9.763 -0.1419  0.0456 -0.2461
  408loPI   C2A 6520  11.634  13.054   9.336 -0.1445  0.0791 -0.0187
  408loPI   C3A 6521  11.472  13.041   8.916  0.1814 -0.0821 -0.0364
  408loPI   C4A 6522  11.635  12.899   8.495  0.0720  0.0109  0.1240
  408loPI   C5A 6523  11.684  12.480   8.336  0.0701 -0.0307  0.1034
  408loPI   C6A 6524  11.799  12.225   8.055 -0.4327 -0.0892  0.0504
  408loPI   C1B 6525  10.958  12.946   9.448  0.3020  0.1093  0.0568
  408loPI   C2B 6526  10.958  13.181   9.029 -0.0567 -0.0486  0.1972
  408loPI   C3B 6527  10.657  13.124   8.644 -0.0677 -0.0223  0.2904
  408loPI   C4B 6528  10.675  12.860   8.350  0.2747  0.0021  0.2074
  409loPI    C1 6529   6.196   8.699   9.868  0.0987  0.1659  0.0733
  409loPI    C2 6530   6.508   8.634  10.110  0.1952  0.1680 -0.0495
  409loPI    C3 6531   6.136   8.631  10.257  0.2424  0.0043  0.0682
  409loPI   PO4 6532   6.254   8.898   9.744  0.1886 -0.1277  0.4123
  409loPI   GL1 6533   6.431   9.108   9.323 -0.2366  0.0372  0.0479
  409loPI   GL2 6534   6.591   9.361   9.199 -0.0632  0.0613  0.0144
  409loPI   C1A 6535   6.205   9.093   9.039 -0.1720  0.3073  0.0552
  409loPI   C2A 6536   5.955   9.080   8.711  0.0828 -0.1158  0.0797
  409loPI   C3A 6537   5.805   9.131   8.282  0.0031  0.3952 -0.0404
  409loPI   C4A 6538   5.678   9.271   7.821  0.3039  0.1028 -0.0326
  409loPI   C5A 6539   5.839   9.042   7.513  0.1197 -0.4068 -0.0892
  409loPI   C6A 6540   5.786   8.842   7.046 -0.0105 -0.0218 -0.1409
  409loPI   C1B 6541   6.557   9.384   8.730  0.1554 -0.1323 -0.2164
  409loPI   C2B 6542   6.327   9.213   8.410  0.0650 -0.0471  0.2492
  409loPI   C3B 6543   6.280   9.328   8.068 -0.2860 -0.0299  0.2830
  409loPI   C4B 6544   6.163   9.318   7.674 -0.1071  0.0123  0.2076
  410loPI    C1 6545   4.753   0.050  11.316  0.0274  0.1704 -0.1683
  410loPI    C2 6546   4.893   0.360  11.526 -0.0693 -0.0262  0.1957
  410loPI    C3 6547   4.506   0.345  11.426 -0.1025 -0.1126  0.3343
  410loPI   PO4 6548   4.815   0.085  11.068 -0.0267  0.1401 -0.3245
  410loPI   GL1 6549   5.087  -0.149  10.719 -0.1267  0.4097  0.1158
  410loPI   GL2 6550   5.005  -0.466  10.580 -0.1465  0.1333  0.2722
  410loPI   C1A 6551   5.025   0.098  10.374 -0.1263  0.0448  0.0559
  410loPI   C2A 6552   5.011   0.062   9.966 -0.0130 -0.0031  0.0596
  410loPI   C3A 6553   4.986   0.009   9.463  0.0138 -0.3648 -0.0808
  410loPI   C4A 6554   5.002   0.104   9.159  0.0820  0.2835 -0.0085
  410loPI   C5A 6555   4.973   0.183   8.733 -0.0164  0.0108  0.1221
  410loPI   C6A 6556   4.595  -0.027   8.655 -0.1344 -0.0067 -0.4306
  410loPI   C1B 6557   5.204  -0.360  10.165  0.2006  0.2031  0.1405
  410loPI   C2B 6558   5.358  -0.382   9.657  0.2658 -0.3084 -0.2733
  410loPI   C3B 6559   5.239  -0.332   9.294 -0.2381  0.2023  0.1077
  410loPI   C4B 6560   5.377  -0.304   8.870 -0.2813  0.0689 -0.0897
  411loPI    C1 6561  13.075   4.061  11.216  0.2375  0.1184 -0.1927
  411loPI    C2 6562  13.223   3.810  11.490 -0.1928  0.0103 -0.0505
  411loPI    C3 6563  13.196   4.201  11.570 -0.2717 -0.0140  0.0425
  411loPI   PO4 6564  13.092   4.046  10.959  0.0570 -0.0665  0.0241
  411loPI   GL1 6565  13.196   4.009  10.484  0.3178  0.1179  0.2018
  411loPI   GL2 6566  13.411   3.931  10.212 -0.3186 -0.2457  0.0941
  411loPI   C1A 6567  12.927   4.177  10.126 -0.0374  0.1365 -0.1262
  411loPI   C2A 6568  12.899   4.350   9.736  0.0568  0.4541 -0.2599
  411loPI   C3A 6569  12.993   4.327   9.352 -0.2623 -0.0107  0.1640
  411loPI   C4A 6570  12.996   4.252   8.842 -0.2115 -0.3053 -0.4024
  411loPI   C5A 6571  13.020   4.199   8.430  0.4253 -0.4119 -0.0421
  411loPI   C6A 6572  13.190   4.315   7.927  0.4670 -0.0174  0.0735
  411loPI   C1B 6573  13.288   3.937   9.736 -0.1764  0.2818 -0.1939
  411loPI   C2B 6574  13.327   3.957   9.358 -0.0353  0.1039  0.1672
  411loPI   C3B 6575  13.387   3.838   8.949 -0.3035 -0.3649  0.0700
  411loPI   C4B 6576  13.320   3.835   8.470  0.2343 -0.0880  0.0438
  412loPI    C1 6577   9.617   3.829  10.837 -0.0855 -0.0974  0.0577
  412loPI    C2 6578   9.999   3.946  10.863 -0.0805 -0.0847 -0.0657
  412loPI    C3 6579   9.739   4.045  11.150 -0.1174  0.3857 -0.2529
  412loPI   PO4 6580   9.520   3.859  10.621  0.1449  0.1333 -0.2396
  412loPI   GL1 6581   9.386   4.078  10.270  0.1173  0.0804 -0.1156
  412loPI   GL2 6582   9.140   3.790  10.266  0.0455 -0.2588  0.0657
  412loPI   C1A 6583   9.393   3.945   9.814 -0.1367 -0.2575 -0.1847
  412loPI   C2A 6584   9.510   3.836   9.346  0.3211 -0.0037 -0.2556
  412loPI   C3A 6585   9.410   3.923   8.887 -0.1423 -0.3077 -0.0967
  412loPI   C4A 6586   9.538   3.891   8.553  0.0010  0.0850 -0.0775
  412loPI   C5A 6587   9.801   4.108   8.232  0.0186 -0.1106 -0.0548
  412loPI   C6A 6588   9.763   4.460   8.061  0.2700  0.0534  0.0188
  412loPI   C1B 6589   8.916   3.838   9.856 -0.1295  0.0120 -0.2024
  412loPI   C2B 6590   8.995   3.754   9.433 -0.0150  0.4756 -0.1628
  412loPI   C3B 6591   8.936   3.778   8.951  0.1701 -0.1141 -0.0291
  412loPI   C4B 6592   9.022   3.854   8.588  0.1185  0.2578 -0.1462
  413loPI    C1 6593   7.202  13.562  10.516  0.1002  0.1900  0.2990
  413loPI    C2 6594   7.497  13.497  10.778  0.2969  0.4293  0.1413
  413loPI    C3 6595   7.136  13.612  10.907  0.2501  0.0731  0.3400
  413loPI   PO4 6596   7.268  13.429  10.340 -0.0344 -0.0673  0.0176
  413loPI   GL1 6597   7.501  13.572   9.998 -0.0282 -0.1082  0.1562
  413loPI   GL2 6598   7.364  13.803  10.020  0.0392 -0.0884 -0.0789
  413loPI   C1A 6599   7.443  13.692   9.520 -0.0117 -0.3181 -0.2267
  413loPI   C2A 6600   7.353  13.712   9.120 -0.2576 -0.1548  0.0398
  413loPI   C3A 6601   7.336  13.770   8.677  0.2704  0.2614  0.0201
  413loPI   C4A 6602   7.268  13.843   8.183  0.0504  0.2160 -0.2631
  413loPI   C5A 6603   7.399  13.593   7.932 -0.3207 -0.0586  0.0989
  413loPI   C6A 6604   7.882  13.403   7.832  0.1699  0.0864  0.0112
  413loPI   C1B 6605   7.062  13.904   9.784 -0.0916 -0.1408 -0.0060
  413loPI   C2B 6606   7.016  14.020   9.346  0.0934 -0.1923  0.0872
  413loPI   C3B 6607   6.998  14.102   8.993 -0.1909 -0.0281 -0.2785
  413loPI   C4B 6608   6.998  14.202   8.612 -0.2266  0.0382  0.0430
  414loPI    C1 6609  10.462   6.273  10.490 -0.0670 -0.0277  0.3218
  414loPI    C2 6610  10.642   6.032  10.754 -0.1824  0.0894  0.5097
  414loPI    C3 6611  10.354   6.282  10.875 -0.2209  0.1609  0.2758
  414loPI   PO4 6612  10.625   6.441  10.393  0.0064 -0.2979  0.2505
  414loPI   GL1 6613  10.626   6.583  10.025 -0.0458  0.2306  0.3880
  414loPI   GL2 6614  10.823   6.832   9.864  0.2464  0.1771 -0.0716
  414loPI   C1A 6615  10.503   6.549   9.559 -0.1346 -0.1466  0.3684
  414loPI   C2A 6616  10.477   6.485   9.118  0.0216  0.3394  0.0175
  414loPI   C3A 6617  10.427   6.480   8.688  0.3372 -0.1594  0.3919
  414loPI   C4A 6618  10.295   6.394   8.247  0.0929  0.0813 -0.0315
  414loPI   C5A 6619  10.079   6.160   7.958 -0.1007 -0.0042 -0.0905
  414loPI   C6A 6620   9.973   5.721   7.902  0.0342 -0.3992 -0.3371
  414loPI   C1B 6621  10.890   6.932   9.520 -0.0984 -0.3809  0.1706
  414loPI   C2B 6622  10.882   6.790   9.162  0.1571  0.0571  0.1906
  414loPI   C3B 6623  10.893   6.679   8.710 -0.4144  0.1546 -0.2162
  414loPI   C4B 6624  10.642   6.812   8.357 -0.0879 -0.0485  0.1060
  415loPI    C1 6625   0.757  17.662  10.988 -0.0201  0.1680 -0.2455
  415loPI    C2 6626   0.899  17.317  10.843  0.1987  0.1158  0.0811
  415loPI    C3 6627   0.953  17.409  11.229  0.0620  0.4755  0.0186
  415loPI   PO4 6628   0.819  17.869  10.783  0.1965  0.0071  0.0067
  415loPI   GL1 6629   0.887  18.016  10.371 -0.1702  0.2115 -0.0395
  415loPI   GL2 6630   1.162  18.129  10.225  0.1156  0.2216  0.0939
  415loPI   C1A 6631   1.065  17.762   9.966  0.1662  0.0912 -0.2940
  415loPI   C2A 6632   0.982  17.874   9.586  0.0308  0.0932 -0.2201
  415loPI   C3A 6633   1.021  17.864   9.148  0.0932  0.0918  0.1153
  415loPI   C4A 6634   1.093  17.759   8.703 -0.1853 -0.0966  0.0308
  415loPI   C5A 6635   1.030  17.864   8.214  0.1045 -0.0436  0.1769
  415loPI   C6A 6636   1.063  17.884   7.801 -0.0378 -0.2808 -0.1910
  415loPI   C1B 6637   1.072  18.357   9.815  0.2049  0.2191 -0.2761
  415loPI   C2B 6638   1.113  18.354   9.467  0.1130  0.0953  0.1266
  415loPI   C3B 6639   1.257  18.298   9.094 -0.0974 -0.1634  0.0810
  415loPI   C4B 6640   1.413  18.267   8.582  0.0433 -0.1056 -0.0342
  416loPI    C1 6641   4.224   8.773  10.130  0.0567  0.3097 -0.2491
  416loPI    C2 6642   4.575   8.888  10.284  0.0228  0.0108  0.0611
  416loPI    C3 6643   4.235   9.051  10.417  0.0143 -0.0245  0.0827
  416loPI   PO4 6644   4.110   8.780   9.898  0.1247 -0.3037  0.2066
  416loPI   GL1 6645   4.409   8.692   9.597  0.3397 -0.2525  0.0950
  416loPI   GL2 6646   4.553   8.942   9.661 -0.1090  0.0569  0.0200
  416loPI   C1A 6647   4.384   8.708   9.208  0.2852  0.0163 -0.2140
  416loPI   C2A 6648   4.400   8.748   8.762  0.2278 -0.3653 -0.1895
  416loPI   C3A 6649   4.349   8.849   8.340 -0.0941 -0.0467 -0.0807
  416loPI   C4A 6650   4.371   8.897   7.962 -0.2932 -0.2134 -0.0210
  416loPI   C5A 6651   4.412   8.713   7.597 -0.1942 -0.0466  0.1239
  416loPI   C6A 6652   4.342   8.435   7.296 -0.0022 -0.2554  0.1104
  416loPI   C1B 6653   4.881   8.922   9.399 -0.0943 -0.2882  0.0079
  416loPI   C2B 6654   4.872   8.847   8.966 -0.1457 -0.0297 -0.0762
  416loPI   C3B 6655   4.855   8.871   8.558  0.0470 -0.0014  0.0986
  416loPI   C4B 6656   4.853   8.925   8.123  0.1039 -0.0352 -0.0628
  417loPI    C1 6657   1.545  10.638  10.482 -0.3772  0.1020 -0.1608
  417loPI    C2 6658   1.881  10.602  10.696 -0.2095  0.1487 -0.4107
  417loPI    C3 6659   1.575  10.816  10.839 -0.1956 -0.0259 -0.1105
  417loPI   PO4 6660   1.631  10.762  10.281  0.3821 -0.0196 -0.2766
  417loPI   GL1 6661   1.639  10.724   9.959 -0.0731 -0.0209 -0.0781
  417loPI   GL2 6662   1.948  10.874   9.824  0.0584 -0.1307  0.0053
  417loPI   C1A 6663   1.372  10.712   9.705 -0.3694  0.2878 -0.1327
  417loPI   C2A 6664   1.270  10.797   9.359  0.0648  0.1086  0.1275
  417loPI   C3A 6665   1.183  10.862   8.949  0.1705  0.0515 -0.1596
  417loPI   C4A 6666   1.088  10.919   8.525 -0.1962  0.1890 -0.2104
  417loPI   C5A 6667   1.058  10.730   8.077  0.1143  0.1340  0.0203
  417loPI   C6A 6668   0.962  10.240   7.927  0.2874 -0.2531  0.0373
  417loPI   C1B 6669   1.786  10.897   9.423 -0.1922 -0.1391  0.0755
  417loPI   C2B 6670   1.652  10.960   9.074 -0.0429  0.0008 -0.3318
  417loPI   C3B 6671   1.584  11.002   8.657 -0.0669 -0.2101  0.1139
  417loPI   C4B 6672   1.586  11.036   8.310  0.0201 -0.2303 -0.0054
  418loPI    C1 6673  16.316   0.536  11.080 -0.0915 -0.2309  0.1055
  418loPI    C2 6674  16.481   0.863  11.242  0.0250 -0.1001 -0.2665
  418loPI    C3 6675  16.321   0.582  11.477  0.1230  0.1177  0.0672
  418loPI   PO4 6676  16.450   0.568  10.824  0.2487 -0.0717 -0.2428
  418loPI   GL1 6677  16.546   0.574  10.403  0.2113  0.1125  0.2835
  418loPI   GL2 6678  16.691   0.915  10.354  0.1786  0.1984 -0.1103
  418loPI   C1A 6679  16.564   0.488  10.027  0.1626  0.0002  0.0078
  418loPI   C2A 6680  16.627   0.398   9.729  0.0406 -0.1379  0.1587
  418loPI   C3A 6681  16.612   0.371   9.357 -0.1616  0.0567  0.0435
  418loPI   C4A 6682  16.644   0.406   8.942  0.0972 -0.0961  0.0810
  418loPI   C5A 6683  16.680   0.512   8.556  0.0845 -0.1447  0.0403
  418loPI   C6A 6684  16.585   0.766   8.256  0.1603  0.0079  0.1521
  418loPI   C1B 6685  16.573   0.929   9.916  0.0770 -0.1692 -0.5224
  418loPI   C2B 6686  16.632   0.932   9.578 -0.1441 -0.1930 -0.1174
  418loPI   C3B 6687  16.663   0.847   9.258  0.0811 -0.2464  0.4838
  418loPI   C4B 6688  16.835   0.912   8.869  0.2341  0.0294 -0.0815
  419loPI    C1 6689  14.839  12.647  10.883 -0.1120 -0.2177 -0.0359
  419loPI    C2 6690  14.797  12.332  11.126  0.1972 -0.1158  0.1572
  419loPI    C3 6691  14.826  12.700  11.280  0.1357 -0.0221 -0.0511
  419loPI   PO4 6692  14.971  12.617  10.712  0.1471  0.0511 -0.0788
  419loPI   GL1 6693  15.205  12.446  10.421 -0.1185  0.1451 -0.1365
  419loPI   GL2 6694  15.196  12.713  10.219  0.1519  0.0346 -0.5221
  419loPI   C1A 6695  15.450  12.296  10.045  0.1140  0.1437  0.0888
  419loPI   C2A 6696  15.589  12.340   9.673 -0.1535 -0.4686 -0.1889
  419loPI   C3A 6697  15.595  12.418   9.159 -0.1100  0.3316 -0.1630
  419loPI   C4A 6698  15.549  12.252   8.763 -0.0992 -0.1560 -0.0582
  419loPI   C5A 6699  15.626  12.166   8.382  0.0322 -0.2172  0.2541
  419loPI   C6A 6700  15.509  11.862   8.128 -0.2056 -0.1027  0.1689
  419loPI   C1B 6701  15.183  12.652   9.815 -0.1266 -0.0656  0.2082
  419loPI   C2B 6702  15.194  12.612   9.368 -0.1154  0.0934 -0.0525
  419loPI   C3B 6703  15.200  12.624   8.910 -0.1932  0.1602 -0.2814
  419loPI   C4B 6704  15.414  12.702   8.532 -0.4454  0.0301 -0.1860
  420loPI    C1 6705  14.263   5.199  10.490 -0.0194 -0.0140 -0.0729
  420loPI    C2 6706  14.423   5.118  10.847  0.0762  0.1917 -0.0676
  420loPI    C3 6707  14.044   5.241  10.822  0.0154  0.0093 -0.0529
  420loPI   PO4 6708  14.479   5.384  10.440 -0.1010 -0.3601  0.0039
  420loPI   GL1 6709  14.511   5.709  10.130  0.2551 -0.1026 -0.2806
  420loPI   GL2 6710  14.761   5.789   9.887 -0.1809  0.0322  0.0218
  420loPI   C1A 6711  14.133   5.631   9.792  0.0907  0.0441 -0.1548
  420loPI   C2A 6712  14.247   5.539   9.317  0.1176 -0.0681 -0.1452
  420loPI   C3A 6713  14.313   5.408   8.976 -0.3196  0.1887 -0.0219
  420loPI   C4A 6714  14.304   5.400   8.521  0.1064 -0.0139  0.1645
  420loPI   C5A 6715  14.363   5.301   8.112 -0.5037  0.3159 -0.1805
  420loPI   C6A 6716  14.522   5.202   7.732 -0.2169 -0.4334  0.0887
  420loPI   C1B 6717  14.680   5.690   9.546 -0.0146 -0.1248 -0.1909
  420loPI   C2B 6718  14.790   5.619   9.152  0.1065 -0.0321  0.1300
  420loPI   C3B 6719  14.799   5.574   8.701  0.2030 -0.0981 -0.0628
  420loPI   C4B 6720  14.879   5.402   8.182  0.0441  0.0617  0.2087
  421loPI    C1 6721   0.719   3.596  10.903  0.2996  0.1446 -0.1876
  421loPI    C2 6722   0.993   3.526  11.187  0.0677  0.0086  0.0069
  421loPI    C3 6723   0.668   3.743  11.272  0.0217  0.0111 -0.1709
  421loPI   PO4 6724   0.797   3.681  10.692 -0.4418 -0.1721  0.2020
  421loPI   GL1 6725   0.874   3.754  10.249  0.1610  0.1060  0.5005
  421loPI   GL2 6726   1.190   3.786  10.273 -0.1380  0.0426  0.0495
  421loPI   C1A 6727   0.906   3.763   9.799  0.0910  0.2001 -0.1465
  421loPI   C2A 6728   0.885   3.713   9.320  0.1938  0.0466 -0.0289
  421loPI   C3A 6729   0.854   3.711   8.805 -0.0785 -0.0458  0.0001
  421loPI   C4A 6730   0.784   3.780   8.387  0.3942  0.0708 -0.1583
  421loPI   C5A 6731   0.545   3.672   7.941 -0.0411 -0.0946 -0.0751
  421loPI   C6A 6732   0.311   3.657   7.519  0.4358  0.0829 -0.1557
  421loPI   C1B 6733   1.434   3.875   9.927  0.0470 -0.4546 -0.2003
  421loPI   C2B 6734   1.383   3.837   9.506  0.0094 -0.1022  0.2197
  421loPI   C3B 6735   1.388   3.913   9.083  0.0085 -0.2082 -0.0262
  421loPI   C4B 6736   1.437   3.905   8.657  0.3900  0.2447 -0.0720
  422loPI    C1 6737  16.108  17.039  10.891 -0.1307  0.0598  0.1421
  422loPI    C2 6738  16.077  16.668  11.037 -0.2953  0.0311  0.0362
  422loPI    C3 6739  15.939  16.978  11.248  0.1805  0.0752  0.2955
  422loPI   PO4 6740  16.347  17.131  10.804  0.1220  0.2920 -0.1208
  422loPI   GL1 6741  16.519  16.991  10.510  0.0096 -0.2974  0.3531
  422loPI   GL2 6742  16.499  16.673  10.387 -0.0340 -0.0389  0.0137
  422loPI   C1A 6743  16.630  17.209  10.204  0.0273 -0.1830  0.1207
  422loPI   C2A 6744  16.617  17.270   9.796 -0.1188  0.0481 -0.1519
  422loPI   C3A 6745  16.645  17.097   9.424 -0.1257  0.1266  0.3290
  422loPI   C4A 6746  16.698  17.242   9.009 -0.0946 -0.2117  0.0040
  422loPI   C5A 6747  16.580  17.440   8.671 -0.1944  0.1639  0.0802
  422loPI   C6A 6748  16.161  17.446   8.459  0.0754  0.1136 -0.1645
  422loPI   C1B 6749  16.517  16.744   9.931  0.1586 -0.1622  0.1577
  422loPI   C2B 6750  16.540  16.620   9.614 -0.1414 -0.1669  0.2574
  422loPI   C3B 6751  16.503  16.712   9.191 -0.2762 -0.3496 -0.1434
  422loPI   C4B 6752  16.343  16.717   8.775 -0.4507 -0.0339 -0.0462
  423loPI    C1 6753  14.708   2.745  11.027 -0.1210 -0.1746 -0.0398
  423loPI    C2 6754  14.837   2.745  11.406  0.1176  0.0800 -0.1176
  423loPI    C3 6755  14.554   3.003  11.292 -0.0148 -0.0536 -0.0950
  423loPI   PO4 6756  14.842   2.675  10.933  0.0917  0.1916 -0.2100
  423loPI   GL1 6757  14.964   2.590  10.535 -0.1528  0.0434 -0.1344
  423loPI   GL2 6758  14.700   2.843  10.497 -0.3216 -0.1197  0.2145
  423loPI   C1A 6759  14.632   2.441  10.188  0.2074  0.1931  0.1142
  423loPI   C2A 6760  14.619   2.343   9.769  0.0032 -0.0629 -0.0336
  423loPI   C3A 6761  14.708   2.334   9.346  0.0040 -0.1022  0.1758
  423loPI   C4A 6762  14.754   2.266   8.952  0.0769 -0.3854  0.1095
  423loPI   C5A 6763  14.818   2.173   8.476 -0.2606  0.0519  0.0932
  423loPI   C6A 6764  15.192   2.269   8.421  0.1769 -0.2005  0.2224
  423loPI   C1B 6765  14.810   2.891   9.990  0.0471 -0.3457 -0.2278
  423loPI   C2B 6766  14.849   2.832   9.517  0.1069  0.2205 -0.0492
  423loPI   C3B 6767  14.917   2.803   9.043  0.1304  0.0193 -0.0321
  423loPI   C4B 6768  14.886   2.642   8.625 -0.1437  0.0334 -0.3172
  424loPI    C1 6769   3.349   3.718  11.002  0.0356 -0.0339  0.0740
  424loPI    C2 6770   3.128   4.005  11.172  0.0567  0.0463 -0.0323
  424loPI    C3 6771   3.299   3.723  11.398  0.0226  0.1084  0.0713
  424loPI   PO4 6772   3.207   3.500  10.813 -0.1279 -0.1428 -0.2449
  424loPI   GL1 6773   3.085   3.314  10.374 -0.2164 -0.0285 -0.0923
  424loPI   GL2 6774   3.312   3.171  10.435  0.0478  0.1817 -0.0365
  424loPI   C1A 6775   3.137   3.399   9.963  0.0643 -0.0348  0.0679
  424loPI   C2A 6776   3.046   3.330   9.610 -0.2879  0.0096  0.1471
  424loPI   C3A 6777   3.048   3.272   9.234  0.1680 -0.0834  0.0408
  424loPI   C4A 6778   3.115   3.206   8.825  0.1075 -0.3889 -0.0399
  424loPI   C5A 6779   3.276   3.181   8.443 -0.0289  0.2796  0.0725
  424loPI   C6A 6780   3.622   3.298   8.236 -0.2074  0.2058  0.0245
  424loPI   C1B 6781   3.461   3.047  10.005 -0.0503  0.1464 -0.1641
  424loPI   C2B 6782   3.443   2.978   9.559 -0.0722  0.1252  0.3887
  424loPI   C3B 6783   3.541   2.966   9.065 -0.2046  0.0294 -0.2554
  424loPI   C4B 6784   3.538   2.807   8.639 -0.1128 -0.1928 -0.0705
  425loPI    C1 6785   6.914  17.300  10.885 -0.0028 -0.2396  0.1389
  425loPI    C2 6786   6.782  17.396  11.250  0.0842  0.0568  0.0953
  425loPI    C3 6787   7.175  17.378  11.178  0.0699  0.3137 -0.0598
  425loPI   PO4 6788   6.673  17.162  10.751  0.0884 -0.0057 -0.1707
  425loPI   GL1 6789   6.388  17.115  10.459 -0.0623 -0.2309  0.0574
  425loPI   GL2 6790   5.995  17.176  10.418  0.0246  0.0961 -0.2754
  425loPI   C1A 6791   6.495  17.150   9.986 -0.0752 -0.0567 -0.1463
  425loPI   C2A 6792   6.614  17.128   9.672 -0.1325 -0.2115  0.2138
  425loPI   C3A 6793   6.515  17.105   9.301  0.2422 -0.1741  0.3405
  425loPI   C4A 6794   6.499  17.325   9.021  0.0440  0.2424 -0.0582
  425loPI   C5A 6795   6.589  17.246   8.646  0.1665 -0.0295  0.4151
  425loPI   C6A 6796   6.752  16.966   8.419 -0.1374 -0.1475 -0.2371
  425loPI   C1B 6797   6.058  17.077  10.012  0.1408  0.3458 -0.0213
  425loPI   C2B 6798   6.066  17.001   9.587 -0.0804  0.1668 -0.0179
  425loPI   C3B 6799   6.059  17.183   9.131  0.0805 -0.0709 -0.3933
  425loPI   C4B 6800   5.938  17.086   8.653 -0.2265 -0.0611 -0.1565
  426loPI    C1 6801   3.199   9.300  10.458 -0.1178 -0.1235 -0.2205
  426loPI    C2 6802   2.976   9.020  10.635  0.1028 -0.0993  0.1053
  426loPI    C3 6803   3.237   9.233  10.850  0.1461  0.1574 -0.1938
  426loPI   PO4 6804   3.251   9.230  10.256  0.1452  0.0006  0.0635
  426loPI   GL1 6805   3.259   9.285   9.833  0.0749 -0.1385  0.0995
  426loPI   GL2 6806   3.210   8.963   9.743  0.2813  0.1763 -0.0280
  426loPI   C1A 6807   3.119   9.387   9.468  0.0733 -0.1003 -0.0490
  426loPI   C2A 6808   3.241   9.438   9.118 -0.2229  0.2078  0.0220
  426loPI   C3A 6809   3.269   9.512   8.710  0.0262 -0.1011 -0.1746
  426loPI   C4A 6810   3.188   9.559   8.288  0.0928  0.1680  0.0573
  426loPI   C5A 6811   3.108   9.473   8.009  0.3104  0.1406  0.2094
  426loPI   C6A 6812   3.058   9.319   7.658  0.0457 -0.0718  0.0689
  426loPI   C1B 6813   3.030   8.934   9.335 -0.3608  0.1237 -0.0222
  426loPI   C2B 6814   3.009   8.776   8.951  0.1249 -0.0018  0.1752
  426loPI   C3B 6815   2.977   8.805   8.490  0.1673  0.2698  0.2967
  426loPI   C4B 6816   3.007   8.963   8.057 -0.1826  0.0098 -0.1158
  427loPI    C1 6817   8.649   6.668  10.316  0.0730  0.0846 -0.1087
  427loPI    C2 6818   8.466   6.856  10.618  0.0673  0.1600 -0.1588
  427loPI    C3 6819   8.815   6.671  10.680 -0.0201  0.0247 -0.0655
  427loPI   PO4 6820   8.698   6.896  10.103 -0.0699 -0.1448  0.0982
  427loPI   GL1 6821   8.794   6.971   9.668  0.0767  0.0165  0.0001
  427loPI   GL2 6822   9.088   6.962   9.687  0.1482  0.1535  0.2798
  427loPI   C1A 6823   8.763   6.783   9.308  0.1090 -0.1695  0.1232
  427loPI   C2A 6824   8.793   6.709   8.822  0.2124  0.2177  0.2019
  427loPI   C3A 6825   9.030   6.589   8.505 -0.2327  0.2432  0.1483
  427loPI   C4A 6826   9.156   6.727   8.065  0.3199  0.0730 -0.0175
  427loPI   C5A 6827   9.507   6.799   7.684  0.1750  0.0321 -0.0992
  427loPI   C6A 6828   9.559   6.690   7.326 -0.0558 -0.2298 -0.0488
  427loPI   C1B 6829   9.229   7.083   9.441  0.1358 -0.1139  0.2174
  427loPI   C2B 6830   9.189   6.958   9.080  0.2824  0.0229  0.1268
  427loPI   C3B 6831   9.262   7.046   8.698 -0.3099  0.0799  0.0569
  427loPI   C4B 6832   9.310   7.109   8.325 -0.0304  0.1335 -0.3984
  428loPI    C1 6833  16.331  13.333  11.042 -0.1273  0.0614 -0.1747
  428loPI    C2 6834  16.023  13.154  11.224 -0.1226  0.2760  0.0492
  428loPI    C3 6835  16.393  13.115  11.371 -0.1054  0.3729  0.0323
  428loPI   PO4 6836  16.331  13.330  10.862 -0.0631 -0.0165  0.0823
  428loPI   GL1 6837  16.460  13.481  10.462 -0.1207  0.0332  0.2319
  428loPI   GL2 6838  16.342  13.124  10.347 -0.0449 -0.1934  0.2283
  428loPI   C1A 6839  16.471  13.446  10.034 -0.1393 -0.0136 -0.1065
  428loPI   C2A 6840  16.424  13.340   9.608  0.0162 -0.1207  0.1825
  428loPI   C3A 6841  16.508  13.422   9.245  0.3106  0.0014 -0.3725
  428loPI   C4A 6842  16.494  13.539   8.900 -0.0745  0.2528 -0.1561
  428loPI   C5A 6843  16.337  13.851   8.656  0.1279 -0.1415 -0.0582
  428loPI   C6A 6844  15.912  14.053   8.544 -0.0256 -0.0432  0.4032
  428loPI   C1B 6845  15.924  13.233  10.087 -0.1543 -0.0190  0.1291
  428loPI   C2B 6846  15.932  13.273   9.660 -0.1618  0.1172 -0.1878
  428loPI   C3B 6847  15.957  13.319   9.135 -0.1808  0.0148  0.2586
  428loPI   C4B 6848  15.952  13.449   8.699  0.1411 -0.2873 -0.0402
  429loPI    C1 6849   0.226   3.482  10.689  0.0482 -0.0071 -0.0944
  429loPI    C2 6850  -0.140   3.643  10.683 -0.0478 -0.2240 -0.1369
  429loPI    C3 6851  -0.064   3.327  10.917  0.1810 -0.0223  0.0666
  429loPI   PO4 6852   0.384   3.472  10.389 -0.1872  0.0422  0.2789
  429loPI   GL1 6853   0.303   3.288  10.062 -0.3155  0.0017  0.1578
  429loPI   GL2 6854   0.695   3.326   9.991 -0.1126 -0.0420  0.0038
  429loPI   C1A 6855   0.256   3.135   9.619  0.3044  0.4169  0.0413
  429loPI   C2A 6856   0.155   3.012   9.211 -0.1505 -0.1193 -0.3606
  429loPI   C3A 6857   0.212   3.066   8.750 -0.1766 -0.1470  0.1375
  429loPI   C4A 6858   0.124   2.835   8.405 -0.1575 -0.4307 -0.1189
  429loPI   C5A 6859  -0.074   2.715   7.979 -0.0518 -0.2320  0.1639
  429loPI   C6A 6860   0.175   2.848   7.633 -0.3781 -0.2337 -0.0013
  429loPI   C1B 6861   0.793   3.187   9.674 -0.1284  0.1143 -0.2532
  429loPI   C2B 6862   0.761   3.167   9.299  0.2553 -0.0734 -0.0972
  429loPI   C3B 6863   0.808   3.264   9.020 -0.2527  0.1019  0.0532
  429loPI   C4B 6864   0.715   3.174   8.669 -0.1624 -0.2414 -0.1496
  430loPI    C1 6865   5.806  15.757  11.298 -0.0473  0.0340  0.0146
  430loPI    C2 6866   5.776  15.499  11.603  0.0455  0.0608  0.0466
  430loPI    C3 6867   5.926  15.865  11.664 -0.0673  0.1158 -0.0030
  430loPI   PO4 6868   5.830  15.556  11.083  0.1524 -0.2931 -0.0289
  430loPI   GL1 6869   5.730  15.683  10.749  0.1196 -0.3102 -0.1580
  430loPI   GL2 6870   5.805  16.035  10.744  0.3402  0.0360 -0.0973
  430loPI   C1A 6871   5.615  15.617  10.257 -0.3397  0.2958 -0.0927
  430loPI   C2A 6872   5.535  15.474   9.837  0.0570  0.1429  0.3587
  430loPI   C3A 6873   5.563  15.512   9.458 -0.0571 -0.1914  0.3313
  430loPI   C4A 6874   5.531  15.525   9.067 -0.3284 -0.1660  0.0932
  430loPI   C5A 6875   5.500  15.640   8.614  0.0233 -0.1319 -0.2418
  430loPI   C6A 6876   5.532  15.604   8.222  0.0567  0.1165 -0.3014
  430loPI   C1B 6877   5.834  16.079  10.247 -0.0078  0.0788 -0.0044
  430loPI   C2B 6878   5.690  16.004   9.840  0.2187  0.1895 -0.1160
  430loPI   C3B 6879   5.657  16.029   9.395 -0.0462 -0.0546 -0.0282
  430loPI   C4B 6880   5.675  16.018   8.920 -0.0676 -0.0187  0.2031
  431loPI    C1 6881   6.683  13.530  10.665  0.0413  0.0495  0.2977
  431loPI    C2 6882   6.769  13.313  10.989 -0.1478 -0.1623  0.2085
  431loPI    C3 6883   6.447  13.550  10.987  0.0361  0.0931  0.2913
  431loPI   PO4 6884   6.720  13.437  10.453 -0.1067  0.0985  0.1804
  431loPI   GL1 6885   6.444  13.429  10.055 -0.0239  0.1436  0.1100
  431loPI   GL2 6886   6.474  13.758  10.061  0.2978 -0.1604  0.1535
  431loPI   C1A 6887   6.332  13.354   9.726  0.0072 -0.0250 -0.0427
  431loPI   C2A 6888   6.235  13.389   9.267  0.0320  0.0892 -0.1473
  431loPI   C3A 6889   6.334  13.493   8.842  0.4777 -0.1647  0.0262
  431loPI   C4A 6890   6.383  13.577   8.383 -0.0315 -0.2809  0.0653
  431loPI   C5A 6891   6.750  13.820   8.061 -0.1775  0.1415 -0.2048
  431loPI   C6A 6892   6.887  14.215   8.075 -0.1811  0.2461  0.0977
  431loPI   C1B 6893   6.429  13.958   9.626 -0.1173  0.1353  0.2545
  431loPI   C2B 6894   6.433  13.933   9.218 -0.0959  0.0488 -0.4164
  431loPI   C3B 6895   6.494  14.073   8.789  0.1250  0.0348  0.1143
  431loPI   C4B 6896   6.458  14.068   8.419  0.2183 -0.0433 -0.1833
  432loPI    C1 6897   6.355   0.778  11.178  0.0272 -0.0822 -0.0812
  432loPI    C2 6898   6.119   0.733  11.497 -0.0627 -0.0244 -0.1395
  432loPI    C3 6899   6.115   1.076  11.291  0.0108 -0.0537 -0.1902
  432loPI   PO4 6900   6.316   0.591  10.997  0.0735 -0.0342 -0.1564
  432loPI   GL1 6901   6.548   0.435  10.576  0.1121  0.2275 -0.1174
  432loPI   GL2 6902   6.931   0.474  10.488  0.1764  0.1884  0.0660
  432loPI   C1A 6903   6.462   0.382  10.143 -0.3219 -0.2315 -0.0897
  432loPI   C2A 6904   6.473   0.248   9.748 -0.2720 -0.0992 -0.0520
  432loPI   C3A 6905   6.497   0.376   9.341 -0.0222 -0.1148 -0.0242
  432loPI   C4A 6906   6.525   0.459   8.870  0.1648  0.0194  0.1283
  432loPI   C5A 6907   6.362   0.250   8.505  0.0317  0.0844  0.1281
  432loPI   C6A 6908   6.175   0.242   8.045  0.0415 -0.2148 -0.2018
  432loPI   C1B 6909   6.913   0.426  10.009 -0.0607 -0.1337 -0.0365
  432loPI   C2B 6910   7.094   0.492   9.686 -0.1139 -0.0623 -0.0110
  432loPI   C3B 6911   7.073   0.448   9.157  0.0965 -0.3844 -0.2511
  432loPI   C4B 6912   7.044   0.600   8.728 -0.0897 -0.1877  0.2158
  433loPI    C1 6913  15.340   0.519  11.172 -0.0238  0.0300 -0.1809
  433loPI    C2 6914  15.040   0.261  11.234 -0.1602  0.2564  0.1272
  433loPI    C3 6915  15.331   0.300  11.506 -0.0258  0.2749 -0.0177
  433loPI   PO4 6916  15.419   0.471  10.863 -0.0477  0.1926 -0.0227
  433loPI   GL1 6917  15.533   0.610  10.490 -0.1567 -0.0712 -0.2166
  433loPI   GL2 6918  15.625   0.892  10.584 -0.1850  0.2775  0.1873
  433loPI   C1A 6919  15.561   0.704  10.056 -0.1380  0.3247 -0.0785
  433loPI   C2A 6920  15.595   0.617   9.687 -0.0254 -0.0750  0.0210
  433loPI   C3A 6921  15.715   0.588   9.330 -0.0580 -0.0143 -0.0926
  433loPI   C4A 6922  15.743   0.633   8.888 -0.1903  0.1944  0.0015
  433loPI   C5A 6923  15.857   0.829   8.488  0.2650 -0.2877 -0.1298
  433loPI   C6A 6924  15.680   1.176   8.314  0.2570 -0.0940  0.1815
  433loPI   C1B 6925  15.762   1.096  10.172 -0.0296 -0.4026 -0.0294
  433loPI   C2B 6926  15.715   1.286   9.776 -0.1781  0.0879 -0.0192
  433loPI   C3B 6927  15.791   1.185   9.398  0.0881 -0.0141 -0.0962
  433loPI   C4B 6928  15.847   1.141   8.952 -0.2287  0.0599 -0.0683
  434loPI    C1 6929   1.739  16.839  11.257 -0.0169  0.0276 -0.0165
  434loPI    C2 6930   1.630  16.455  11.283  0.2681 -0.0529  0.0246
  434loPI    C3 6931   1.557  16.704  11.587 -0.3947  0.0569 -0.2076
  434loPI   PO4 6932   1.723  16.903  10.961  0.0311 -0.0817  0.0799
  434loPI   GL1 6933   1.854  16.611  10.685  0.1000  0.2183  0.1753
  434loPI   GL2 6934   2.032  16.811  10.455  0.1280  0.1894 -0.1800
  434loPI   C1A 6935   1.557  16.523  10.357 -0.2247  0.0168 -0.0492
  434loPI   C2A 6936   1.564  16.513   9.954 -0.1217  0.1119  0.2119
  434loPI   C3A 6937   1.488  16.526   9.537  0.0303 -0.2755 -0.2867
  434loPI   C4A 6938   1.598  16.583   9.114 -0.4186 -0.1087  0.0453
  434loPI   C5A 6939   1.686  16.478   8.707 -0.4889  0.0448  0.2109
  434loPI   C6A 6940   1.425  16.479   8.288 -0.2588  0.0528  0.1105
  434loPI   C1B 6941   2.054  16.598  10.123 -0.0963  0.2590 -0.2038
  434loPI   C2B 6942   2.047  16.584   9.639  0.2380 -0.4399 -0.1685
  434loPI   C3B 6943   2.102  16.658   9.222  0.3864 -0.0064 -0.3354
  434loPI   C4B 6944   2.192  16.513   8.808 -0.0561 -0.3230 -0.0936
  435loPI    C1 6945  11.192   6.970  10.239 -0.1049 -0.2441 -0.0190
  435loPI    C2 6946  10.831   6.896  10.395 -0.2262 -0.0184 -0.1870
  435loPI    C3 6947  11.119   6.619  10.418 -0.4785 -0.2925 -0.2545
  435loPI   PO4 6948  11.184   7.185  10.075 -0.0224 -0.1289  0.0310
  435loPI   GL1 6949  11.531   7.201   9.828  0.2722  0.3357 -0.1902
  435loPI   GL2 6950  11.757   6.935   9.713  0.1220  0.0395  0.1636
  435loPI   C1A 6951  11.294   7.198   9.347  0.2658 -0.0899  0.0943
  435loPI   C2A 6952  11.422   7.098   9.000 -0.1036 -0.3446 -0.1910
  435loPI   C3A 6953  11.621   7.157   8.485 -0.0037  0.1387 -0.0772
  435loPI   C4A 6954  11.834   7.054   8.124 -0.1510  0.2227  0.0327
  435loPI   C5A 6955  12.177   7.135   7.836  0.0558 -0.2390 -0.1132
  435loPI   C6A 6956  12.298   7.519   7.563  0.1472  0.0423 -0.0874
  435loPI   C1B 6957  11.797   6.819   9.255  0.0178 -0.0161  0.2025
  435loPI   C2B 6958  11.851   6.683   8.855  0.0195 -0.1050  0.0199
  435loPI   C3B 6959  11.907   6.629   8.411 -0.2487  0.2550  0.1440
  435loPI   C4B 6960  11.979   6.571   7.940 -0.2125 -0.2614  0.2415
  436loPI    C1 6961  10.520   3.868  11.133  0.0042 -0.0969 -0.1883
  436loPI    C2 6962  10.231   4.076  11.316 -0.0371 -0.3651  0.0593
  436loPI    C3 6963  10.483   3.853  11.531  0.3462 -0.1504 -0.1560
  436loPI   PO4 6964  10.442   3.717  10.959 -0.0848  0.2597 -0.0318
  436loPI   GL1 6965  10.339   3.526  10.527 -0.2113  0.2074 -0.1141
  436loPI   GL2 6966  10.664   3.429  10.454  0.0627  0.0237 -0.0841
  436loPI   C1A 6967  10.180   3.318  10.181  0.2709  0.1666 -0.0733
  436loPI   C2A 6968  10.157   3.203   9.711  0.0676  0.0506  0.0539
  436loPI   C3A 6969  10.183   3.093   9.316 -0.0333  0.0740  0.0998
  436loPI   C4A 6970  10.197   3.132   8.992  0.4754 -0.4403 -0.0879
  436loPI   C5A 6971  10.306   3.125   8.475 -0.0004 -0.1162  0.1057
  436loPI   C6A 6972  10.359   3.367   8.108 -0.0620 -0.1369  0.0662
  436loPI   C1B 6973  10.689   3.358  10.040 -0.1774 -0.0075 -0.2134
  436loPI   C2B 6974  10.621   3.300   9.582 -0.2651 -0.5758 -0.0198
  436loPI   C3B 6975  10.806   3.286   9.126  0.1091  0.2488  0.1710
  436loPI   C4B 6976  10.661   3.201   8.816 -0.0584  0.0196  0.0850
  437loPI    C1 6977   9.821   8.826   9.887 -0.0332  0.2170  0.0395
  437loPI    C2 6978  10.008   8.888  10.235  0.0781 -0.0909  0.0381
  437loPI    C3 6979   9.728   8.604  10.206  0.1900 -0.1831 -0.1645
  437loPI   PO4 6980   9.729   9.125   9.751  0.1071 -0.1809 -0.2636
  437loPI   GL1 6981   9.515   9.391   9.404  0.1569  0.1439  0.0183
  437loPI   GL2 6982   9.284   9.561   9.428  0.2978 -0.1650 -0.2507
  437loPI   C1A 6983   9.377   9.151   9.064 -0.1036 -0.0102 -0.1459
  437loPI   C2A 6984   9.351   8.942   8.699 -0.2304 -0.2574  0.0278
  437loPI   C3A 6985   9.401   8.938   8.292  0.1182  0.0818  0.2065
  437loPI   C4A 6986   9.328   8.751   7.931  0.1108  0.0978 -0.2712
  437loPI   C5A 6987   9.086   8.689   7.656  0.1469 -0.2649  0.1085
  437loPI   C6A 6988   8.894   8.300   7.532 -0.2424 -0.2594 -0.0843
  437loPI   C1B 6989   9.415   9.626   8.991 -0.2659  0.2795 -0.0567
  437loPI   C2B 6990   9.463   9.415   8.561  0.0493 -0.2168  0.2008
  437loPI   C3B 6991   9.682   9.301   8.158 -0.1192  0.1350  0.2595
  437loPI   C4B 6992   9.769   9.155   7.705  0.2193  0.0901 -0.0937
  438loPI    C1 6993   7.233  15.468  10.752  0.0698 -0.0855  0.0599
  438loPI    C2 6994   7.109  15.185  11.006  0.0967  0.0127  0.1836
  438loPI    C3 6995   7.454  15.376  11.073  0.1803 -0.0677 -0.0106
  438loPI   PO4 6996   7.141  15.457  10.575 -0.0196  0.1744  0.0463
  438loPI   GL1 6997   6.859  15.493  10.133 -0.0388  0.2535 -0.0668
  438loPI   GL2 6998   6.572  15.628  10.192  0.1124  0.1354 -0.0281
  438loPI   C1A 6999   7.054  15.230   9.822 -0.2636 -0.0023  0.2040
  438loPI   C2A 7000   7.049  15.274   9.425 -0.1301 -0.2679 -0.0130
  438loPI   C3A 7001   7.016  15.480   8.976  0.2078 -0.2976 -0.0165
  438loPI   C4A 7002   6.914  15.586   8.560  0.1765  0.0908 -0.3017
  438loPI   C5A 7003   6.944  15.716   8.097  0.0286 -0.0598  0.1988
  438loPI   C6A 7004   7.123  15.971   7.829 -0.2243 -0.0126 -0.4103
  438loPI   C1B 7005   6.529  15.776   9.743 -0.0644 -0.1298 -0.1579
  438loPI   C2B 7006   6.553  15.856   9.270  0.0502  0.2401  0.0123
  438loPI   C3B 7007   6.595  15.804   8.898  0.2438 -0.6339  0.2310
  438loPI   C4B 7008   6.575  15.932   8.391 -0.1077  0.3741  0.1448
  439loPI    C1 7009   7.329   7.519  10.105 -0.0409  0.1177 -0.1173
  439loPI    C2 7010   7.543   7.381  10.413 -0.4172  0.0223  0.1079
  439loPI    C3 7011   7.496   7.775  10.362  0.1565  0.0635 -0.1895
  439loPI   PO4 7012   7.422   7.464   9.880  0.3512  0.0631 -0.1656
  439loPI   GL1 7013   7.368   7.541   9.477 -0.1476  0.1370  0.1157
  439loPI   GL2 7014   7.179   7.375   9.326  0.3261  0.1599  0.1133
  439loPI   C1A 7015   7.228   7.827   9.180 -0.0485 -0.1059  0.1384
  439loPI   C2A 7016   7.110   7.926   8.710  0.0441 -0.0939 -0.0474
  439loPI   C3A 7017   7.199   7.835   8.230 -0.0611  0.0548  0.0139
  439loPI   C4A 7018   7.558   7.891   7.965  0.0720  0.0955 -0.0031
  439loPI   C5A 7019   7.759   7.781   7.716 -0.3172  0.2450  0.0385
  439loPI   C6A 7020   7.847   7.511   7.332 -0.1397 -0.2652 -0.2941
  439loPI   C1B 7021   7.201   7.369   8.845  0.0828  0.3093 -0.0166
  439loPI   C2B 7022   7.097   7.418   8.402  0.0520  0.0994 -0.1306
  439loPI   C3B 7023   7.327   7.309   7.893  0.2844 -0.3426  0.0445
  439loPI   C4B 7024   7.329   7.586   7.529 -0.2287 -0.1170  0.0057
  440loPI    C1 7025   3.539   3.022  10.877  0.0266  0.0036  0.1095
  440loPI    C2 7026   3.403   2.689  10.702  0.1377 -0.0078  0.0437
  440loPI    C3 7027   3.155   2.919  10.915  0.0786 -0.1758  0.1578
  440loPI   PO4 7028   3.826   2.888  10.817 -0.0617 -0.2558 -0.0521
  440loPI   GL1 7029   3.755   2.794  10.341  0.1301 -0.1990 -0.1447
  440loPI   GL2 7030   3.946   2.977  10.220  0.0779  0.0253 -0.0799
  440loPI   C1A 7031   3.792   2.566   9.937  0.2817 -0.1001 -0.1836
  440loPI   C2A 7032   3.842   2.671   9.522  0.3237  0.1309  0.2051
  440loPI   C3A 7033   3.869   2.560   9.117 -0.1525  0.1907 -0.2590
  440loPI   C4A 7034   3.900   2.508   8.634  0.3002  0.2568 -0.3127
  440loPI   C5A 7035   3.771   2.114   8.309 -0.0236 -0.0178  0.1388
  440loPI   C6A 7036   3.571   1.788   8.042  0.0841 -0.0050 -0.3873
  440loPI   C1B 7037   3.945   3.107   9.837  0.0232  0.0529 -0.1013
  440loPI   C2B 7038   3.996   3.080   9.377 -0.1101 -0.3353  0.0973
  440loPI   C3B 7039   4.013   3.006   8.945 -0.0113  0.0462  0.2441
  440loPI   C4B 7040   3.967   3.002   8.511  0.2193  0.0589  0.0146
  441loPI    C1 7041  13.232  16.264  11.333 -0.1365  0.1399  0.0817
  441loPI    C2 7042  13.380  15.916  11.463  0.0018  0.1022 -0.1695
  441loPI    C3 7043  13.226  16.178  11.724 -0.1383 -0.1613  0.0172
  441loPI   PO4 7044  13.272  16.222  11.041  0.1175 -0.2790  0.1070
  441loPI   GL1 7045  13.074  16.032  10.716 -0.0565  0.0708 -0.1227
  441loPI   GL2 7046  13.253  15.720  10.576  0.0250  0.2780 -0.2014
  441loPI   C1A 7047  12.923  16.225  10.380 -0.0869  0.0995  0.2011
  441loPI   C2A 7048  12.903  16.322   9.945 -0.2002  0.1672 -0.0058
  441loPI   C3A 7049  12.964  16.249   9.432  0.0798 -0.1163  0.0339
  441loPI   C4A 7050  13.036  16.350   9.006  0.0376 -0.4274 -0.1232
  441loPI   C5A 7051  12.942  16.176   8.668  0.2435  0.0758  0.1567
  441loPI   C6A 7052  12.836  16.064   8.233  0.3129 -0.2771 -0.2589
  441loPI   C1B 7053  13.190  15.846  10.185  0.0181 -0.1329  0.2333
  441loPI   C2B 7054  13.393  15.815   9.765 -0.0963  0.1169  0.2138
  441loPI   C3B 7055  13.410  15.931   9.413 -0.1764 -0.1186  0.1899
  441loPI   C4B 7056  13.431  16.007   9.014  0.1585  0.0572  0.1707
  442loPI    C1 7057  16.606   8.800  10.167  0.3647  0.1665 -0.0314
  442loPI    C2 7058  16.479   9.025  10.472 -0.0630 -0.0908 -0.0105
  442loPI    C3 7059  16.858   8.896  10.462  0.0124  0.0956  0.3007
  442loPI   PO4 7060  16.433   8.818   9.979  0.4248 -0.2818  0.0190
  442loPI   GL1 7061  16.096   8.892   9.697 -0.3684 -0.1353 -0.3640
  442loPI   GL2 7062  16.024   9.240   9.610  0.1423  0.2291 -0.4406
  442loPI   C1A 7063  16.022   8.789   9.309 -0.0393 -0.3049 -0.0820
  442loPI   C2A 7064  15.878   8.583   8.970  0.1752 -0.0997  0.1999
  442loPI   C3A 7065  15.779   8.668   8.630 -0.0329  0.0625  0.1183
  442loPI   C4A 7066  15.808   8.633   8.139 -0.1423 -0.2449 -0.2587
  442loPI   C5A 7067  15.672   8.623   7.798 -0.1027 -0.3278 -0.0054
  442loPI   C6A 7068  15.276   8.806   7.630 -0.0103  0.1089 -0.0513
  442loPI   C1B 7069  15.997   9.280   9.193  0.0590 -0.3370 -0.2740
  442loPI   C2B 7070  15.889   9.193   8.781  0.1643 -0.3695  0.0421
  442loPI   C3B 7071  15.975   9.070   8.328 -0.0688  0.0122  0.3908
  442loPI   C4B 7072  15.965   9.076   7.903 -0.1218  0.3177  0.0453
  443loPI    C1 7073   5.817   7.424  10.351 -0.1341 -0.0568 -0.0099
  443loPI    C2 7074   5.877   7.122  10.608 -0.2322  0.0842  0.1811
  443loPI    C3 7075   6.104   7.451  10.628 -0.0330 -0.0312 -0.1165
  443loPI   PO4 7076   5.822   7.281  10.123 -0.0130  0.2220 -0.1293
  443loPI   GL1 7077   5.642   7.359   9.721 -0.0561  0.1617  0.1481
  443loPI   GL2 7078   5.931   7.515   9.690  0.1271 -0.0302  0.2965
  443loPI   C1A 7079   5.797   7.215   9.331 -0.2393  0.0424  0.1449
  443loPI   C2A 7080   5.764   7.220   8.847 -0.1058  0.0174  0.1158
  443loPI   C3A 7081   5.842   7.156   8.531 -0.0408 -0.3409 -0.0340
  443loPI   C4A 7082   5.720   7.181   8.193 -0.1481 -0.0268  0.0514
  443loPI   C5A 7083   5.477   7.245   7.817  0.1487 -0.0205 -0.4668
  443loPI   C6A 7084   5.422   7.191   7.379  0.0582  0.1678  0.0003
  443loPI   C1B 7085   5.903   7.767   9.277  0.1883  0.0336  0.0750
  443loPI   C2B 7086   5.883   7.687   8.842  0.1463 -0.1942  0.0605
  443loPI   C3B 7087   5.971   7.754   8.432 -0.0004 -0.1251 -0.1085
  443loPI   C4B 7088   5.975   7.665   7.970 -0.2235 -0.0060  0.1598
  444loPI    C1 7089   2.504   6.796  10.678  0.0804  0.1734  0.0135
  444loPI    C2 7090   2.113   6.854  10.735  0.0351  0.0019 -0.1121
  444loPI    C3 7091   2.304   6.567  10.938  0.0785  0.0308 -0.1119
  444loPI   PO4 7092   2.462   6.837  10.397 -0.2915 -0.2504 -0.1487
  444loPI   GL1 7093   2.436   7.005  10.010 -0.0606 -0.0889 -0.1532
  444loPI   GL2 7094   2.821   7.031   9.935  0.0984  0.1588  0.0887
  444loPI   C1A 7095   2.324   6.900   9.608 -0.0497 -0.3118 -0.2763
  444loPI   C2A 7096   2.324   6.865   9.131 -0.0168 -0.0143 -0.0349
  444loPI   C3A 7097   2.272   6.897   8.716  0.2058 -0.0127  0.0877
  444loPI   C4A 7098   2.325   6.774   8.287 -0.1929  0.0342  0.0002
  444loPI   C5A 7099   2.611   6.873   7.938 -0.1652 -0.0150 -0.0303
  444loPI   C6A 7100   2.908   6.756   7.617  0.1171 -0.0020 -0.1795
  444loPI   C1B 7101   2.830   6.956   9.558 -0.2471  0.4028 -0.2363
  444loPI   C2B 7102   2.821   6.997   9.147 -0.0169  0.1013 -0.3427
  444loPI   C3B 7103   2.724   6.861   8.727 -0.1800 -0.2823 -0.1903
  444loPI   C4B 7104   2.950   6.908   8.312  0.3642  0.2001  0.0135
  445loPI    C1 7105  13.632  13.381  11.228 -0.1230 -0.0282  0.1613
  445loPI    C2 7106  13.822  13.080  11.410  0.0353 -0.0164  0.0177
  445loPI    C3 7107  13.426  13.063  11.356  0.0492 -0.2190 -0.0281
  445loPI   PO4 7108  13.802  13.493  11.047  0.0336  0.2065  0.0942
  445loPI   GL1 7109  13.897  13.823  10.734  0.0346 -0.0095 -0.0716
  445loPI   GL2 7110  14.135  14.076  10.755 -0.0722 -0.0962  0.1935
  445loPI   C1A 7111  14.015  13.652  10.371 -0.1037 -0.4392 -0.0085
  445loPI   C2A 7112  14.133  13.758  10.009  0.4690 -0.3683 -0.2841
  445loPI   C3A 7113  14.222  13.790   9.473 -0.2693  0.4797  0.2206
  445loPI   C4A 7114  14.217  13.856   9.125 -0.3444  0.3640  0.0905
  445loPI   C5A 7115  14.137  13.521   8.720  0.0167  0.5447 -0.1477
  445loPI   C6A 7116  13.797  13.474   8.371  0.0336 -0.0842  0.0022
  445loPI   C1B 7117  14.148  14.253  10.335  0.1541  0.2247  0.0021
  445loPI   C2B 7118  14.281  14.222   9.836 -0.1040 -0.0110  0.1587
  445loPI   C3B 7119  14.367  14.266   9.390 -0.3870 -0.2138  0.2992
  445loPI   C4B 7120  14.291  14.292   8.928 -0.0692 -0.2321  0.0517
  446loPI    C1 7121   6.152  14.888  11.080  0.2179 -0.1759  0.0486
  446loPI    C2 7122   5.824  15.075  11.212  0.0707 -0.2877 -0.1543
  446loPI    C3 7123   6.001  14.798  11.440  0.1729 -0.0482  0.0621
  446loPI   PO4 7124   5.966  14.766  10.778 -0.3650  0.0677 -0.2184
  446loPI   GL1 7125   6.120  14.550  10.333 -0.2506  0.0768 -0.3310
  446loPI   GL2 7126   5.850  14.694  10.240 -0.2453 -0.3012 -0.0958
  446loPI   C1A 7127   6.368  14.608   9.968  0.0278 -0.1797 -0.1328
  446loPI   C2A 7128   6.236  14.766   9.458  0.2299 -0.0175 -0.0466
  446loPI   C3A 7129   6.256  14.835   8.999 -0.4791  0.2257  0.2536
  446loPI   C4A 7130   6.204  14.917   8.634 -0.0333  0.1019  0.3421
  446loPI   C5A 7131   6.052  14.772   8.185 -0.0257 -0.1094  0.2376
  446loPI   C6A 7132   5.649  14.591   8.054 -0.0683  0.2312 -0.1324
  446loPI   C1B 7133   5.851  14.628   9.848  0.0643  0.4619 -0.1846
  446loPI   C2B 7134   5.733  14.715   9.378 -0.0765 -0.1240 -0.1602
  446loPI   C3B 7135   5.735  14.696   8.987  0.5269 -0.1564 -0.2360
  446loPI   C4B 7136   5.641  14.690   8.571 -0.2096 -0.1352  0.1137
  447loPI    C1 7137   9.631  12.954  10.555 -0.1846  0.1147  0.0315
  447loPI    C2 7138   9.705  12.563  10.595  0.0213  0.1403 -0.0864
  447loPI    C3 7139   9.341  12.707  10.678 -0.1153 -0.1080 -0.2422
  447loPI   PO4 7140   9.713  13.005  10.286 -0.3920  0.0094  0.0078
  447loPI   GL1 7141   9.593  13.200   9.975 -0.1224  0.2456  0.1922
  447loPI   GL2 7142   9.294  13.285   9.851  0.3050 -0.0436 -0.0416
  447loPI   C1A 7143   9.581  13.510   9.522  0.1438  0.0847 -0.0591
  447loPI   C2A 7144   9.382  13.752   9.096 -0.2085  0.1968 -0.0395
  447loPI   C3A 7145   9.265  13.689   8.746 -0.0020 -0.5447  0.0604
  447loPI   C4A 7146   9.263  13.742   8.370  0.1797  0.2601 -0.0500
  447loPI   C5A 7147   9.118  13.856   7.992 -0.0698 -0.0386  0.0430
  447loPI   C6A 7148   9.073  13.662   7.537 -0.1885 -0.2470  0.0439
  447loPI   C1B 7149   9.013  13.476   9.523 -0.0397  0.1082  0.2936
  447loPI   C2B 7150   8.840  13.629   9.128 -0.1986 -0.2095  0.0556
  447loPI   C3B 7151   8.685  13.503   8.826 -0.1298  0.1501  0.2194
  447loPI   C4B 7152   8.703  13.699   8.423 -0.2723  0.1534  0.1056
  448loPI    C1 7153   4.221   7.571  10.380 -0.2046 -0.0467  0.0557
  448loPI    C2 7154   4.237   7.693  10.760 -0.0538  0.1006  0.0029
  448loPI    C3 7155   4.120   7.947  10.473 -0.0934  0.0125 -0.0592
  448loPI   PO4 7156   4.054   7.333  10.430 -0.3500  0.3032  0.0307
  448loPI   GL1 7157   3.942   7.120  10.140  0.1679  0.0876  0.0404
  448loPI   GL2 7158   3.731   7.216   9.938  0.0280  0.0823 -0.5983
  448loPI   C1A 7159   3.862   6.721  10.022  0.1779  0.0595  0.0886
  448loPI   C2A 7160   3.646   6.701   9.587 -0.2336 -0.0552 -0.2286
  448loPI   C3A 7161   3.563   6.718   9.148  0.2998 -0.2399 -0.0203
  448loPI   C4A 7162   3.583   6.756   8.738  0.2561 -0.4262 -0.3515
  448loPI   C5A 7163   3.672   6.660   8.365 -0.1187  0.1323 -0.3215
  448loPI   C6A 7164   3.647   6.314   8.182 -0.3143  0.1269 -0.3459
  448loPI   C1B 7165   3.328   7.163   9.677  0.0891  0.0505  0.1927
  448loPI   C2B 7166   3.254   7.119   9.257 -0.1906 -0.0431  0.1141
  448loPI   C3B 7167   3.215   7.033   8.808  0.0922 -0.1227  0.1545
  448loPI   C4B 7168   3.358   7.100   8.467  0.1229  0.1215  0.1015
  449loPI    C1 7169  16.991   6.017  10.528 -0.0502  0.0615  0.1179
  449loPI    C2 7170  17.273   6.240  10.703 -0.0728 -0.0504  0.3006
  449loPI    C3 7171  16.962   6.107  10.917 -0.1199 -0.1597  0.1658
  449loPI   PO4 7172  17.088   6.029  10.196  0.1634 -0.1020  0.1754
  449loPI   GL1 7173  16.954   6.108   9.708  0.1504 -0.0434 -0.0258
  449loPI   GL2 7174  16.936   6.488   9.782 -0.1843 -0.0039  0.0521
  449loPI   C1A 7175  16.894   6.007   9.235 -0.0243  0.1097  0.2497
  449loPI   C2A 7176  16.810   6.000   8.762  0.1751  0.0121  0.1307
  449loPI   C3A 7177  16.803   6.053   8.348  0.1939 -0.2993  0.2863
  449loPI   C4A 7178  16.960   5.898   7.946  0.0251  0.0681 -0.1632
  449loPI   C5A 7179  16.999   5.489   7.904  0.1952  0.4198  0.2335
  449loPI   C6A 7180  17.204   5.181   7.653  0.3368  0.3509 -0.0543
  449loPI   C1B 7181  16.981   6.627   9.416 -0.4456  0.1492  0.0056
  449loPI   C2B 7182  17.051   6.463   9.056 -0.1081 -0.0465 -0.0681
  449loPI   C3B 7183  17.108   6.507   8.715  0.2321  0.3467  0.2786
  449loPI   C4B 7184  16.912   6.540   8.280  0.3030  0.1697 -0.2511
  450loPI    C1 7185   4.872   3.383  10.911 -0.0173 -0.0335  0.1296
  450loPI    C2 7186   4.714   3.213  11.237 -0.1118 -0.0282  0.0869
  450loPI    C3 7187   4.767   3.610  11.224 -0.1178 -0.0273  0.0918
  450loPI   PO4 7188   4.698   3.258  10.736 -0.1790 -0.1686  0.1946
  450loPI   GL1 7189   4.642   3.344  10.331  0.1849 -0.0292  0.1837
  450loPI   GL2 7190   4.908   3.380  10.133 -0.0985 -0.1570 -0.0149
  450loPI   C1A 7191   4.444   3.230   9.963  0.2622  0.1648 -0.0582
  450loPI   C2A 7192   4.474   3.244   9.521 -0.0084 -0.1617  0.1229
  450loPI   C3A 7193   4.489   3.136   9.166  0.4040 -0.0555  0.0476
  450loPI   C4A 7194   4.562   3.129   8.782  0.1540  0.1604  0.1473
  450loPI   C5A 7195   4.416   3.071   8.388  0.0491 -0.1035 -0.0116
  450loPI   C6A 7196   4.161   2.652   8.217 -0.1672  0.2381  0.1089
  450loPI   C1B 7197   4.999   3.350   9.533  0.3310  0.2575 -0.0811
  450loPI   C2B 7198   4.949   3.271   9.113  0.0867 -0.0694  0.0713
  450loPI   C3B 7199   5.039   3.181   8.632 -0.0302 -0.0920 -0.3640
  450loPI   C4B 7200   4.900   3.200   8.204 -0.0412  0.2454 -0.3684
  451loPI    C1 7201   6.631   5.872  10.554 -0.2923  0.0761  0.0466
  451loPI    C2 7202   6.450   5.916  10.907 -0.1651 -0.3313  0.1681
  451loPI    C3 7203   6.844   5.849  10.891 -0.0999  0.0760 -0.0733
  451loPI   PO4 7204   6.592   5.673  10.454  0.1877  0.3842  0.0598
  451loPI   GL1 7205   6.497   5.485  10.122  0.0439 -0.1125  0.3575
  451loPI   GL2 7206   6.206   5.429  10.015 -0.1276 -0.2127  0.1247
  451loPI   C1A 7207   6.630   5.252   9.732  0.1119  0.2914  0.1012
  451loPI   C2A 7208   6.477   5.137   9.343  0.2690  0.2240 -0.0456
  451loPI   C3A 7209   6.456   4.996   8.999  0.0223 -0.0958 -0.0029
  451loPI   C4A 7210   6.540   4.910   8.603  0.0795  0.1339 -0.0418
  451loPI   C5A 7211   6.553   5.133   8.224 -0.2403  0.1984 -0.0246
  451loPI   C6A 7212   6.409   5.027   7.726 -0.1187 -0.0494  0.0276
  451loPI   C1B 7213   6.141   5.537   9.571  0.3169  0.0916  0.0170
  451loPI   C2B 7214   6.057   5.409   9.058 -0.0391 -0.2364  0.0560
  451loPI   C3B 7215   6.161   5.286   8.691  0.1555  0.0791 -0.0821
  451loPI   C4B 7216   6.094   5.493   8.362  0.1167  0.0192 -0.0477
  452loPI    C1 7217   6.429  13.056  10.369  0.4399  0.0302 -0.0038
  452loPI    C2 7218   6.646  12.992  10.699 -0.0769 -0.1967  0.3039
  452loPI    C3 7219   6.285  13.163  10.727 -0.1312 -0.2273 -0.1452
  452loPI   PO4 7220   6.443  12.809  10.209  0.4238  0.1333 -0.0231
  452loPI   GL1 7221   6.682  12.550   9.979  0.1818  0.3335  0.3764
  452loPI   GL2 7222   6.658  12.941   9.826  0.1584  0.0352  0.2588
  452loPI   C1A 7223   6.489  12.527   9.586 -0.0923 -0.2979  0.3482
  452loPI   C2A 7224   6.524  12.639   9.154  0.1956  0.0579  0.1440
  452loPI   C3A 7225   6.457  12.634   8.738 -0.3257  0.0971 -0.1484
  452loPI   C4A 7226   6.295  12.518   8.375  0.0937 -0.1005 -0.0448
  452loPI   C5A 7227   6.201  12.597   7.948  0.0010 -0.1928  0.2753
  452loPI   C6A 7228   6.144  12.975   7.743 -0.0959  0.1415 -0.0574
  452loPI   C1B 7229   6.588  13.078   9.392 -0.1297 -0.3006  0.1601
  452loPI   C2B 7230   6.581  13.067   8.954  0.0036 -0.1341 -0.3754
  452loPI   C3B 7231   6.538  13.125   8.571 -0.3289  0.1460  0.0128
  452loPI   C4B 7232   6.432  13.043   8.151  0.0841  0.3913  0.0643
  453loPI    C1 7233  14.550   3.532  11.202 -0.1882 -0.0455  0.1702
  453loPI    C2 7234  14.804   3.764  11.406 -0.1763  0.0519  0.0461
  453loPI    C3 7235  14.409   3.805  11.458 -0.1766  0.1572 -0.0362
  453loPI   PO4 7236  14.733   3.540  10.851  0.1296 -0.1023 -0.2071
  453loPI   GL1 7237  14.681   3.413  10.405 -0.1226  0.0441 -0.0290
  453loPI   GL2 7238  14.366   3.288  10.378  0.0074  0.1255  0.0832
  453loPI   C1A 7239  14.967   3.314  10.121  0.1491 -0.0093  0.0370
  453loPI   C2A 7240  15.010   3.353   9.667 -0.1723 -0.1569 -0.1675
  453loPI   C3A 7241  15.019   3.331   9.228  0.1965 -0.1446  0.0228
  453loPI   C4A 7242  15.062   3.258   8.830 -0.3184  0.1047 -0.2504
  453loPI   C5A 7243  15.016   3.181   8.454 -0.0617  0.1058 -0.0283
  453loPI   C6A 7244  14.685   2.982   8.219  0.2034 -0.0798  0.2159
  453loPI   C1B 7245  14.459   3.227   9.962  0.1221 -0.2820 -0.3732
  453loPI   C2B 7246  14.516   3.199   9.539  0.0271  0.2390  0.0740
  453loPI   C3B 7247  14.479   3.140   9.114 -0.0036  0.1205  0.0974
  453loPI   C4B 7248  14.562   3.143   8.699 -0.0993 -0.0099 -0.0340
  454loPI    C1 7249   9.340   5.740  10.467  0.2380  0.0042  0.0405
  454loPI    C2 7250   9.585   5.913  10.731  0.2145 -0.2227  0.2137
  454loPI    C3 7251   9.289   5.676  10.858 -0.0562 -0.0031  0.0032
  454loPI   PO4 7252   9.303   5.918  10.291  0.4644  0.2916 -0.2774
  454loPI   GL1 7253   9.055   5.933   9.884 -0.0851  0.0009  0.3955
  454loPI   GL2 7254   8.715   6.014   9.793 -0.0053 -0.2102  0.0283
  454loPI   C1A 7255   9.246   5.777   9.516  0.0451 -0.3957 -0.2033
  454loPI   C2A 7256   9.291   5.745   9.200  0.0276 -0.0927  0.2007
  454loPI   C3A 7257   9.264   5.697   8.761 -0.2723  0.0030 -0.0545
  454loPI   C4A 7258   9.170   5.667   8.410 -0.0751  0.1167  0.2374
  454loPI   C5A 7259   8.753   5.789   8.004 -0.0470 -0.0010  0.1510
  454loPI   C6A 7260   8.748   6.213   7.647  0.1285 -0.3028  0.1445
  454loPI   C1B 7261   8.738   5.842   9.340 -0.3313 -0.0938  0.1291
  454loPI   C2B 7262   8.770   5.709   8.970 -0.2895 -0.3314  0.0936
  454loPI   C3B 7263   8.612   5.513   8.494 -0.2429  0.0876 -0.1282
  454loPI   C4B 7264   8.731   5.257   8.099 -0.1127  0.3221 -0.0783
  455loPI    C1 7265  11.250   5.788  10.740  0.1678  0.0064  0.0330
  455loPI    C2 7266  11.095   6.123  10.893  0.2863  0.2359 -0.3373
  455loPI    C3 7267  11.344   5.900  11.113 -0.2720  0.0524  0.1356
  455loPI   PO4 7268  10.932   5.683  10.524 -0.3185 -0.0587  0.0544
  455loPI   GL1 7269  10.944   5.693  10.081 -0.0225  0.0201 -0.0431
  455loPI   GL2 7270  10.688   5.426  10.061 -0.2491  0.0181 -0.4835
  455loPI   C1A 7271  11.023   5.630   9.691  0.1221 -0.0662  0.3029
  455loPI   C2A 7272  11.003   5.610   9.221 -0.3397  0.1103  0.0870
  455loPI   C3A 7273  10.954   5.647   8.807  0.0910  0.1985  0.2818
  455loPI   C4A 7274  11.034   5.672   8.361  0.0081  0.0669 -0.0667
  455loPI   C5A 7275  11.047   5.911   7.959 -0.0624 -0.0356 -0.1274
  455loPI   C6A 7276  10.837   6.068   7.614 -0.2754 -0.0307  0.0470
  455loPI   C1B 7277  10.844   5.169   9.684  0.1106 -0.0645 -0.0190
  455loPI   C2B 7278  10.731   5.177   9.253 -0.0894  0.1363 -0.0291
  455loPI   C3B 7279  10.753   5.180   8.889  0.3195  0.1666 -0.1751
  455loPI   C4B 7280  10.923   5.130   8.484  0.0505 -0.2526 -0.1638
  456loPI    C1 7281  15.881  17.810  11.352  0.0895 -0.0817 -0.1127
  456loPI    C2 7282  15.677  18.091  11.550  0.2570 -0.0371 -0.0013
  456loPI    C3 7283  15.687  17.716  11.689 -0.2587 -0.1855 -0.3366
  456loPI   PO4 7284  15.865  17.914  11.074  0.2061  0.0577  0.0460
  456loPI   GL1 7285  16.080  17.953  10.677 -0.1739 -0.3565 -0.1820
  456loPI   GL2 7286  15.927  17.582  10.647  0.0343  0.1968  0.2457
  456loPI   C1A 7287  15.905  17.879  10.266  0.0029  0.2839  0.1307
  456loPI   C2A 7288  15.875  17.826   9.794  0.4401 -0.1041  0.1549
  456loPI   C3A 7289  15.892  17.998   9.494 -0.1322  0.0180  0.1129
  456loPI   C4A 7290  15.921  18.075   9.072 -0.2341 -0.2960  0.2452
  456loPI   C5A 7291  15.893  18.112   8.618  0.2306  0.1891 -0.1520
  456loPI   C6A 7292  15.744  18.479   8.405  0.3792  0.0939  0.1473
  456loPI   C1B 7293  15.731  17.445  10.192  0.0616 -0.0128 -0.0753
  456loPI   C2B 7294  15.633  17.393   9.747  0.0859 -0.4009  0.1431
  456loPI   C3B 7295  15.761  17.499   9.379 -0.0508  0.2241 -0.0251
  456loPI   C4B 7296  15.731  17.619   8.878 -0.1484 -0.2681  0.2681
  457loPI    C1 7297   7.467   5.512  10.340 -0.2659 -0.4004 -0.0551
  457loPI    C2 7298   7.733   5.214  10.332  0.1385 -0.0454 -0.2077
  457loPI    C3 7299   7.787   5.523  10.580 -0.2362 -0.0577 -0.1052
  457loPI   PO4 7300   7.402   5.551  10.092  0.1762 -0.1872  0.1471
  457loPI   GL1 7301   7.563   5.714   9.716 -0.2222  0.0115  0.0505
  457loPI   GL2 7302   7.819   5.871   9.744  0.3767 -0.0626 -0.0485
  457loPI   C1A 7303   7.584   5.477   9.372 -0.0768 -0.1710 -0.4231
  457loPI   C2A 7304   7.431   5.285   8.965 -0.1391  0.0106 -0.0143
  457loPI   C3A 7305   7.461   5.160   8.510 -0.1443  0.0558 -0.0412
  457loPI   C4A 7306   7.285   5.120   8.096  0.0712 -0.1948  0.0024
  457loPI   C5A 7307   7.015   4.793   7.971  0.2575 -0.0221 -0.1669
  457loPI   C6A 7308   6.563   4.674   8.015  0.3601  0.2492 -0.0792
  457loPI   C1B 7309   7.949   5.853   9.308 -0.3864 -0.1228  0.0023
  457loPI   C2B 7310   7.797   5.660   8.893  0.3045  0.2356  0.1398
  457loPI   C3B 7311   7.921   5.429   8.609  0.1950 -0.0601  0.2957
  457loPI   C4B 7312   8.232   5.375   8.270 -0.2444  0.2689 -0.1181
  458loPI    C1 7313   7.016   3.508  11.221  0.0622 -0.0656  0.1094
  458loPI    C2 7314   6.842   3.278  11.498  0.0987  0.0363  0.2177
  458loPI    C3 7315   7.223   3.393  11.544  0.0980  0.0715  0.1362
  458loPI   PO4 7316   7.026   3.440  10.985 -0.1959  0.1447  0.1871
  458loPI   GL1 7317   6.993   3.587  10.405 -0.0241  0.0806  0.0735
  458loPI   GL2 7318   6.619   3.764  10.381  0.2592  0.3551  0.2300
  458loPI   C1A 7319   7.009   3.207  10.227  0.0264 -0.1948  0.0276
  458loPI   C2A 7320   7.226   2.944  10.040  0.1018  0.1698  0.0915
  458loPI   C3A 7321   7.336   2.860   9.648  0.1494 -0.1100 -0.0963
  458loPI   C4A 7322   7.314   2.926   9.236  0.1439 -0.1107  0.0797
  458loPI   C5A 7323   7.310   2.864   8.714  0.2457  0.0723  0.0408
  458loPI   C6A 7324   7.058   2.952   8.313 -0.3638 -0.0749 -0.0179
  458loPI   C1B 7325   6.770   3.597   9.923 -0.1865 -0.3654 -0.0687
  458loPI   C2B 7326   6.839   3.448   9.590  0.1031  0.0575  0.2525
  458loPI   C3B 7327   6.944   3.283   9.165  0.0911 -0.1073 -0.1460
  458loPI   C4B 7328   6.931   3.206   8.673  0.3586  0.2487  0.1396
  459loPI    C1 7329  14.145   3.535  10.801 -0.1897  0.1548  0.0479
  459loPI    C2 7330  13.934   3.305  10.551 -0.0440 -0.3142  0.3437
  459loPI    C3 7331  13.811   3.355  10.928 -0.2320  0.3430  0.2086
  459loPI   PO4 7332  14.222   3.689  10.664 -0.0377 -0.0633 -0.0698
  459loPI   GL1 7333  14.185   3.810  10.264 -0.1043 -0.0005  0.0775
  459loPI   GL2 7334  13.959   4.073  10.121  0.2549  0.1919  0.0742
  459loPI   C1A 7335  14.148   3.545   9.837 -0.0458 -0.0955  0.2504
  459loPI   C2A 7336  14.127   3.568   9.392 -0.0083 -0.3325  0.2368
  459loPI   C3A 7337  14.275   3.525   8.908 -0.1385 -0.0984  0.1550
  459loPI   C4A 7338  14.155   3.466   8.526 -0.2296  0.0025 -0.0001
  459loPI   C5A 7339  14.295   3.275   8.200  0.0279  0.0243 -0.2089
  459loPI   C6A 7340  14.470   3.066   7.814 -0.0509  0.1695 -0.1591
  459loPI   C1B 7341  13.911   3.962   9.693 -0.0644  0.0743  0.0109
  459loPI   C2B 7342  13.877   3.990   9.297 -0.1149  0.1643  0.1356
  459loPI   C3B 7343  13.867   3.904   8.804 -0.0655 -0.1586  0.2133
  459loPI   C4B 7344  13.872   3.920   8.373  0.0156 -0.0574  0.2387
  460loPI    C1 7345   3.884   8.387  10.518  0.1013 -0.0996 -0.0518
  460loPI    C2 7346   4.202   8.590  10.653 -0.1090  0.2378 -0.0516
  460loPI    C3 7347   3.842   8.647  10.819 -0.2199  0.0550 -0.2241
  460loPI   PO4 7348   3.882   8.353  10.163 -0.2210 -0.1303 -0.0575
  460loPI   GL1 7349   3.698   8.236   9.691  0.0076 -0.0923 -0.0149
  460loPI   GL2 7350   3.495   8.027   9.971  0.2045 -0.0934  0.0611
  460loPI   C1A 7351   3.705   8.136   9.230 -0.1141  0.2353 -0.0388
  460loPI   C2A 7352   3.659   8.105   8.852 -0.0365  0.3018  0.1355
  460loPI   C3A 7353   3.649   8.131   8.418 -0.0186 -0.1669 -0.1891
  460loPI   C4A 7354   3.687   8.198   8.011 -0.2673  0.1124  0.1046
  460loPI   C5A 7355   3.329   8.131   7.725 -0.0411  0.0235 -0.0441
  460loPI   C6A 7356   3.276   7.901   7.390  0.0306 -0.0653  0.0306
  460loPI   C1B 7357   3.195   8.052   9.495  0.1717 -0.1281 -0.3104
  460loPI   C2B 7358   3.205   8.205   9.066  0.2082 -0.1547 -0.1899
  460loPI   C3B 7359   3.187   8.262   8.671 -0.0935  0.1594  0.1221
  460loPI   C4B 7360   3.171   8.031   8.306  0.1937 -0.1893  0.2099
  461loPI    C1 7361   8.951   9.267   9.841  0.0563  0.2153  0.1193
  461loPI    C2 7362   8.655   9.143  10.080  0.1257 -0.0982  0.0467
  461loPI    C3 7363   8.570   9.334   9.739  0.0117 -0.0773  0.0862
  461loPI   PO4 7364   9.194   9.067   9.682 -0.2376 -0.0468 -0.1457
  461loPI   GL1 7365   9.170   8.780   9.378 -0.3232  0.1663 -0.2151
  461loPI   GL2 7366   9.584   8.810   9.415 -0.2280 -0.1003 -0.2094
  461loPI   C1A 7367   8.963   8.853   8.966  0.1008 -0.3540  0.3217
  461loPI   C2A 7368   8.887   8.772   8.497  0.0444  0.0514  0.1197
  461loPI   C3A 7369   8.853   8.617   8.059  0.3005  0.0880 -0.0243
  461loPI   C4A 7370   8.562   8.811   7.743 -0.2448 -0.0663 -0.2742
  461loPI   C5A 7371   8.411   9.088   7.457  0.1365 -0.0668 -0.1229
  461loPI   C6A 7372   8.128   9.304   7.184  0.2654  0.1549  0.1241
  461loPI   C1B 7373   9.640   8.741   9.079 -0.0552  0.3220  0.3348
  461loPI   C2B 7374   9.749   8.594   8.738  0.1033 -0.1333 -0.0614
  461loPI   C3B 7375   9.795   8.620   8.339 -0.0250  0.0592  0.1984
  461loPI   C4B 7376   9.890   8.416   7.968 -0.0215 -0.0620 -0.3525
  462loPI    C1 7377  14.219   9.866  10.103  0.0635  0.2471  0.0842
  462loPI    C2 7378  14.235   9.809  10.499  0.0510 -0.1719  0.0283
  462loPI    C3 7379  13.978   9.597  10.276 -0.1772  0.2962 -0.1669
  462loPI   PO4 7380  14.468   9.948   9.983 -0.0999 -0.1708  0.2099
  462loPI   GL1 7381  14.485  10.275   9.729  0.0407  0.1201 -0.0279
  462loPI   GL2 7382  14.727  10.431   9.970 -0.0515  0.0573  0.0030
  462loPI   C1A 7383  14.465  10.220   9.226  0.2105 -0.1174 -0.0248
  462loPI   C2A 7384  14.448  10.269   8.777  0.0891 -0.1004  0.0415
  462loPI   C3A 7385  14.366  10.245   8.374 -0.2930  0.2671 -0.2866
  462loPI   C4A 7386  14.533  10.141   8.019  0.3013  0.2995  0.2302
  462loPI   C5A 7387  14.792  10.262   7.717  0.0547 -0.2122  0.1021
  462loPI   C6A 7388  14.724  10.528   7.446 -0.1257 -0.2722  0.2841
  462loPI   C1B 7389  14.878  10.245   9.474 -0.0107  0.0711  0.0009
  462loPI   C2B 7390  14.892  10.273   9.030  0.0859 -0.0047 -0.2945
  462loPI   C3B 7391  14.880  10.303   8.587  0.0394 -0.0534  0.2580
  462loPI   C4B 7392  14.978  10.278   8.152  0.1503  0.0105  0.0628
  463loPI    C1 7393   8.249   8.790   9.921 -0.1087 -0.1364 -0.1769
  463loPI    C2 7394   8.569   8.601  10.068 -0.0832  0.0813  0.0550
  463loPI    C3 7395   8.216   8.413  10.053 -0.0308 -0.0274  0.1634
  463loPI   PO4 7396   8.270   8.923   9.773 -0.2903  0.3955 -0.0364
  463loPI   GL1 7397   8.213   8.636   9.403 -0.0249  0.0068 -0.3210
  463loPI   GL2 7398   8.406   8.830   9.257 -0.0522 -0.0459 -0.0739
  463loPI   C1A 7399   8.093   8.548   8.994 -0.0899 -0.1690  0.0685
  463loPI   C2A 7400   7.929   8.543   8.683 -0.0648 -0.1131 -0.0247
  463loPI   C3A 7401   7.825   8.620   8.198 -0.0571 -0.1997  0.0397
  463loPI   C4A 7402   7.621   8.764   7.847 -0.0709 -0.0340 -0.3704
  463loPI   C5A 7403   7.420   8.990   7.532 -0.1126  0.3543 -0.2690
  463loPI   C6A 7404   7.101   8.983   7.162  0.1507 -0.1197 -0.0701
  463loPI   C1B 7405   8.481   8.885   8.763  0.0849 -0.1665 -0.0268
  463loPI   C2B 7406   8.440   8.895   8.240 -0.4656 -0.1087 -0.2488
  463loPI   C3B 7407   8.125   8.925   7.967 -0.3447  0.2335  0.0588
  463loPI   C4B 7408   7.955   9.112   7.609 -0.1535 -0.0246  0.0304
  464loPI    C1 7409   6.507   1.925  11.073 -0.1102  0.2596  0.2410
  464loPI    C2 7410   6.538   2.155  11.399 -0.1419 -0.0717  0.4823
  464loPI    C3 7411   6.685   1.782  11.401 -0.0246 -0.0329  0.0713
  464loPI   PO4 7412   6.600   2.137  10.845 -0.0031  0.0658 -0.1343
  464loPI   GL1 7413   6.385   2.225  10.378 -0.0674  0.0154  0.0268
  464loPI   GL2 7414   6.135   1.969  10.204 -0.0383 -0.0859 -0.0249
  464loPI   C1A 7415   6.596   2.288   9.963  0.0541 -0.2025  0.1404
  464loPI   C2A 7416   6.708   2.279   9.483 -0.0904 -0.0457  0.1948
  464loPI   C3A 7417   6.605   2.214   9.090 -0.1490  0.2102 -0.3607
  464loPI   C4A 7418   6.641   2.178   8.641  0.1250  0.1134 -0.0782
  464loPI   C5A 7419   6.723   2.512   8.290  0.0034 -0.1738  0.0024
  464loPI   C6A 7420   6.401   2.710   7.905  0.1515  0.2093 -0.0360
  464loPI   C1B 7421   6.094   2.221   9.858  0.0427 -0.0177  0.1300
  464loPI   C2B 7422   6.076   2.168   9.404  0.2168  0.1348 -0.1703
  464loPI   C3B 7423   6.104   2.094   8.977 -0.3190 -0.1767 -0.0486
  464loPI   C4B 7424   6.228   1.929   8.564  0.1686 -0.0055 -0.2860
  465loPI    C1 7425  12.414  10.301  10.303 -0.0485  0.0001  0.0008
  465loPI    C2 7426  12.245  10.488   9.993 -0.0245  0.2299  0.1243
  465loPI    C3 7427  12.017  10.346  10.289 -0.0541 -0.0595 -0.0342
  465loPI   PO4 7428  12.548  10.148  10.156 -0.1187  0.2658 -0.0048
  465loPI   GL1 7429  12.611  10.194   9.702 -0.1415 -0.0678  0.0604
  465loPI   GL2 7430  12.554   9.926   9.472 -0.0915 -0.0001 -0.0130
  465loPI   C1A 7431  12.472  10.522   9.317  0.0455  0.1211  0.2133
  465loPI   C2A 7432  12.523  10.860   8.969 -0.0398  0.0165  0.1333
  465loPI   C3A 7433  12.776  11.039   8.572  0.1261 -0.1556 -0.1354
  465loPI   C4A 7434  12.865  11.467   8.289 -0.2319 -0.0394 -0.0033
  465loPI   C5A 7435  12.675  11.862   8.073  0.0816 -0.0883 -0.1044
  465loPI   C6A 7436  12.370  12.199   8.167  0.3686 -0.0602 -0.0754
  465loPI   C1B 7437  12.375  10.104   9.125  0.0688 -0.0510  0.4446
  465loPI   C2B 7438  12.396  10.308   8.766 -0.1577 -0.0987  0.1138
  465loPI   C3B 7439  12.496  10.444   8.366 -0.0498  0.0433  0.4203
  465loPI   C4B 7440  12.575  10.378   7.910 -0.2423 -0.0935 -0.1505
  466loPI    C1 7441   5.703  11.612  10.134  0.0185  0.2253  0.3386
  466loPI    C2 7442   5.786  11.365  10.437 -0.0379  0.0184  0.1876
  466loPI    C3 7443   5.406  11.449  10.347 -0.0297 -0.1304  0.0091
  466loPI   PO4 7444   6.027  11.498   9.975 -0.0954 -0.1171  0.0152
  466loPI   GL1 7445   6.436  11.626   9.860 -0.0934  0.2588  0.0293
  466loPI   GL2 7446   6.342  11.872  10.007 -0.3391  0.3861  0.3405
  466loPI   C1A 7447   6.251  11.536   9.396 -0.1366  0.0780  0.0813
  466loPI   C2A 7448   6.297  11.644   9.019  0.0362  0.0357 -0.1247
  466loPI   C3A 7449   6.111  11.543   8.641 -0.1642 -0.1971 -0.0222
  466loPI   C4A 7450   5.970  11.614   8.267  0.0857  0.0772 -0.1568
  466loPI   C5A 7451   6.070  11.446   7.961 -0.1195 -0.1108  0.2697
  466loPI   C6A 7452   6.327  11.401   7.676 -0.1132 -0.1279  0.0912
  466loPI   C1B 7453   6.359  12.053   9.492  0.1504  0.2311  0.1207
  466loPI   C2B 7454   6.372  12.139   9.044 -0.0379 -0.1823  0.1561
  466loPI   C3B 7455   6.272  12.024   8.677 -0.0833  0.2111  0.0733
  466loPI   C4B 7456   6.138  12.105   8.228 -0.2350 -0.0256 -0.5630
  467loPI    C1 7457  17.278  17.110  11.209  0.1294  0.1072 -0.2727
  467loPI    C2 7458  17.647  16.987  11.305 -0.0595  0.0080  0.3719
  467loPI    C3 7459  17.525  17.354  11.408  0.0029  0.2121 -0.2433
  467loPI   PO4 7460  17.260  17.120  10.885 -0.2342 -0.5171 -0.0521
  467loPI   GL1 7461  17.024  17.197  10.485  0.1075  0.0201 -0.2651
  467loPI   GL2 7462  16.976  16.910  10.300 -0.2649  0.0666  0.2877
  467loPI   C1A 7463  17.093  17.350  10.013  0.0746 -0.0012 -0.1214
  467loPI   C2A 7464  17.056  17.299   9.585 -0.1551  0.0551 -0.1623
  467loPI   C3A 7465  17.156  17.325   9.140 -0.2320 -0.2375  0.1627
  467loPI   C4A 7466  17.123  17.371   8.748 -0.1924 -0.1211  0.1098
  467loPI   C5A 7467  17.273  17.222   8.548 -0.2043  0.3407 -0.0410
  467loPI   C6A 7468  17.427  17.443   8.239 -0.0584 -0.1614  0.4392
  467loPI   C1B 7469  17.021  16.825   9.864 -0.2070  0.2567  0.2118
  467loPI   C2B 7470  17.056  16.775   9.397 -0.0895 -0.2518 -0.1368
  467loPI   C3B 7471  17.014  16.847   9.047 -0.2767  0.0560  0.0260
  467loPI   C4B 7472  16.734  16.930   8.582 -0.0309  0.1191  0.0540
  468loPI    C1 7473  11.407  10.456  10.453  0.0545 -0.1664 -0.0058
  468loPI    C2 7474  11.738  10.658  10.553 -0.0721  0.0266  0.0285
  468loPI    C3 7475  11.433  10.634  10.810 -0.2824  0.2744 -0.1920
  468loPI   PO4 7476  11.410  10.498  10.193  0.0643  0.2131 -0.1153
  468loPI   GL1 7477  11.503  10.910   9.767 -0.0320  0.1431  0.1169
  468loPI   GL2 7478  11.402  10.599   9.712  0.0331 -0.1988 -0.2899
  468loPI   C1A 7479  11.730  11.077   9.440  0.1046  0.1939  0.0151
  468loPI   C2A 7480  11.847  11.185   9.008 -0.2414  0.2474 -0.2767
  468loPI   C3A 7481  11.773  11.094   8.572 -0.1977  0.2209  0.1029
  468loPI   C4A 7482  11.726  11.230   8.119  0.1064  0.2704  0.0280
  468loPI   C5A 7483  11.493  11.446   7.825  0.2117  0.3339  0.1584
  468loPI   C6A 7484  11.475  11.869   7.741 -0.1284 -0.1680  0.0325
  468loPI   C1B 7485  11.583  10.543   9.315  0.4437  0.1016  0.0642
  468loPI   C2B 7486  11.531  10.775   9.020  0.2422 -0.2438  0.2060
  468loPI   C3B 7487  11.499  10.707   8.648 -0.1751 -0.1781  0.1875
  468loPI   C4B 7488  11.488  10.857   8.241  0.1513 -0.2396  0.1720
  469loPI    C1 7489  17.002   7.562  10.345 -0.1282  0.0088 -0.1054
  469loPI    C2 7490  16.696   7.395  10.543  0.0705 -0.0515  0.1567
  469loPI    C3 7491  16.791   7.779  10.607  0.1567 -0.0807  0.2049
  469loPI   PO4 7492  16.951   7.519  10.084 -0.4370 -0.2583 -0.0832
  469loPI   GL1 7493  17.096   7.646   9.664 -0.1091 -0.2447 -0.0499
  469loPI   GL2 7494  16.894   7.851   9.584  0.1650 -0.0389 -0.0295
  469loPI   C1A 7495  17.260   7.512   9.410  0.2305 -0.1007  0.1584
  469loPI   C2A 7496  17.365   7.510   9.042 -0.2069  0.1907 -0.0939
  469loPI   C3A 7497  17.275   7.515   8.621 -0.1548 -0.1001 -0.0811
  469loPI   C4A 7498  17.321   7.440   8.154  0.1185 -0.1507  0.0106
  469loPI   C5A 7499  17.349   7.562   7.820  0.2154  0.0077  0.2187
  469loPI   C6A 7500  17.483   8.015   7.634 -0.3089  0.2018 -0.1510
  469loPI   C1B 7501  16.919   7.909   9.170 -0.1079 -0.0963 -0.3757
  469loPI   C2B 7502  16.922   7.870   8.713 -0.0461 -0.2365 -0.5431
  469loPI   C3B 7503  17.003   7.856   8.323 -0.1529 -0.1833 -0.1641
  469loPI   C4B 7504  17.029   8.099   7.950  0.0714 -0.4348 -0.2678
  470loPI    C1 7505   2.322   7.346  10.764  0.0836 -0.0432 -0.0953
  470loPI    C2 7506   1.985   7.368  10.978  0.0443 -0.1139 -0.1495
  470loPI    C3 7507   2.333   7.474  11.143 -0.0319  0.1591 -0.1583
  470loPI   PO4 7508   2.182   7.419  10.438  0.2343  0.0715 -0.1728
  470loPI   GL1 7509   2.304   7.522  10.161 -0.1442  0.0207 -0.1296
  470loPI   GL2 7510   2.561   7.647  10.038  0.0994  0.0577  0.0709
  470loPI   C1A 7511   2.008   7.342   9.714  0.0024  0.1061 -0.2266
  470loPI   C2A 7512   1.926   7.313   9.284 -0.2328  0.2152 -0.0098
  470loPI   C3A 7513   2.068   7.330   8.886 -0.4080 -0.0398 -0.3161
  470loPI   C4A 7514   2.010   7.140   8.394 -0.1957  0.2782 -0.1831
  470loPI   C5A 7515   1.819   6.920   8.065  0.3229  0.0767  0.0344
  470loPI   C6A 7516   1.380   7.001   7.921  0.1120 -0.0803 -0.1104
  470loPI   C1B 7517   2.499   7.386   9.713  0.1134  0.0164  0.3050
  470loPI   C2B 7518   2.438   7.321   9.283  0.0837  0.1539  0.2370
  470loPI   C3B 7519   2.522   7.333   8.828  0.1466  0.2859 -0.2381
  470loPI   C4B 7520   2.574   7.198   8.332  0.1398 -0.3986 -0.0932
  471loPI    C1 7521  15.924  11.166  10.947 -0.0965 -0.3034  0.2791
  471loPI    C2 7522  15.626  11.164  11.214 -0.0306 -0.1566  0.3556
  471loPI    C3 7523  15.919  10.892  11.239 -0.0038 -0.1192  0.4568
  471loPI   PO4 7524  15.767  11.147  10.672 -0.0130  0.0841 -0.1576
  471loPI   GL1 7525  15.762  10.943  10.353 -0.0933  0.0579  0.0029
  471loPI   GL2 7526  15.898  11.321  10.273 -0.1464  0.2691 -0.0926
  471loPI   C1A 7527  15.524  10.819   9.985 -0.3371 -0.1064 -0.0253
  471loPI   C2A 7528  15.582  10.905   9.547  0.3004 -0.0348  0.0515
  471loPI   C3A 7529  15.657  10.984   9.123  0.3780  0.2667 -0.0461
  471loPI   C4A 7530  15.616  10.875   8.732  0.0732  0.1376  0.0311
  471loPI   C5A 7531  15.561  10.893   8.295  0.2502 -0.2343 -0.0910
  471loPI   C6A 7532  15.510  11.281   8.108  0.0435 -0.0218  0.2529
  471loPI   C1B 7533  15.842  11.248   9.891  0.3778 -0.0798 -0.2237
  471loPI   C2B 7534  15.788  11.324   9.442  0.3017 -0.0519 -0.0446
  471loPI   C3B 7535  15.793  11.395   8.968 -0.2311  0.1477  0.0289
  471loPI   C4B 7536  15.735  11.348   8.588  0.0540  0.1870  0.1917
  472loPI    C1 7537  11.661   5.216  10.862  0.1744  0.0310  0.1201
  472loPI    C2 7538  11.512   5.116  11.219 -0.1267  0.0391 -0.0004
  472loPI    C3 7539  11.334   5.400  11.000  0.1866  0.1932 -0.0617
  472loPI   PO4 7540  11.632   4.956  10.648 -0.2896  0.1219 -0.0368
  472loPI   GL1 7541  11.591   4.776  10.294  0.2509  0.2494 -0.0563
  472loPI   GL2 7542  11.796   5.060  10.167  0.1160  0.3902  0.0743
  472loPI   C1A 7543  11.568   4.565   9.899  0.0816 -0.0557 -0.0389
  472loPI   C2A 7544  11.490   4.414   9.516 -0.2914 -0.1787 -0.0050
  472loPI   C3A 7545  11.675   4.349   9.079 -0.1980  0.0665  0.0102
  472loPI   C4A 7546  11.623   4.390   8.662  0.0843  0.0626 -0.0790
  472loPI   C5A 7547  11.884   4.380   8.276 -0.2120  0.0104 -0.0515
  472loPI   C6A 7548  12.273   4.312   8.137  0.0353 -0.5235 -0.0689
  472loPI   C1B 7549  11.726   4.978   9.723  0.1189  0.1837  0.2904
  472loPI   C2B 7550  11.638   4.842   9.367  0.2527 -0.3870  0.1887
  472loPI   C3B 7551  11.802   4.836   8.958 -0.1782 -0.2914 -0.1601
  472loPI   C4B 7552  11.797   4.841   8.470  0.1141 -0.0846  0.0020
  473loPI    C1 7553  15.278   2.860  11.182 -0.1518 -0.1835  0.1009
  473loPI    C2 7554  15.377   2.549  11.414  0.0877 -0.0951  0.1199
  473loPI    C3 7555  15.311   2.907  11.578 -0.0982 -0.1138  0.0882
  473loPI   PO4 7556  15.438   2.817  10.979  0.0589  0.0783  0.0350
  473loPI   GL1 7557  15.403   2.856  10.583  0.2469  0.1102  0.1666
  473loPI   GL2 7558  15.194   2.991  10.357  0.1183  0.0554  0.0431
  473loPI   C1A 7559  15.661   2.729  10.247 -0.1281  0.3053 -0.1273
  473loPI   C2A 7560  15.759   2.647   9.797 -0.2543 -0.2346  0.1364
  473loPI   C3A 7561  15.687   2.622   9.429  0.0011 -0.0619  0.1654
  473loPI   C4A 7562  15.795   2.529   9.052 -0.1312  0.1717 -0.0225
  473loPI   C5A 7563  15.778   2.438   8.614 -0.1337  0.1228 -0.2398
  473loPI   C6A 7564  15.710   2.181   8.264 -0.1506 -0.0508 -0.1185
  473loPI   C1B 7565  15.340   2.981   9.922  0.2298  0.0500 -0.0117
  473loPI   C2B 7566  15.320   2.955   9.476  0.1029 -0.1794 -0.1376
  473loPI   C3B 7567  15.385   2.946   9.056  0.2816 -0.0719  0.0334
  473loPI   C4B 7568  15.378   2.817   8.633  0.1741  0.1149 -0.0270
  474loPI    C1 7569   1.677   6.748  10.618  0.0505  0.0009  0.1197
  474loPI    C2 7570   1.938   6.473  10.491  0.0886  0.0690  0.0501
  474loPI    C3 7571   1.826   6.480  10.875  0.2829  0.1156  0.1072
  474loPI   PO4 7572   1.501   6.783  10.420 -0.1135  0.0181  0.2097
  474loPI   GL1 7573   1.645   6.590   9.978 -0.2151 -0.0996 -0.0716
  474loPI   GL2 7574   1.547   6.860   9.890 -0.0418 -0.1893  0.0532
  474loPI   C1A 7575   1.465   6.465   9.555  0.1833  0.1999 -0.0369
  474loPI   C2A 7576   1.584   6.394   9.065  0.1818  0.1109 -0.1153
  474loPI   C3A 7577   1.584   6.261   8.710 -0.2229  0.3065  0.2205
  474loPI   C4A 7578   1.797   6.087   8.240  0.2243  0.2604 -0.1429
  474loPI   C5A 7579   2.171   6.346   8.041 -0.1932  0.2061 -0.0049
  474loPI   C6A 7580   2.153   6.721   7.742 -0.0478 -0.2609 -0.0153
  474loPI   C1B 7581   1.837   6.833   9.590 -0.0061  0.3307  0.3741
  474loPI   C2B 7582   1.829   6.784   9.225 -0.4255 -0.0888  0.0799
  474loPI   C3B 7583   1.781   6.743   8.775  0.0240  0.1780 -0.1657
  474loPI   C4B 7584   1.770   6.589   8.425  0.3311  0.0853  0.3020
  475loPI    C1 7585  14.559  13.972  11.466 -0.0267  0.1693  0.2129
  475loPI    C2 7586  14.377  13.662  11.643  0.0184 -0.0231 -0.0713
  475loPI    C3 7587  14.688  13.840  11.821  0.1068 -0.2578  0.0123
  475loPI   PO4 7588  14.562  13.828  11.209 -0.2360 -0.1184 -0.0361
  475loPI   GL1 7589  14.525  13.790  10.863  0.2932  0.0287 -0.0157
  475loPI   GL2 7590  14.310  13.512  10.753  0.1119  0.1066  0.1549
  475loPI   C1A 7591  14.596  13.830  10.482 -0.1572 -0.2041  0.4938
  475loPI   C2A 7592  14.650  13.800  10.019 -0.2520  0.0069 -0.0328
  475loPI   C3A 7593  14.721  13.906   9.528  0.0415 -0.0926  0.0323
  475loPI   C4A 7594  14.766  14.009   9.128  0.1247 -0.0160  0.4049
  475loPI   C5A 7595  14.722  13.916   8.744  0.2362 -0.2060  0.1796
  475loPI   C6A 7596  14.999  13.577   8.511 -0.4914 -0.1407 -0.0735
  475loPI   C1B 7597  14.418  13.396  10.327  0.1022 -0.4051  0.0371
  475loPI   C2B 7598  14.444  13.383   9.856 -0.0558 -0.1710 -0.0936
  475loPI   C3B 7599  14.587  13.419   9.515 -0.0117  0.0960  0.0929
  475loPI   C4B 7600  14.562  13.460   9.024 -0.0568  0.3690 -0.5349
  476loPI    C1 7601   8.987   9.784  10.054  0.1870 -0.2174  0.2372
  476loPI    C2 7602   8.756   9.996  10.302  0.0416 -0.1055  0.0100
  476loPI    C3 7603   8.698   9.602  10.261  0.1446 -0.1464  0.2407
  476loPI   PO4 7604   8.973   9.889   9.832  0.3512  0.0489  0.0634
  476loPI   GL1 7605   8.824   9.735   9.443  0.0139  0.0680 -0.0378
  476loPI   GL2 7606   8.535   9.720   9.449 -0.1399  0.3571 -0.2209
  476loPI   C1A 7607   8.943   9.801   8.951  0.0523 -0.2195  0.1195
  476loPI   C2A 7608   9.128   9.755   8.501 -0.0849 -0.0770 -0.3641
  476loPI   C3A 7609   8.915   9.755   8.095  0.0179  0.2513  0.1918
  476loPI   C4A 7610   8.874   9.903   7.673  0.0102 -0.1441  0.0609
  476loPI   C5A 7611   9.019  10.287   7.296  0.0942  0.2954 -0.2356
  476loPI   C6A 7612   9.259  10.561   7.079 -0.1273 -0.3560 -0.2035
  476loPI   C1B 7613   8.470   9.818   9.055  0.0911 -0.1513  0.0340
  476loPI   C2B 7614   8.471   9.873   8.709  0.3485  0.0064 -0.3124
  476loPI   C3B 7615   8.399   9.734   8.323 -0.2129  0.2346 -0.0207
  476loPI   C4B 7616   8.431   9.868   7.902  0.0938  0.0711 -0.2383
  477loPI    C1 7617  18.149  15.192  11.180 -0.0594 -0.0666 -0.1479
  477loPI    C2 7618  18.238  14.803  11.155 -0.4367 -0.1558 -0.1507
  477loPI    C3 7619  18.013  14.938  11.457  0.0702  0.1384  0.1080
  477loPI   PO4 7620  18.218  15.361  10.927  0.1516  0.0798 -0.1484
  477loPI   GL1 7621  18.344  15.241  10.510 -0.0055 -0.3785  0.2324
  477loPI   GL2 7622  18.433  14.962  10.690  0.1718  0.0648  0.2591
  477loPI   C1A 7623  18.399  15.173  10.103 -0.2613 -0.4658  0.0299
  477loPI   C2A 7624  18.455  15.221   9.678 -0.0271  0.0453  0.0230
  477loPI   C3A 7625  18.397  15.286   9.315 -0.1515  0.0259 -0.2880
  477loPI   C4A 7626  18.406  15.370   8.880 -0.0119  0.2665  0.1213
  477loPI   C5A 7627  18.231  15.443   8.547 -0.2885  0.0208  0.0724
  477loPI   C6A 7628  18.119  15.564   8.237 -0.2413 -0.3115  0.0553
  477loPI   C1B 7629  18.294  14.740  10.260  0.0139 -0.0525  0.0705
  477loPI   C2B 7630  18.192  14.733   9.835  0.1192 -0.2706  0.0247
  477loPI   C3B 7631  18.316  14.789   9.447  0.0612 -0.0656 -0.1188
  477loPI   C4B 7632  18.213  14.814   9.008 -0.0646  0.0678  0.2883
  478loPI    C1 7633   3.661  13.804  10.943  0.0704 -0.0199 -0.0119
  478loPI    C2 7634   3.670  13.969  11.307  0.0167 -0.2973  0.1173
  478loPI    C3 7635   3.941  14.074  11.033 -0.0239  0.0117  0.1926
  478loPI   PO4 7636   3.449  13.845  10.858 -0.3095  0.2024  0.1871
  478loPI   GL1 7637   3.297  14.149  10.562  0.1076  0.1131 -0.1909
  478loPI   GL2 7638   3.597  14.237  10.519  0.2629  0.2710  0.2154
  478loPI   C1A 7639   3.101  14.076  10.145  0.1277  0.1240 -0.0657
  478loPI   C2A 7640   3.181  14.163   9.705  0.0320 -0.2126  0.2057
  478loPI   C3A 7641   3.182  14.216   9.275  0.1277 -0.0337  0.2583
  478loPI   C4A 7642   3.124  14.093   8.827 -0.0313  0.0285  0.0558
  478loPI   C5A 7643   3.056  14.131   8.425 -0.2184  0.0689  0.0221
  478loPI   C6A 7644   2.766  14.162   8.183  0.1821 -0.1849  0.0699
  478loPI   C1B 7645   3.650  14.250  10.049  0.1213  0.1477  0.1473
  478loPI   C2B 7646   3.670  14.299   9.545  0.0550  0.0317 -0.2156
  478loPI   C3B 7647   3.682  14.311   9.174  0.0201 -0.0952  0.2210
  478loPI   C4B 7648   3.662  14.283   8.764  0.0235 -0.0225 -0.1328
  479loPI    C1 7649  12.109  14.525  11.383  0.0324 -0.0094 -0.1773
  479loPI    C2 7650  11.782  14.746  11.441  0.1275  0.0425  0.1846
  479loPI    C3 7651  11.833  14.408  11.648  0.1316 -0.1580 -0.1381
  479loPI   PO4 7652  12.214  14.509  11.164 -0.1176  0.0473  0.2603
  479loPI   GL1 7653  12.241  14.611  10.748 -0.5208  0.3495 -0.2211
  479loPI   GL2 7654  11.996  14.424  10.687  0.1633  0.0573 -0.0007
  479loPI   C1A 7655  12.337  14.583  10.333  0.0491  0.2249 -0.0590
  479loPI   C2A 7656  12.523  14.674   9.933  0.1086 -0.2370 -0.1597
  479loPI   C3A 7657  12.571  14.792   9.525  0.1938 -0.0771  0.2276
  479loPI   C4A 7658  12.512  14.828   8.984 -0.0206 -0.0668  0.2471
  479loPI   C5A 7659  12.734  14.790   8.614 -0.4098  0.1658 -0.1689
  479loPI   C6A 7660  13.006  14.848   8.228 -0.0597 -0.2983  0.0894
  479loPI   C1B 7661  11.812  14.512  10.372  0.0314  0.0323 -0.0059
  479loPI   C2B 7662  12.020  14.663   9.937 -0.1054  0.0783  0.3405
  479loPI   C3B 7663  11.958  14.720   9.468 -0.4084  0.1523  0.1506
  479loPI   C4B 7664  11.981  14.703   9.049 -0.2005 -0.1765 -0.1133
  480loPI    C1 7665   8.634  10.901  10.438 -0.1753 -0.1241  0.0898
  480loPI    C2 7666   8.294  11.057  10.580 -0.0876  0.0264  0.1364
  480loPI    C3 7667   8.451  10.732  10.751 -0.1796 -0.0121  0.1482
  480loPI   PO4 7668   8.616  10.828  10.161  0.1939  0.1635 -0.2163
  480loPI   GL1 7669   8.482  10.708   9.853 -0.1359 -0.1173 -0.1588
  480loPI   GL2 7670   8.146  10.645   9.688  0.0895  0.1185 -0.2246
  480loPI   C1A 7671   8.401  11.026   9.467 -0.0058  0.0236 -0.1657
  480loPI   C2A 7672   8.335  11.240   9.245 -0.1552 -0.1488  0.1737
  480loPI   C3A 7673   8.189  11.433   8.805  0.3066  0.0593 -0.0740
  480loPI   C4A 7674   7.968  11.662   8.496  0.0950 -0.0287 -0.1096
  480loPI   C5A 7675   7.701  11.629   8.115  0.2534  0.0577 -0.1360
  480loPI   C6A 7676   7.336  11.829   7.854  0.0993 -0.0230 -0.0635
  480loPI   C1B 7677   8.187  10.661   9.223 -0.2227  0.2119  0.2211
  480loPI   C2B 7678   8.216  10.748   8.816  0.0109  0.0771 -0.0568
  480loPI   C3B 7679   8.371  10.697   8.363  0.0001  0.1879  0.1362
  480loPI   C4B 7680   8.290  10.905   7.974  0.2239 -0.2047  0.0683
  481loPI    C1 7681  13.448  17.240  11.057  0.1763 -0.1123 -0.1499
  481loPI    C2 7682  13.798  17.434  11.055  0.1860 -0.1258  0.0303
  481loPI    C3 7683  13.538  17.495  11.352 -0.0513  0.0349 -0.2052
  481loPI   PO4 7684  13.458  17.199  10.723  0.3380 -0.1407 -0.2056
  481loPI   GL1 7685  13.449  17.047  10.348 -0.1725  0.0802  0.0139
  481loPI   GL2 7686  13.629  16.773  10.553  0.2485  0.0916 -0.0991
  481loPI   C1A 7687  13.595  16.974   9.869  0.2666  0.4686  0.1008
  481loPI   C2A 7688  13.608  16.969   9.433 -0.0705  0.1373 -0.0498
  481loPI   C3A 7689  13.718  17.003   9.066  0.0125 -0.0235  0.2106
  481loPI   C4A 7690  13.523  16.950   8.616 -0.0686 -0.0282 -0.2194
  481loPI   C5A 7691  13.590  17.259   8.372 -0.2724  0.0798  0.0877
  481loPI   C6A 7692  13.536  17.546   8.085 -0.1153 -0.1794  0.1164
  481loPI   C1B 7693  13.904  16.540  10.289 -0.6591  0.0145  0.0687
  481loPI   C2B 7694  14.008  16.456   9.853  0.0803  0.1259 -0.0262
  481loPI   C3B 7695  13.968  16.568   9.405  0.0213  0.2830  0.2566
  481loPI   C4B 7696  14.078  16.616   8.953  0.1802 -0.0381  0.0357
  482loPI    C1 7697  17.786  15.597  10.926 -0.2829 -0.0310 -0.1959
  482loPI    C2 7698  17.653  15.650  11.300  0.0980 -0.1463 -0.0382
  482loPI    C3 7699  18.032  15.738  11.209 -0.0098 -0.0558 -0.4172
  482loPI   PO4 7700  17.650  15.750  10.783 -0.2752 -0.0960 -0.1049
  482loPI   GL1 7701  17.506  15.560  10.427 -0.0721  0.0163  0.1828
  482loPI   GL2 7702  17.787  15.329  10.439  0.0881  0.1818 -0.3136
  482loPI   C1A 7703  17.604  15.560   9.958 -0.0863 -0.1335  0.0053
  482loPI   C2A 7704  17.653  15.494   9.502  0.0458 -0.1606 -0.0407
  482loPI   C3A 7705  17.585  15.540   9.014 -0.3559 -0.2402  0.2323
  482loPI   C4A 7706  17.715  15.628   8.608  0.0091 -0.0151  0.3365
  482loPI   C5A 7707  17.642  15.993   8.287  0.0560 -0.0859 -0.2593
  482loPI   C6A 7708  17.400  16.283   8.158  0.0747 -0.3429 -0.3188
  482loPI   C1B 7709  17.944  15.116  10.157 -0.0672  0.2406 -0.1324
  482loPI   C2B 7710  17.957  15.137   9.726 -0.1219 -0.3010 -0.0275
  482loPI   C3B 7711  17.908  15.105   9.309 -0.0390  0.2945 -0.0864
  482loPI   C4B 7712  17.893  15.156   8.834  0.0602  0.1652 -0.3042
  483loPI    C1 7713  15.544  14.844  11.279 -0.0490 -0.1007  0.1143
  483loPI    C2 7714  15.564  15.150  11.536  0.2095 -0.0085 -0.0118
  483loPI    C3 7715  15.367  14.816  11.637 -0.0036  0.1659  0.1594
  483loPI   PO4 7716  15.777  14.765  11.187  0.1121  0.0212 -0.1044
  483loPI   GL1 7717  15.947  14.664  10.813 -0.0909 -0.0984 -0.4199
  483loPI   GL2 7718  15.964  14.921  10.614  0.0536  0.2559  0.2187
  483loPI   C1A 7719  16.156  14.382  10.470 -0.2752 -0.0656  0.2816
  483loPI   C2A 7720  16.139  14.246  10.011 -0.2377  0.2097  0.0202
  483loPI   C3A 7721  16.197  14.228   9.591 -0.0382  0.0618  0.0483
  483loPI   C4A 7722  16.148  14.327   9.187  0.2706  0.0676  0.0450
  483loPI   C5A 7723  16.237  14.351   8.841 -0.1401 -0.2944  0.2466
  483loPI   C6A 7724  16.243  14.432   8.312  0.2268 -0.1863  0.2118
  483loPI   C1B 7725  15.899  14.718  10.196 -0.0301  0.1170  0.0384
  483loPI   C2B 7726  15.835  14.573   9.712  0.0769 -0.2002 -0.0507
  483loPI   C3B 7727  15.822  14.667   9.339 -0.2227 -0.3348 -0.1739
  483loPI   C4B 7728  15.838  14.698   8.930 -0.1025 -0.1326  0.1202
  484loPI    C1 7729   8.161  12.702  10.615  0.0264 -0.1467 -0.0849
  484loPI    C2 7730   8.419  12.397  10.589  0.2853  0.0507  0.1090
  484loPI    C3 7731   8.086  12.358  10.806  0.2013 -0.1692 -0.0547
  484loPI   PO4 7732   8.041  12.892  10.333 -0.0086  0.1982 -0.0237
  484loPI   GL1 7733   8.160  13.003   9.964 -0.1607  0.0284  0.0814
  484loPI   GL2 7734   8.053  13.249   9.932  0.4027 -0.2791 -0.0119
  484loPI   C1A 7735   8.210  12.966   9.520  0.0615  0.0124  0.1513
  484loPI   C2A 7736   8.097  12.951   9.014  0.1321 -0.2137 -0.0804
  484loPI   C3A 7737   8.148  12.922   8.570  0.0146  0.0570  0.2136
  484loPI   C4A 7738   8.080  12.970   8.197 -0.0760  0.0827 -0.0415
  484loPI   C5A 7739   8.310  13.162   7.883  0.1456  0.2528 -0.1770
  484loPI   C6A 7740   8.717  13.080   7.618  0.0337 -0.1046 -0.1315
  484loPI   C1B 7741   7.864  13.349   9.656 -0.1208 -0.0562 -0.4794
  484loPI   C2B 7742   7.873  13.293   9.261  0.0939 -0.0244  0.3518
  484loPI   C3B 7743   7.676  13.409   8.820 -0.1544  0.1955 -0.1503
  484loPI   C4B 7744   7.742  13.434   8.390 -0.0396 -0.1804  0.0208
  485loPI    C1 7745  10.193   1.168  11.285  0.2113 -0.0386  0.0640
  485loPI    C2 7746   9.866   1.036  11.474  0.1337 -0.1869 -0.1701
  485loPI    C3 7747  10.208   0.832  11.501  0.1933 -0.0638  0.0263
  485loPI   PO4 7748  10.137   1.214  11.074  0.0709 -0.0434  0.1053
  485loPI   GL1 7749  10.196   1.129  10.720 -0.0501  0.2957  0.2019
  485loPI   GL2 7750   9.946   0.930  10.675  0.1488 -0.0915 -0.2375
  485loPI   C1A 7751  10.421   1.059  10.333 -0.1694 -0.2598  0.2699
  485loPI   C2A 7752  10.512   1.014   9.873  0.0463 -0.1196 -0.0642
  485loPI   C3A 7753  10.499   0.903   9.380 -0.2448 -0.0885 -0.0306
  485loPI   C4A 7754  10.460   0.850   8.885 -0.1321  0.1641 -0.4630
  485loPI   C5A 7755  10.493   1.076   8.452 -0.1185 -0.0484 -0.5346
  485loPI   C6A 7756  10.583   1.105   8.003 -0.0240  0.0409 -0.0956
  485loPI   C1B 7757   9.964   0.837  10.268 -0.1557 -0.2198 -0.0547
  485loPI   C2B 7758   9.969   0.883   9.826 -0.2036  0.1434 -0.1174
  485loPI   C3B 7759   9.982   0.786   9.440 -0.0764 -0.0637 -0.0474
  485loPI   C4B 7760  10.092   0.679   9.117  0.1185 -0.2785 -0.0542
  486loPI    C1 7761   7.022   2.329  11.194  0.2953  0.1659  0.0083
  486loPI    C2 7762   7.180   2.338  11.561  0.1978  0.1069  0.0518
  486loPI    C3 7763   7.129   1.988  11.374  0.0298  0.1171  0.0770
  486loPI   PO4 7764   7.114   2.363  10.940 -0.0477 -0.1481  0.0568
  486loPI   GL1 7765   6.987   2.266  10.489 -0.3196  0.2529  0.1783
  486loPI   GL2 7766   7.074   2.401  10.195 -0.0953 -0.1042  0.1866
  486loPI   C1A 7767   6.958   1.829  10.206  0.2491 -0.2174  0.3495
  486loPI   C2A 7768   7.008   1.977   9.833 -0.1999  0.2039  0.1577
  486loPI   C3A 7769   7.084   1.900   9.434 -0.1625 -0.1153 -0.0260
  486loPI   C4A 7770   7.036   1.974   8.972  0.4902 -0.3670 -0.2571
  486loPI   C5A 7771   7.227   1.903   8.565 -0.2472 -0.1299  0.1818
  486loPI   C6A 7772   7.423   2.105   8.139 -0.0820  0.1908  0.2942
  486loPI   C1B 7773   7.219   2.403   9.753  0.3779 -0.0369  0.1233
  486loPI   C2B 7774   7.174   2.478   9.398 -0.2288  0.2393  0.0409
  486loPI   C3B 7775   7.224   2.410   8.915  0.1998 -0.2407  0.1072
  486loPI   C4B 7776   7.295   2.424   8.486 -0.1257  0.2795 -0.2873
  487loPI    C1 7777  12.987  12.331  11.165  0.3295  0.2854  0.0714
  487loPI    C2 7778  13.353  12.203  11.067  0.2610 -0.1616  0.3721
  487loPI    C3 7779  13.136  12.001  11.336 -0.2566  0.0276  0.1082
  487loPI   PO4 7780  12.829  12.356  10.878 -0.2332  0.2576 -0.0766
  487loPI   GL1 7781  12.810  12.571  10.533 -0.3057  0.1385 -0.0951
  487loPI   GL2 7782  12.919  12.953  10.646 -0.1979  0.0069 -0.3123
  487loPI   C1A 7783  12.812  12.771  10.193  0.1558  0.1710 -0.2655
  487loPI   C2A 7784  12.911  12.927   9.735  0.0867 -0.2802 -0.1388
  487loPI   C3A 7785  12.922  13.092   9.340 -0.3182 -0.3299  0.0463
  487loPI   C4A 7786  12.929  13.123   8.891 -0.2194 -0.0801  0.2339
  487loPI   C5A 7787  12.884  13.057   8.553  0.1861 -0.1795 -0.2633
  487loPI   C6A 7788  13.324  13.080   8.357 -0.0615  0.1774  0.1426
  487loPI   C1B 7789  13.193  12.945  10.392  0.1677 -0.0045  0.0968
  487loPI   C2B 7790  13.423  13.077  10.076  0.3912 -0.0060 -0.1004
  487loPI   C3B 7791  13.561  13.120   9.769 -0.0415 -0.1168 -0.3005
  487loPI   C4B 7792  13.432  13.240   9.310  0.1719 -0.0338  0.1588
  488loPI    C1 7793   6.113  17.953  11.099  0.0169  0.0630  0.1473
  488loPI    C2 7794   6.304  17.643  11.265 -0.0337 -0.0471  0.0019
  488loPI    C3 7795   6.393  18.016  11.378  0.2090 -0.1015 -0.0049
  488loPI   PO4 7796   6.060  17.884  10.915  0.3032  0.0327 -0.4902
  488loPI   GL1 7797   6.044  17.685  10.492  0.1212  0.0976 -0.3810
  488loPI   GL2 7798   5.805  17.937  10.401 -0.0610  0.2226 -0.1983
  488loPI   C1A 7799   6.130  17.591  10.157  0.3491 -0.2147 -0.3088
  488loPI   C2A 7800   6.200  17.560   9.735  0.3535 -0.3028 -0.0622
  488loPI   C3A 7801   6.212  17.623   9.301 -0.2220  0.2321 -0.0952
  488loPI   C4A 7802   6.152  17.609   8.868  0.1923  0.1309 -0.0702
  488loPI   C5A 7803   6.040  17.595   8.434 -0.1727 -0.0287 -0.0146
  488loPI   C6A 7804   5.994  17.567   8.040 -0.1354  0.1805  0.1293
  488loPI   C1B 7805   5.815  17.910   9.892  0.2575 -0.5403  0.0153
  488loPI   C2B 7806   5.791  17.950   9.457  0.1824 -0.2371  0.0735
  488loPI   C3B 7807   5.882  17.987   8.978 -0.2067 -0.2612  0.0899
  488loPI   C4B 7808   5.894  18.140   8.565  0.0822 -0.2950  0.1786
  489loPI    C1 7809  12.142  16.014  11.374  0.0015  0.1562  0.0429
  489loPI    C2 7810  12.425  15.994  11.656 -0.0593  0.2721  0.1128
  489loPI    C3 7811  12.066  15.832  11.722  0.0011  0.0937  0.0101
  489loPI   PO4 7812  12.236  16.088  11.249  0.0867  0.1232 -0.1417
  489loPI   GL1 7813  12.223  15.899  10.826  0.0025 -0.2330  0.0633
  489loPI   GL2 7814  12.070  15.765  10.657 -0.0904  0.1645 -0.1178
  489loPI   C1A 7815  12.479  16.049  10.465  0.0255 -0.1615 -0.2669
  489loPI   C2A 7816  12.475  16.276  10.090  0.0932  0.2837 -0.0932
  489loPI   C3A 7817  12.491  16.183   9.567  0.0075  0.1879 -0.0364
  489loPI   C4A 7818  12.473  16.283   9.178  0.0257  0.2454 -0.0337
  489loPI   C5A 7819  12.429  16.218   8.789  0.0229 -0.0169 -0.0248
  489loPI   C6A 7820  12.440  16.338   8.438 -0.2130 -0.0842 -0.3696
  489loPI   C1B 7821  11.984  16.041  10.303  0.3383  0.1502  0.0881
  489loPI   C2B 7822  12.082  16.081   9.847 -0.1844  0.0938  0.0340
  489loPI   C3B 7823  12.019  16.089   9.402 -0.0839  0.1590 -0.0518
  489loPI   C4B 7824  11.978  16.163   8.948  0.0603  0.1040  0.1648
  490loPI    C1 7825   3.071  14.699  11.311 -0.0004  0.0397 -0.0182
  490loPI    C2 7826   2.948  15.003  11.540 -0.0552  0.1044 -0.1325
  490loPI    C3 7827   2.689  14.718  11.429  0.0449 -0.1030  0.1551
  490loPI   PO4 7828   3.139  14.781  11.078  0.0774  0.1226  0.1375
  490loPI   GL1 7829   3.133  14.706  10.640 -0.2035 -0.2849 -0.3592
  490loPI   GL2 7830   2.966  14.989  10.596  0.2217 -0.0133 -0.1103
  490loPI   C1A 7831   3.346  14.593  10.300  0.1872  0.0071  0.5718
  490loPI   C2A 7832   3.311  14.636   9.886  0.0132  0.1421  0.1164
  490loPI   C3A 7833   3.316  14.645   9.380 -0.0628 -0.0710  0.3064
  490loPI   C4A 7834   3.368  14.681   8.956 -0.0511  0.1245 -0.1100
  490loPI   C5A 7835   3.329  14.596   8.570  0.1931  0.0809  0.0910
  490loPI   C6A 7836   3.490  14.293   8.299 -0.1375  0.1490  0.0002
  490loPI   C1B 7837   2.934  15.054  10.056 -0.1739  0.0850 -0.0180
  490loPI   C2B 7838   3.034  14.960   9.623 -0.0501 -0.0170 -0.0769
  490loPI   C3B 7839   3.072  15.026   9.155 -0.0812  0.0615 -0.4012
  490loPI   C4B 7840   3.018  14.998   8.680  0.1469  0.1104 -0.0532
  491loPI    C1 7841   4.633   1.022  10.898 -0.0123  0.2993 -0.2181
  491loPI    C2 7842   4.372   0.774  11.073  0.2608  0.0217 -0.1961
  491loPI    C3 7843   4.444   1.134  11.232 -0.0206  0.0547 -0.1386
  491loPI   PO4 7844   4.584   0.944  10.655  0.1799 -0.4044 -0.1911
  491loPI   GL1 7845   4.872   0.685  10.408  0.1216  0.0758 -0.4098
  491loPI   GL2 7846   5.214   0.647  10.283  0.1353  0.1887 -0.0770
  491loPI   C1A 7847   4.820   0.786  10.027  0.0994 -0.0381  0.0482
  491loPI   C2A 7848   4.837   0.846   9.631  0.1529  0.2967  0.3591
  491loPI   C3A 7849   4.810   0.991   9.201 -0.0910 -0.1654  0.0437
  491loPI   C4A 7850   4.876   1.005   8.817 -0.0174  0.3007  0.1742
  491loPI   C5A 7851   4.748   1.064   8.386  0.1454  0.0395  0.0586
  491loPI   C6A 7852   4.602   1.295   8.024 -0.2627  0.3603  0.3773
  491loPI   C1B 7853   5.221   0.558   9.876 -0.1814 -0.0162  0.0136
  491loPI   C2B 7854   5.122   0.529   9.418 -0.0819  0.3871 -0.1546
  491loPI   C3B 7855   5.160   0.637   9.081 -0.1887 -0.0115 -0.1465
  491loPI   C4B 7856   5.089   0.610   8.590 -0.1945 -0.1247 -0.1209
  492loPI    C1 7857   6.322  15.368  11.072  0.0305  0.2713  0.0477
  492loPI    C2 7858   6.223  15.241  11.438  0.2209  0.0294  0.0177
  492loPI    C3 7859   6.294  15.629  11.374 -0.2020  0.1332  0.1484
  492loPI   PO4 7860   6.209  15.337  10.897  0.0181  0.0319 -0.1841
  492loPI   GL1 7861   6.167  15.181  10.512  0.0992  0.1613 -0.0849
  492loPI   GL2 7862   6.194  15.498  10.426 -0.0812 -0.1066  0.2532
  492loPI   C1A 7863   5.928  15.178  10.118 -0.0548 -0.2017 -0.1168
  492loPI   C2A 7864   5.869  15.138   9.661 -0.0246 -0.2045  0.1592
  492loPI   C3A 7865   5.932  15.201   9.201  0.0594 -0.1498  0.0617
  492loPI   C4A 7866   5.827  15.249   8.751  0.0188 -0.3260 -0.0363
  492loPI   C5A 7867   5.804  15.167   8.347 -0.3500 -0.1530 -0.0257
  492loPI   C6A 7868   5.498  15.152   8.067 -0.0768 -0.2510  0.2972
  492loPI   C1B 7869   6.079  15.632  10.035 -0.1126  0.3308 -0.2699
  492loPI   C2B 7870   6.021  15.667   9.704 -0.2397 -0.2032  0.1254
  492loPI   C3B 7871   6.007  15.715   9.238  0.0662 -0.3197 -0.1129
  492loPI   C4B 7872   6.057  15.747   8.829 -0.3973  0.1846  0.3774
  493loPI    C1 7873   9.754  10.165  10.256  0.1097  0.2385  0.3775
  493loPI    C2 7874   9.516   9.844  10.266  0.1389  0.1895 -0.1815
  493loPI    C3 7875   9.618  10.028  10.606 -0.1654 -0.1764  0.1172
  493loPI   PO4 7876   9.802  10.168   9.985 -0.1806  0.2393  0.2628
  493loPI   GL1 7877   9.862  10.335   9.625  0.0561  0.0385 -0.0163
  493loPI   GL2 7878   9.965  10.679   9.701  0.1075  0.0825 -0.1087
  493loPI   C1A 7879   9.678  10.480   9.254 -0.0574 -0.2625 -0.0148
  493loPI   C2A 7880   9.630  10.614   8.801  0.1084  0.2367  0.0007
  493loPI   C3A 7881   9.600  10.567   8.531  0.0876 -0.2359  0.0254
  493loPI   C4A 7882   9.659  10.389   8.249 -0.0584  0.3746 -0.2125
  493loPI   C5A 7883   9.822  10.262   7.813  0.0518 -0.1608 -0.1864
  493loPI   C6A 7884   9.583  10.333   7.477 -0.1550 -0.0690  0.0122
  493loPI   C1B 7885   9.958  10.889   9.203 -0.2104  0.0593  0.0268
  493loPI   C2B 7886   9.991  10.954   8.728  0.1467 -0.3504 -0.2220
  493loPI   C3B 7887  10.109  10.795   8.305 -0.0868 -0.0564  0.1171
  493loPI   C4B 7888  10.034  10.665   8.040  0.0658 -0.0497  0.2667
  494loPI    C1 7889  12.259  13.939  11.170  0.0054  0.0322  0.0953
  494loPI    C2 7890  12.050  13.973  11.510  0.1446  0.0926  0.1755
  494loPI    C3 7891  12.429  14.100  11.495  0.0772  0.2720 -0.0586
  494loPI   PO4 7892  12.191  14.051  10.957  0.0432  0.0710 -0.2834
  494loPI   GL1 7893  11.989  13.950  10.607 -0.2891 -0.0877  0.0717
  494loPI   GL2 7894  11.959  13.660  10.537  0.0256  0.2010  0.1115
  494loPI   C1A 7895  12.130  14.166  10.314  0.1335 -0.1268  0.1955
  494loPI   C2A 7896  12.335  14.215   9.990  0.2810 -0.0459  0.1907
  494loPI   C3A 7897  12.365  14.256   9.619 -0.0300 -0.2122 -0.1454
  494loPI   C4A 7898  12.292  14.351   9.241 -0.0770  0.2832  0.0877
  494loPI   C5A 7899  12.373  14.334   8.770 -0.0192  0.0465 -0.0022
  494loPI   C6A 7900  12.142  14.151   8.371  0.1168 -0.2549 -0.2284
  494loPI   C1B 7901  12.037  13.684  10.108 -0.0454 -0.1958  0.0899
  494loPI   C2B 7902  12.216  13.795   9.710 -0.0555  0.1030 -0.1015
  494loPI   C3B 7903  12.240  13.851   9.312 -0.1169  0.0668  0.2203
  494loPI   C4B 7904  12.409  13.850   8.862  0.1973 -0.0214  0.1428
  495loPI    C1 7905   3.760   8.856  10.294  0.0065  0.1615  0.0863
  495loPI    C2 7906   3.457   8.867  10.555  0.0848 -0.1899  0.1977
  495loPI    C3 7907   3.760   9.126  10.590 -0.1508  0.0987  0.1446
  495loPI   PO4 7908   3.595   8.789  10.011  0.0390 -0.0923 -0.1488
  495loPI   GL1 7909   3.671   8.800   9.582  0.5127 -0.4596 -0.2294
  495loPI   GL2 7910   3.878   8.630   9.403  0.1143 -0.0897  0.0390
  495loPI   C1A 7911   3.499   9.039   9.205 -0.2996  0.0787 -0.0140
  495loPI   C2A 7912   3.503   9.028   8.786  0.1825 -0.0363  0.1103
  495loPI   C3A 7913   3.411   9.139   8.344  0.0188 -0.2352  0.1142
  495loPI   C4A 7914   3.491   9.078   7.899  0.1601 -0.2430  0.1046
  495loPI   C5A 7915   3.338   8.974   7.473 -0.0930  0.1258  0.1076
  495loPI   C6A 7916   3.291   8.870   7.060  0.1780 -0.0481 -0.0417
  495loPI   C1B 7917   3.956   8.826   9.041 -0.0432 -0.2541  0.1402
  495loPI   C2B 7918   3.954   8.956   8.616 -0.0891  0.1049 -0.0404
  495loPI   C3B 7919   3.997   9.215   8.252  0.0160  0.2072  0.2553
  495loPI   C4B 7920   4.033   9.244   7.874  0.0674 -0.0038  0.0608
  496loPI    C1 7921   5.699   1.249  11.168 -0.1410 -0.0308 -0.2121
  496loPI    C2 7922   5.344   1.066  11.177 -0.0702 -0.1645 -0.0864
  496loPI    C3 7923   5.628   0.963  11.439 -0.0267  0.1223 -0.0175
  496loPI   PO4 7924   5.819   1.170  10.887  0.2599 -0.0712  0.1656
  496loPI   GL1 7925   5.966   0.896  10.554  0.1188  0.0565 -0.1042
  496loPI   GL2 7926   5.733   0.667  10.513 -0.0424 -0.0252  0.0445
  496loPI   C1A 7927   6.195   0.773  10.260  0.0466  0.2671  0.0079
  496loPI   C2A 7928   6.179   0.676   9.794  0.0064  0.0984  0.2068
  496loPI   C3A 7929   6.140   0.688   9.390  0.2191 -0.1657  0.1632
  496loPI   C4A 7930   6.183   0.787   9.105  0.1243 -0.0811 -0.0340
  496loPI   C5A 7931   6.142   0.793   8.656 -0.0567  0.1755 -0.0044
  496loPI   C6A 7932   6.209   0.709   8.270 -0.1793 -0.2772 -0.5203
  496loPI   C1B 7933   5.702   0.707  10.054  0.4802  0.2086 -0.0875
  496loPI   C2B 7934   5.649   0.568   9.587 -0.2284  0.1072 -0.0696
  496loPI   C3B 7935   5.675   0.559   9.138 -0.2636 -0.0495 -0.0237
  496loPI   C4B 7936   5.699   0.716   8.828 -0.3083 -0.1454  0.1737
  497loPI    C1 7937  15.386  10.082  10.470 -0.0554  0.3334  0.0858
  497loPI    C2 7938  15.339   9.732  10.659 -0.0808  0.2993  0.0168
  497loPI    C3 7939  15.062  10.017  10.696 -0.0773  0.2991  0.0447
  497loPI   PO4 7940  15.464   9.940  10.203 -0.1268 -0.4155 -0.0499
  497loPI   GL1 7941  15.507   9.751   9.903  0.1156  0.1704 -0.0274
  497loPI   GL2 7942  15.815   9.683   9.848  0.0166 -0.0084 -0.0505
  497loPI   C1A 7943  15.273   9.827   9.550 -0.0412 -0.4878 -0.2227
  497loPI   C2A 7944  15.338   9.949   9.096 -0.0551  0.2180  0.0792
  497loPI   C3A 7945  15.238   9.927   8.716  0.2407 -0.1482  0.0037
  497loPI   C4A 7946  15.250   9.869   8.383  0.0117  0.2846 -0.0634
  497loPI   C5A 7947  15.402   9.788   7.979 -0.3469 -0.0220 -0.0186
  497loPI   C6A 7948  15.573   9.746   7.515  0.0392 -0.0515 -0.0836
  497loPI   C1B 7949  15.731   9.935   9.399 -0.1092 -0.1078 -0.2394
  497loPI   C2B 7950  15.911  10.074   9.034  0.0747  0.0864 -0.2270
  497loPI   C3B 7951  15.742   9.968   8.641 -0.1383  0.1616  0.0216
  497loPI   C4B 7952  15.757  10.001   8.228 -0.0567 -0.1069  0.0487
  498loPI    C1 7953   8.445  14.395  10.512 -0.0313 -0.0698 -0.1387
  498loPI    C2 7954   8.578  14.609  10.822  0.1290  0.1105 -0.3289
  498loPI    C3 7955   8.496  14.221  10.868 -0.1197  0.1980  0.0082
  498loPI   PO4 7956   8.654  14.397  10.328 -0.1776 -0.1664  0.1447
  498loPI   GL1 7957   8.526  14.287   9.949 -0.1089 -0.0975 -0.0007
  498loPI   GL2 7958   8.206  14.302   9.879  0.2168 -0.1052  0.0609
  498loPI   C1A 7959   8.606  14.461   9.473 -0.1816 -0.0736 -0.0820
  498loPI   C2A 7960   8.587  14.415   9.017  0.1092  0.2210 -0.1695
  498loPI   C3A 7961   8.475  14.513   8.574  0.2013 -0.1096 -0.1827
  498loPI   C4A 7962   8.505  14.536   8.120  0.3258  0.1045 -0.2436
  498loPI   C5A 7963   8.741  14.767   7.832  0.1229  0.1990 -0.0881
  498loPI   C6A 7964   9.027  15.058   7.716 -0.1086  0.0654  0.3003
  498loPI   C1B 7965   8.140  14.292   9.455  0.1021 -0.0958 -0.0325
  498loPI   C2B 7966   8.089  14.291   8.904 -0.2888 -0.1942 -0.0147
  498loPI   C3B 7967   7.954  14.326   8.475 -0.1908 -0.0187 -0.1980
  498loPI   C4B 7968   7.983  14.370   8.018 -0.0546  0.0716 -0.3234
  499loPI    C1 7969   7.247  12.757  10.568 -0.0678  0.0073  0.0175
  499loPI    C2 7970   7.158  13.079  10.789  0.2619  0.0459  0.0998
  499loPI    C3 7971   7.196  12.720  10.963 -0.2377 -0.0678 -0.0108
  499loPI   PO4 7972   7.389  12.944  10.335 -0.3789  0.0697  0.0480
  499loPI   GL1 7973   7.616  13.006   9.969 -0.1025 -0.1315  0.0818
  499loPI   GL2 7974   7.818  12.656   9.863  0.2307  0.2979 -0.1880
  499loPI   C1A 7975   7.384  13.216   9.681  0.0592  0.1596 -0.1146
  499loPI   C2A 7976   7.329  13.200   9.291 -0.4782 -0.4096 -0.0387
  499loPI   C3A 7977   7.238  13.208   8.817  0.0382 -0.1331 -0.0678
  499loPI   C4A 7978   7.172  13.302   8.432  0.0566  0.0438 -0.2500
  499loPI   C5A 7979   6.942  13.393   8.178 -0.1937  0.0573 -0.0608
  499loPI   C6A 7980   6.928  13.366   7.743  0.5132  0.0447 -0.2336
  499loPI   C1B 7981   7.620  12.870   9.438 -0.1025  0.1009  0.2845
  499loPI   C2B 7982   7.621  12.896   8.978  0.2049  0.2162  0.3515
  499loPI   C3B 7983   7.596  12.917   8.625  0.0425 -0.0965 -0.1999
  499loPI   C4B 7984   7.491  12.667   8.248  0.1372  0.0759 -0.0464
  500loPI    C1 7985  14.699   4.404  10.657 -0.1599 -0.0059 -0.1083
  500loPI    C2 7986  14.794   4.783  10.743 -0.0773  0.0286 -0.3430
  500loPI    C3 7987  14.928   4.486  10.975 -0.1257  0.1401 -0.1697
  500loPI   PO4 7988  14.645   4.420  10.357  0.2429  0.1781 -0.4981
  500loPI   GL1 7989  14.430   4.344  10.129 -0.1293  0.0209 -0.0953
  500loPI   GL2 7990  14.544   4.619   9.896  0.2521 -0.1278  0.1366
  500loPI   C1A 7991  14.320   4.168   9.769  0.3416  0.0619 -0.1905
  500loPI   C2A 7992  14.288   4.162   9.350  0.0118 -0.1009 -0.0421
  500loPI   C3A 7993  14.328   4.056   8.906 -0.4222  0.2487  0.1268
  500loPI   C4A 7994  14.411   3.993   8.502  0.1359 -0.3890 -0.4310
  500loPI   C5A 7995  14.352   4.025   8.148 -0.1301 -0.0334 -0.1913
  500loPI   C6A 7996  14.028   3.987   7.878  0.3623  0.1530 -0.1584
  500loPI   C1B 7997  14.456   4.576   9.440 -0.0181 -0.1810 -0.0713
  500loPI   C2B 7998  14.475   4.528   9.078 -0.0714  0.0271  0.4290
  500loPI   C3B 7999  14.496   4.513   8.641 -0.1014 -0.0089 -0.1847
  500loPI   C4B 8000  14.621   4.430   8.262 -0.0190 -0.1244 -0.5362
  501loPI    C1 8001   5.494   7.789  10.105 -0.1655 -0.0218  0.0240
  501loPI    C2 8002   5.387   8.127  10.290  0.0049 -0.0294  0.1387
  501loPI    C3 8003   5.719   7.933  10.403 -0.0825 -0.2261  0.0622
  501loPI   PO4 8004   5.558   7.875   9.887  0.4181 -0.1406  0.1174
  501loPI   GL1 8005   5.448   7.778   9.527 -0.0066  0.0335  0.0474
  501loPI   GL2 8006   5.501   8.085   9.403 -0.2722 -0.0570  0.0462
  501loPI   C1A 8007   5.415   7.570   9.203 -0.0349  0.2607  0.0431
  501loPI   C2A 8008   5.305   7.628   8.826 -0.3247  0.0804 -0.0311
  501loPI   C3A 8009   5.451   7.601   8.539 -0.1014  0.2136 -0.0847
  501loPI   C4A 8010   5.319   7.750   8.175  0.3848 -0.2301  0.3728
  501loPI   C5A 8011   5.469   7.705   7.673 -0.0499  0.1163  0.0400
  501loPI   C6A 8012   5.901   7.481   7.404  0.0809 -0.0021 -0.0040
  501loPI   C1B 8013   5.558   8.064   8.913 -0.1822  0.2290  0.2896
  501loPI   C2B 8014   5.550   8.188   8.486  0.0932  0.0120 -0.0663
  501loPI   C3B 8015   5.631   8.108   8.002  0.1789 -0.0336 -0.1519
  501loPI   C4B 8016   5.877   8.024   7.513 -0.1046 -0.0094 -0.1968
  502loPI    C1 8017   3.123  16.493  11.085  0.0640 -0.0468  0.0460
  502loPI    C2 8018   2.939  16.140  11.126 -0.1020  0.0536  0.1779
  502loPI    C3 8019   3.169  16.280  11.421 -0.1182  0.1019  0.1676
  502loPI   PO4 8020   2.968  16.623  10.936 -0.1886  0.0185 -0.0614
  502loPI   GL1 8021   3.028  16.664  10.390  0.0536 -0.0155 -0.3503
  502loPI   GL2 8022   2.993  16.788  10.064  0.3118 -0.0617  0.0355
  502loPI   C1A 8023   3.319  16.403  10.161  0.0199  0.2446 -0.1880
  502loPI   C2A 8024   3.387  16.439   9.781 -0.1617  0.0992 -0.2186
  502loPI   C3A 8025   3.424  16.414   9.319 -0.1424  0.0395 -0.0782
  502loPI   C4A 8026   3.474  16.401   8.930 -0.1163 -0.0681 -0.0475
  502loPI   C5A 8027   3.435  16.631   8.554 -0.3254 -0.1455  0.2810
  502loPI   C6A 8028   3.709  16.899   8.397  0.0721  0.3681  0.6252
  502loPI   C1B 8029   3.068  16.734   9.572 -0.0602 -0.3324 -0.2464
  502loPI   C2B 8030   3.117  16.829   9.136 -0.1478  0.2045 -0.0058
  502loPI   C3B 8031   2.979  16.807   8.714 -0.0765  0.1289  0.0695
  502loPI   C4B 8032   2.960  16.596   8.431 -0.1882 -0.1029  0.0335
  503loPI    C1 8033  13.776  14.370  11.385 -0.2376  0.1802 -0.0748
  503loPI    C2 8034  13.803  14.768  11.422  0.0474  0.1632 -0.0762
  503loPI    C3 8035  14.022  14.530  11.658 -0.3501 -0.0012  0.1355
  503loPI   PO4 8036  13.728  14.264  11.102  0.1921  0.2298 -0.0996
  503loPI   GL1 8037  13.586  14.175  10.602  0.3539  0.1330 -0.0553
  503loPI   GL2 8038  13.679  14.429  10.638  0.2071 -0.1235 -0.0168
  503loPI   C1A 8039  13.669  14.058  10.209  0.1228 -0.1327 -0.4074
  503loPI   C2A 8040  13.770  14.254   9.728  0.1355  0.2822 -0.0616
  503loPI   C3A 8041  13.875  14.212   9.317 -0.2513  0.2849 -0.0129
  503loPI   C4A 8042  13.788  14.020   8.910  0.0310  0.3202  0.1497
  503loPI   C5A 8043  13.378  13.743   8.665  0.2388  0.2571 -0.3643
  503loPI   C6A 8044  13.047  13.518   8.496  0.2102 -0.1451  0.1694
  503loPI   C1B 8045  13.871  14.677  10.438  0.0128 -0.4010  0.2009
  503loPI   C2B 8046  13.972  14.614  10.010 -0.2145  0.1232 -0.3074
  503loPI   C3B 8047  14.004  14.644   9.555 -0.0942 -0.1616  0.0742
  503loPI   C4B 8048  13.919  14.640   9.060  0.1208 -0.3041  0.1956
  504loPI    C1 8049  11.727   9.629  10.124  0.1210  0.0241 -0.0688
  504loPI    C2 8050  11.690  10.004  10.260  0.1870  0.0230 -0.0469
  504loPI    C3 8051  11.810   9.712  10.506  0.2167  0.0031 -0.0846
  504loPI   PO4 8052  11.529   9.647   9.999 -0.0201  0.2442 -0.0440
  504loPI   GL1 8053  11.331   9.401   9.593 -0.1876 -0.1931 -0.1239
  504loPI   GL2 8054  11.565   9.669   9.498 -0.4404 -0.0915 -0.0527
  504loPI   C1A 8055  11.262   9.267   9.185 -0.0097  0.1195  0.1687
  504loPI   C2A 8056  11.403   9.199   8.774 -0.2068 -0.0992  0.3276
  504loPI   C3A 8057  11.531   9.209   8.379 -0.1509 -0.0937 -0.1618
  504loPI   C4A 8058  11.628   9.051   7.952  0.0499 -0.1007  0.0755
  504loPI   C5A 8059  11.511   8.779   7.697  0.3130 -0.1201 -0.0077
  504loPI   C6A 8060  11.298   8.847   7.286  0.1264  0.1125 -0.2979
  504loPI   C1B 8061  11.546   9.668   9.073  0.5108 -0.0622 -0.0796
  504loPI   C2B 8062  11.588   9.814   8.643 -0.0572  0.1172 -0.2930
  504loPI   C3B 8063  11.523   9.952   8.207  0.2669 -0.2263 -0.0746
  504loPI   C4B 8064  11.306  10.077   7.838  0.4125  0.0881  0.1361
  505loPI    C1 8065   7.605  15.810  10.792  0.0111 -0.2140  0.0242
  505loPI    C2 8066   7.758  16.153  10.928 -0.3179 -0.0841  0.0765
  505loPI    C3 8067   7.441  15.989  11.110 -0.3230 -0.2807 -0.1055
  505loPI   PO4 8068   7.534  15.827  10.576 -0.1964 -0.0990 -0.1587
  505loPI   GL1 8069   7.554  15.680  10.255 -0.1211 -0.0868 -0.1204
  505loPI   GL2 8070   7.393  15.370  10.176 -0.0576 -0.1152 -0.0546
  505loPI   C1A 8071   7.665  16.002   9.914  0.0636  0.0053 -0.0183
  505loPI   C2A 8072   7.634  15.961   9.533  0.0070  0.1842  0.2911
  505loPI   C3A 8073   7.515  16.014   9.068 -0.0504  0.0578 -0.0290
  505loPI   C4A 8074   7.485  16.120   8.700 -0.1594  0.1072 -0.0389
  505loPI   C5A 8075   7.392  16.233   8.161  0.0039  0.1617  0.3367
  505loPI   C6A 8076   7.467  16.392   7.681  0.0468  0.1335  0.3092
  505loPI   C1B 8077   7.494  15.507   9.719 -0.1405  0.1349  0.4509
  505loPI   C2B 8078   7.508  15.515   9.230 -0.0614  0.0713 -0.2464
  505loPI   C3B 8079   7.463  15.543   8.786  0.0121  0.2005 -0.3709
  505loPI   C4B 8080   7.374  15.694   8.413  0.0265  0.0746  0.0336
  506loPI    C1 8081  16.416   8.351  10.229 -0.2708  0.2529  0.0426
  506loPI    C2 8082  16.726   8.249  10.459 -0.1904 -0.0429 -0.1900
  506loPI    C3 8083  16.467   8.527  10.584  0.1196  0.1474  0.0428
  506loPI   PO4 8084  16.568   8.315  10.018  0.0309 -0.0265  0.2287
  506loPI   GL1 8085  16.611   8.314   9.601 -0.0669  0.1807  0.0359
  506loPI   GL2 8086  16.480   8.670   9.510  0.0614  0.0310 -0.0685
  506loPI   C1A 8087  16.561   8.249   9.169 -0.3929  0.1399  0.0627
  506loPI   C2A 8088  16.589   8.255   8.680 -0.1429  0.0567 -0.1773
  506loPI   C3A 8089  16.674   8.344   8.217  0.0436  0.0750 -0.0015
  506loPI   C4A 8090  16.635   8.327   7.751 -0.2199 -0.3010  0.3522
  506loPI   C5A 8091  16.507   8.461   7.360  0.0146  0.4684  0.1916
  506loPI   C6A 8092  16.536   8.719   6.974 -0.3056 -0.0993  0.3096
  506loPI   C1B 8093  16.363   8.703   9.019 -0.0319  0.1671  0.1750
  506loPI   C2B 8094  16.269   8.684   8.674 -0.0105  0.0663  0.0299
  506loPI   C3B 8095  16.274   8.734   8.218 -0.0994  0.1435  0.1700
  506loPI   C4B 8096  16.264   8.670   7.765  0.2010 -0.0737 -0.1020
  507loPI    C1 8097   8.118   1.600  11.019 -0.1584 -0.0167  0.1455
  507loPI    C2 8098   8.371   1.899  11.100  0.0099 -0.0251 -0.3240
  507loPI    C3 8099   7.977   1.968  11.091  0.0062  0.0453  0.1540
  507loPI   PO4 8100   8.199   1.496  10.849 -0.1237  0.0236  0.2242
  507loPI   GL1 8101   8.218   1.508  10.456 -0.3060 -0.0127 -0.0935
  507loPI   GL2 8102   8.103   1.227  10.370 -0.3426  0.0203  0.0282
  507loPI   C1A 8103   8.391   1.767  10.072  0.1048  0.2469 -0.0194
  507loPI   C2A 8104   8.423   1.890   9.645 -0.4605  0.3144 -0.2665
  507loPI   C3A 8105   8.416   1.783   9.200 -0.2215  0.1018 -0.1288
  507loPI   C4A 8106   8.466   1.778   8.770 -0.1194  0.2013  0.2295
  507loPI   C5A 8107   8.600   1.867   8.300  0.0148 -0.2642 -0.2343
  507loPI   C6A 8108   8.431   2.278   8.062  0.1080  0.2976  0.2409
  507loPI   C1B 8109   8.278   1.318   9.974  0.1352  0.2735 -0.0186
  507loPI   C2B 8110   8.313   1.321   9.477  0.1353 -0.2830 -0.0585
  507loPI   C3B 8111   8.190   1.266   9.134  0.0805 -0.0574  0.1035
  507loPI   C4B 8112   8.262   1.267   8.740 -0.0417  0.0269  0.0507
  508loPI    C1 8113   7.040   4.346  10.915  0.1069 -0.3574 -0.0490
  508loPI    C2 8114   6.794   4.217  10.627 -0.0374 -0.1396 -0.0262
  508loPI    C3 8115   6.644   4.373  10.963  0.1288  0.2603 -0.1313
  508loPI   PO4 8116   7.259   4.390  10.772 -0.0017  0.1233  0.3003
  508loPI   GL1 8117   7.291   4.346  10.331  0.0429 -0.2303  0.2915
  508loPI   GL2 8118   7.179   4.564  10.077  0.0510 -0.3396 -0.1649
  508loPI   C1A 8119   7.097   3.988  10.060  0.0875  0.0575 -0.0283
  508loPI   C2A 8120   7.176   3.847   9.682 -0.2241  0.0947  0.1875
  508loPI   C3A 8121   7.094   3.744   9.247 -0.0011 -0.3504 -0.1587
  508loPI   C4A 8122   6.960   3.683   8.835 -0.0493  0.1095  0.0670
  508loPI   C5A 8123   7.059   3.681   8.399 -0.2489  0.1874  0.0288
  508loPI   C6A 8124   7.228   3.379   8.008  0.1106 -0.2347 -0.1536
  508loPI   C1B 8125   7.211   4.351   9.648  0.2683 -0.0044  0.1047
  508loPI   C2B 8126   7.227   4.277   9.262 -0.2113 -0.1272  0.0420
  508loPI   C3B 8127   7.118   4.184   8.822  0.0478  0.0695  0.1288
  508loPI   C4B 8128   7.225   4.143   8.353 -0.2476 -0.0195 -0.1105
  509loPI    C1 8129  15.326  10.820  10.676 -0.0621  0.0461  0.1355
  509loPI    C2 8130  15.323  10.442  10.808 -0.2038  0.0219  0.0666
  509loPI    C3 8131  15.383  10.744  11.064 -0.0677 -0.0478  0.1183
  509loPI   PO4 8132  15.105  10.955  10.447 -0.3336  0.2548  0.0808
  509loPI   GL1 8133  15.095  10.986  10.017 -0.2931 -0.1482  0.2319
  509loPI   GL2 8134  15.265  11.273   9.919 -0.2292  0.0833 -0.0737
  509loPI   C1A 8135  15.044  10.862   9.489 -0.1147 -0.1747 -0.1323
  509loPI   C2A 8136  15.088  10.905   9.069  0.1357 -0.0992  0.0105
  509loPI   C3A 8137  15.105  10.796   8.714  0.0096 -0.1514 -0.4520
  509loPI   C4A 8138  15.060  10.762   8.235 -0.2285 -0.3932 -0.1599
  509loPI   C5A 8139  15.212  10.907   7.907  0.0205  0.0468  0.0823
  509loPI   C6A 8140  15.545  10.999   7.642 -0.1290 -0.5587 -0.1878
  509loPI   C1B 8141  15.287  11.338   9.497  0.2087  0.3569 -0.1034
  509loPI   C2B 8142  15.262  11.377   9.067  0.0573  0.0737  0.0311
  509loPI   C3B 8143  15.212  11.312   8.657  0.3146  0.2047 -0.0174
  509loPI   C4B 8144  15.162  11.545   8.289 -0.0071 -0.0295 -0.1676
  510loPI    C1 8145   3.935  11.613  10.690 -0.0383 -0.0477 -0.1103
  510loPI    C2 8146   4.185  11.326  10.811 -0.0425  0.0330  0.0927
  510loPI    C3 8147   4.070  11.612  11.066  0.0416  0.2738 -0.1348
  510loPI   PO4 8148   3.938  11.605  10.425 -0.0967  0.0386  0.0890
  510loPI   GL1 8149   3.842  11.696   9.998  0.2778 -0.2709 -0.1553
  510loPI   GL2 8150   3.764  11.484   9.757 -0.1599 -0.1483 -0.4360
  510loPI   C1A 8151   3.891  12.028   9.715  0.1521 -0.0294 -0.3744
  510loPI   C2A 8152   3.906  12.039   9.310 -0.0181 -0.1381  0.1999
  510loPI   C3A 8153   3.787  11.978   8.882 -0.0355 -0.0696 -0.2511
  510loPI   C4A 8154   3.806  12.017   8.434  0.1085 -0.0113  0.1682
  510loPI   C5A 8155   3.821  12.048   7.920 -0.1242  0.0559 -0.1078
  510loPI   C6A 8156   3.716  12.005   7.404  0.0343  0.1758 -0.3344
  510loPI   C1B 8157   3.798  11.502   9.317 -0.1712 -0.2341  0.2459
  510loPI   C2B 8158   3.730  11.513   8.981 -0.3088 -0.0790  0.0668
  510loPI   C3B 8159   3.583  11.516   8.559  0.1761 -0.0498  0.1554
  510loPI   C4B 8160   3.665  11.596   8.149  0.0341  0.0586  0.0148
  511loPI    C1 8161  14.116   8.654   9.998 -0.1145 -0.0307 -0.1081
  511loPI    C2 8162  13.762   8.836  10.035 -0.0669  0.0415 -0.0035
  511loPI    C3 8163  14.099   9.042  10.095 -0.0055 -0.0141 -0.1540
  511loPI   PO4 8164  14.132   8.533   9.755  0.1232  0.0956 -0.2199
  511loPI   GL1 8165  14.101   8.530   9.326  0.0612  0.1650  0.1181
  511loPI   GL2 8166  14.146   8.167   9.139  0.1843 -0.1042  0.0116
  511loPI   C1A 8167  14.226   8.816   9.059  0.2042 -0.1632 -0.0548
  511loPI   C2A 8168  14.383   8.946   8.704 -0.2431  0.1541 -0.0312
  511loPI   C3A 8169  14.530   8.903   8.312 -0.3289  0.1257  0.4678
  511loPI   C4A 8170  14.416   9.068   7.919  0.0394 -0.2324 -0.0304
  511loPI   C5A 8171  14.200   8.876   7.609 -0.2571  0.0597 -0.3992
  511loPI   C6A 8172  13.802   8.485   7.640 -0.2410 -0.0774  0.0384
  511loPI   C1B 8173  14.117   8.395   8.764  0.0017 -0.0541  0.0927
  511loPI   C2B 8174  14.063   8.647   8.440  0.2843 -0.4527 -0.1244
  511loPI   C3B 8175  13.941   8.811   8.046  0.1727  0.3921 -0.0916
  511loPI   C4B 8176  13.694   8.951   7.729  0.1596 -0.1433 -0.0811
  512loPI    C1 8177   6.970  12.219  10.686  0.0551 -0.0189  0.0974
  512loPI    C2 8178   6.813  12.526  10.484 -0.0967 -0.0598  0.1518
  512loPI    C3 8179   6.590  12.204  10.564  0.0525 -0.1722  0.1214
  512loPI   PO4 8180   7.225  12.265  10.455  0.0123  0.2324  0.1918
  512loPI   GL1 8181   7.170  12.536  10.113  0.1711  0.2073 -0.0181
  512loPI   GL2 8182   7.158  12.750   9.901 -0.3212 -0.1225 -0.0458
  512loPI   C1A 8183   6.991  12.337   9.681  0.3012  0.0259 -0.0802
  512loPI   C2A 8184   6.852  12.304   9.313  0.1200 -0.2301  0.0353
  512loPI   C3A 8185   6.797  12.322   8.857 -0.0784 -0.1598  0.2027
  512loPI   C4A 8186   6.771  12.331   8.461 -0.1938 -0.0773  0.1598
  512loPI   C5A 8187   6.759  12.529   8.088 -0.1845  0.1334 -0.0706
  512loPI   C6A 8188   6.852  12.934   7.927  0.1086 -0.0204 -0.1074
  512loPI   C1B 8189   7.016  12.841   9.541 -0.2157 -0.1345 -0.0309
  512loPI   C2B 8190   7.043  12.817   9.154  0.0058  0.0659  0.1326
  512loPI   C3B 8191   6.997  12.802   8.758  0.1954  0.1488  0.0327
  512loPI   C4B 8192   7.021  12.831   8.344 -0.0619 -0.3623 -0.0698
  513loPI    C1 8193   3.248  15.247  11.142 -0.0539 -0.3435 -0.2287
  513loPI    C2 8194   3.624  15.351  11.231 -0.1090 -0.2097 -0.1492
  513loPI    C3 8195   3.484  14.993  11.341 -0.0699 -0.1782  0.0042
  513loPI   PO4 8196   3.309  15.239  10.872  0.2445  0.0481  0.2372
  513loPI   GL1 8197   3.441  15.404  10.552 -0.1458 -0.0088 -0.0447
  513loPI   GL2 8198   3.537  15.050  10.420  0.0949 -0.1191  0.3878
  513loPI   C1A 8199   3.578  15.583  10.099 -0.2732 -0.2716 -0.3400
  513loPI   C2A 8200   3.612  15.651   9.690 -0.1372 -0.3304 -0.0378
  513loPI   C3A 8201   3.738  15.611   9.354  0.0678 -0.1166  0.1146
  513loPI   C4A 8202   3.660  15.636   8.917  0.3870 -0.1150 -0.2928
  513loPI   C5A 8203   3.655  15.697   8.442  0.1925  0.0092 -0.1922
  513loPI   C6A 8204   3.322  15.768   8.204  0.1667 -0.3401 -0.1331
  513loPI   C1B 8205   3.456  15.093   9.994 -0.1878  0.0085  0.1084
  513loPI   C2B 8206   3.493  15.102   9.555 -0.1284  0.1694  0.2690
  513loPI   C3B 8207   3.559  15.139   9.109  0.0711 -0.1619 -0.1863
  513loPI   C4B 8208   3.495  15.179   8.653 -0.0214 -0.1967  0.3900
  514loPI    C1 8209   7.445  11.415  10.112  0.1095 -0.1508 -0.2635
  514loPI    C2 8210   7.290  11.277  10.454  0.2663 -0.2570 -0.2337
  514loPI    C3 8211   7.590  11.541  10.463  0.0318  0.0171 -0.2910
  514loPI   PO4 8212   7.279  11.519   9.982 -0.3662  0.0221  0.0007
  514loPI   GL1 8213   7.054  11.659   9.683  0.1381 -0.1103  0.2455
  514loPI   GL2 8214   6.863  11.866   9.749 -0.0462  0.1662  0.2374
  514loPI   C1A 8215   7.271  11.935   9.431  0.1221 -0.3888  0.2248
  514loPI   C2A 8216   7.222  11.926   9.008  0.2672  0.0644  0.0820
  514loPI   C3A 8217   7.178  11.756   8.607 -0.1122 -0.0695 -0.3244
  514loPI   C4A 8218   7.055  11.958   8.224 -0.1364 -0.2024 -0.0003
  514loPI   C5A 8219   6.917  12.136   7.746 -0.2294  0.0471  0.2462
  514loPI   C6A 8220   6.452  12.160   7.724 -0.1679  0.1856  0.2524
  514loPI   C1B 8221   6.755  11.800   9.225  0.1841  0.2058  0.2286
  514loPI   C2B 8222   6.713  11.845   8.770 -0.0428  0.2016  0.1017
  514loPI   C3B 8223   6.591  11.703   8.423 -0.0096 -0.3164 -0.3577
  514loPI   C4B 8224   6.556  11.745   8.114 -0.4176 -0.1100  0.0656
  515loPI    C1 8225  17.344   7.081  10.293  0.0066  0.1403 -0.0115
  515loPI    C2 8226  17.376   7.338  10.598 -0.1439 -0.0148  0.1373
  515loPI    C3 8227  17.073   7.077  10.587  0.1384 -0.3499  0.1128
  515loPI   PO4 8228  17.389   7.207  10.116 -0.0046  0.1051 -0.2484
  515loPI   GL1 8229  17.319   7.141   9.713  0.4212  0.1382 -0.0557
  515loPI   GL2 8230  17.341   6.833   9.819  0.1009  0.0984 -0.2969
  515loPI   C1A 8231  17.236   7.001   9.272  0.0132 -0.2622 -0.1445
  515loPI   C2A 8232  17.248   7.024   8.876  0.2117  0.0427 -0.1514
  515loPI   C3A 8233  17.161   6.905   8.455  0.0405  0.0859 -0.0279
  515loPI   C4A 8234  17.226   6.969   8.043  0.0050 -0.0995  0.0125
  515loPI   C5A 8235  17.438   6.635   7.849 -0.0821  0.4740  0.3078
  515loPI   C6A 8236  17.534   6.258   7.483  0.1269 -0.1145 -0.0305
  515loPI   C1B 8237  17.521   6.691   9.492  0.0635  0.0262  0.0184
  515loPI   C2B 8238  17.651   6.613   9.136  0.0544  0.1513  0.0140
  515loPI   C3B 8239  17.619   6.655   8.694  0.0204  0.0677  0.0998
  515loPI   C4B 8240  17.633   6.756   8.280  0.1836  0.0600 -0.0922
  516loPI    C1 8241  13.396   5.382  10.832 -0.1135  0.0563 -0.1368
  516loPI    C2 8242  13.211   5.725  10.922 -0.0201  0.0895 -0.0700
  516loPI    C3 8243  13.326   5.476  11.214 -0.2174 -0.0680 -0.1245
  516loPI   PO4 8244  13.588   5.383  10.629  0.0679 -0.1246  0.0751
  516loPI   GL1 8245  13.532   5.274  10.206 -0.1035 -0.0322  0.1077
  516loPI   GL2 8246  13.840   5.225  10.085  0.1618 -0.1680 -0.1258
  516loPI   C1A 8247  13.321   5.187   9.768 -0.0638 -0.0074 -0.0070
  516loPI   C2A 8248  13.215   5.296   9.432 -0.0397  0.1792 -0.1138
  516loPI   C3A 8249  13.291   5.175   8.965  0.0895 -0.0009 -0.0413
  516loPI   C4A 8250  13.404   5.124   8.561 -0.2386 -0.3331  0.2909
  516loPI   C5A 8251  13.341   5.173   8.138 -0.3209 -0.1585  0.2235
  516loPI   C6A 8252  13.685   5.377   7.889 -0.0990 -0.0324  0.0364
  516loPI   C1B 8253  13.805   5.268   9.642  0.1952  0.0350  0.2612
  516loPI   C2B 8254  13.726   5.350   9.167 -0.0671  0.4018  0.2574
  516loPI   C3B 8255  13.865   5.321   8.718  0.1899 -0.0988 -0.1849
  516loPI   C4B 8256  13.863   5.260   8.353  0.3501 -0.1381 -0.3804
  517loPI    C1 8257  17.385   8.724  10.300 -0.2617  0.0174  0.2224
  517loPI    C2 8258  17.064   8.535  10.152 -0.2181 -0.1450  0.3327
  517loPI    C3 8259  17.247   8.394  10.479  0.0506 -0.1349  0.1896
  517loPI   PO4 8260  17.532   8.768  10.074 -0.1220 -0.0058  0.0456
  517loPI   GL1 8261  17.521   8.590   9.684  0.1097 -0.2151  0.0902
  517loPI   GL2 8262  17.789   8.442   9.688  0.1511  0.1832 -0.0614
  517loPI   C1A 8263  17.738   8.644   9.238  0.1590 -0.0228  0.0358
  517loPI   C2A 8264  17.702   8.613   8.763  0.0980 -0.0732 -0.1003
  517loPI   C3A 8265  17.615   8.471   8.404 -0.1329 -0.0263  0.0751
  517loPI   C4A 8266  17.661   8.374   8.012 -0.0557  0.0764  0.2302
  517loPI   C5A 8267  17.971   8.167   7.700 -0.2270  0.2748  0.2168
  517loPI   C6A 8268  18.279   8.306   7.301 -0.0971  0.0412  0.1089
  517loPI   C1B 8269  18.002   8.221   9.245  0.0979  0.0311  0.1365
  517loPI   C2B 8270  17.993   8.184   8.807 -0.1144  0.1863 -0.0156
  517loPI   C3B 8271  17.966   8.078   8.459 -0.1995  0.1113 -0.0243
  517loPI   C4B 8272  18.145   8.281   8.182 -0.0759 -0.0369 -0.1880
  518loPI    C1 8273  13.526   4.289  10.767  0.0525 -0.0738 -0.0721
  518loPI    C2 8274  13.798   4.414  11.033 -0.0144  0.1505 -0.1068
  518loPI    C3 8275  13.408   4.469  11.104 -0.0491 -0.0947 -0.0962
  518loPI   PO4 8276  13.603   4.398  10.534 -0.1013  0.0342  0.0611
  518loPI   GL1 8277  13.485   4.502  10.213  0.2194 -0.3564 -0.3661
  518loPI   GL2 8278  13.396   4.371   9.970  0.1464  0.1680  0.0490
  518loPI   C1A 8279  13.619   4.854   9.934 -0.3753 -0.0098 -0.0097
  518loPI   C2A 8280  13.573   4.882   9.463  0.1528 -0.0647  0.1468
  518loPI   C3A 8281  13.650   4.835   9.023  0.0348 -0.1490  0.4588
  518loPI   C4A 8282  13.683   4.739   8.554 -0.1340  0.0828 -0.1804
  518loPI   C5A 8283  13.744   4.787   8.066 -0.1918  0.1196  0.1643
  518loPI   C6A 8284  14.074   4.983   7.883  0.0412 -0.1918 -0.0398
  518loPI   C1B 8285  13.436   4.388   9.579  0.1757  0.1818  0.0461
  518loPI   C2B 8286  13.528   4.327   9.082 -0.2033 -0.0626 -0.2192
  518loPI   C3B 8287  13.509   4.288   8.667 -0.1041 -0.0209  0.0006
  518loPI   C4B 8288  13.617   4.347   8.219  0.2264  0.1124  0.1660
  519loPI    C1 8289   6.305   4.642  10.762  0.1123 -0.0860 -0.0456
  519loPI    C2 8290   6.606   4.869  10.897  0.2630 -0.3564  0.0796
  519loPI    C3 8291   6.321   4.745  11.148  0.0334 -0.0855 -0.0425
  519loPI   PO4 8292   6.385   4.583  10.489 -0.1615 -0.0054  0.2296
  519loPI   GL1 8293   6.642   4.782  10.126  0.0227 -0.0565 -0.3537
  519loPI   GL2 8294   6.863   4.991  10.061 -0.5576  0.1130  0.1611
  519loPI   C1A 8295   6.513   4.743   9.667  0.3078 -0.2633 -0.0686
  519loPI   C2A 8296   6.362   4.613   9.272 -0.0670 -0.0680 -0.1450
  519loPI   C3A 8297   6.305   4.508   8.841 -0.1791  0.0472  0.2078
  519loPI   C4A 8298   6.212   4.403   8.392  0.3501 -0.0571 -0.0294
  519loPI   C5A 8299   6.043   4.215   8.091  0.1627  0.6098  0.0227
  519loPI   C6A 8300   5.757   4.145   7.988 -0.1187  0.1857 -0.0138
  519loPI   C1B 8301   6.992   4.806   9.733  0.0478  0.1688  0.1373
  519loPI   C2B 8302   6.864   4.781   9.328  0.0231  0.1691 -0.2426
  519loPI   C3B 8303   6.826   4.584   8.880 -0.1114 -0.0822 -0.1912
  519loPI   C4B 8304   6.848   4.561   8.421 -0.1102 -0.0846  0.1112
  520loPI    C1 8305   5.812  10.495  10.363  0.2384  0.0138 -0.1102
  520loPI    C2 8306   6.012  10.715  10.631 -0.1263 -0.0763  0.2462
  520loPI    C3 8307   6.112  10.332  10.572 -0.0495 -0.0580  0.2569
  520loPI   PO4 8308   5.729  10.639  10.149  0.0402 -0.4171  0.0499
  520loPI   GL1 8309   5.811  10.673   9.744 -0.0939  0.2321  0.2004
  520loPI   GL2 8310   6.107  10.650   9.718 -0.2216  0.1368  0.2232
  520loPI   C1A 8311   5.544  10.799   9.523  0.5584 -0.1313  0.0303
  520loPI   C2A 8312   5.527  10.832   9.134 -0.0963 -0.0568 -0.1030
  520loPI   C3A 8313   5.455  10.884   8.723 -0.1537  0.4625 -0.2167
  520loPI   C4A 8314   5.389  10.991   8.324  0.1482 -0.1888 -0.0865
  520loPI   C5A 8315   5.517  11.074   7.909 -0.2324 -0.0989 -0.1062
  520loPI   C6A 8316   5.697  10.895   7.545  0.0656  0.0050 -0.1036
  520loPI   C1B 8317   6.018  10.570   9.300 -0.2582  0.0543  0.0227
  520loPI   C2B 8318   5.835  10.547   8.886  0.0560 -0.1710 -0.1317
  520loPI   C3B 8319   5.771  10.603   8.436  0.0719 -0.3914 -0.1203
  520loPI   C4B 8320   5.811  10.605   7.971 -0.1417 -0.1948 -0.1577
  521loPI    C1 8321   4.471  15.830  11.204  0.0196  0.0962  0.0756
  521loPI    C2 8322   4.628  16.137  11.406 -0.1630  0.1634  0.1169
  521loPI    C3 8323   4.539  15.797  11.597  0.1459  0.0415  0.0500
  521loPI   PO4 8324   4.216  15.908  11.032 -0.0663 -0.0784 -0.0604
  521loPI   GL1 8325   4.123  16.161  10.604 -0.0033  0.0136 -0.2161
  521loPI   GL2 8326   4.397  15.981  10.558 -0.2860 -0.2843  0.2351
  521loPI   C1A 8327   3.787  16.120  10.387  0.0879  0.2668 -0.0458
  521loPI   C2A 8328   3.760  16.046  10.007 -0.1596  0.1400  0.2093
  521loPI   C3A 8329   3.918  16.107   9.597  0.2869  0.1904  0.0879
  521loPI   C4A 8330   3.799  16.092   9.217  0.2042  0.3585 -0.0746
  521loPI   C5A 8331   3.852  16.089   8.790 -0.0217  0.1232  0.1153
  521loPI   C6A 8332   3.790  16.235   8.497  0.1557 -0.2140 -0.0556
  521loPI   C1B 8333   4.219  16.148  10.161 -0.0491 -0.0613  0.0548
  521loPI   C2B 8334   4.385  16.132   9.732  0.1980 -0.1011 -0.5348
  521loPI   C3B 8335   4.312  16.191   9.239 -0.3209 -0.2422  0.3501
  521loPI   C4B 8336   4.345  16.226   8.758 -0.0239  0.0463 -0.0595
  522loPI    C1 8337  11.741   8.621   9.927 -0.0911  0.0434 -0.1675
  522loPI    C2 8338  11.834   8.539  10.307  0.2133  0.1321 -0.2199
  522loPI    C3 8339  11.622   8.866  10.219 -0.0376  0.0018 -0.1107
  522loPI   PO4 8340  11.903   8.727   9.774  0.2658  0.0597  0.1191
  522loPI   GL1 8341  12.110   8.939   9.391  0.3061  0.0375 -0.1143
  522loPI   GL2 8342  11.902   9.249   9.423  0.1730  0.1651 -0.1136
  522loPI   C1A 8343  12.381   9.016   9.019 -0.0301 -0.0160 -0.2533
  522loPI   C2A 8344  12.384   9.019   8.560  0.0135  0.0495  0.0754
  522loPI   C3A 8345  12.201   9.093   8.025 -0.2478  0.1519 -0.0974
  522loPI   C4A 8346  12.024   9.238   7.666  0.0151 -0.0248 -0.2257
  522loPI   C5A 8347  11.784   9.061   7.364  0.1177  0.0398 -0.3299
  522loPI   C6A 8348  11.709   8.838   7.029 -0.2774 -0.0631 -0.0147
  522loPI   C1B 8349  12.003   9.311   9.005  0.2497 -0.0794  0.1492
  522loPI   C2B 8350  11.975   9.328   8.590 -0.1891 -0.1514  0.1003
  522loPI   C3B 8351  11.862   9.503   8.242 -0.0454  0.0887  0.0499
  522loPI   C4B 8352  11.640   9.573   7.792  0.1195  0.3516  0.1802
  523loPI    C1 8353   0.022   6.951  10.386 -0.2873 -0.2115 -0.2991
  523loPI    C2 8354  -0.355   7.021  10.498 -0.1496  0.1569 -0.0484
  523loPI    C3 8355  -0.056   7.238  10.653  0.1745 -0.1744 -0.1941
  523loPI   PO4 8356  -0.024   6.733  10.130  0.0908 -0.0517 -0.4030
  523loPI   GL1 8357   0.227   6.508   9.880 -0.0086  0.0815 -0.3399
  523loPI   GL2 8358   0.581   6.610   9.997 -0.2320  0.1877 -0.4376
  523loPI   C1A 8359   0.239   6.328   9.417  0.0281  0.2328  0.1659
  523loPI   C2A 8360   0.260   6.260   8.985 -0.0798 -0.1090  0.1805
  523loPI   C3A 8361   0.304   6.450   8.617 -0.0575 -0.1578  0.3145
  523loPI   C4A 8362   0.186   6.495   8.209 -0.0349 -0.0459 -0.2007
  523loPI   C5A 8363   0.187   6.734   7.846 -0.0902  0.1008  0.2767
  523loPI   C6A 8364  -0.018   6.954   7.503  0.3097 -0.4290 -0.1505
  523loPI   C1B 8365   0.645   6.453   9.612 -0.4867  0.1552  0.0635
  523loPI   C2B 8366   0.673   6.407   9.239 -0.1220 -0.3169  0.2211
  523loPI   C3B 8367   0.776   6.473   8.868 -0.0352  0.2562  0.2846
  523loPI   C4B 8368   0.753   6.521   8.450  0.0207 -0.0390 -0.1305
  524loPI    C1 8369   8.675  15.083  10.717  0.0590  0.1929 -0.1067
  524loPI    C2 8370   8.404  15.372  10.662 -0.1400  0.0426  0.0669
  524loPI    C3 8371   8.352  15.102  10.953 -0.1335 -0.3731 -0.3073
  524loPI   PO4 8372   8.680  15.042  10.432 -0.2855  0.2393 -0.4125
  524loPI   GL1 8373   8.558  14.857  10.118  0.1352 -0.0352  0.0946
  524loPI   GL2 8374   8.259  14.793  10.033 -0.2463 -0.1217  0.0503
  524loPI   C1A 8375   8.843  14.857   9.739  0.0846  0.1546 -0.2177
  524loPI   C2A 8376   8.734  14.939   9.341  0.0557  0.0203  0.0696
  524loPI   C3A 8377   8.620  14.917   8.868  0.0569  0.1228  0.0590
  524loPI   C4A 8378   8.577  14.998   8.455  0.0341 -0.0442  0.3810
  524loPI   C5A 8379   8.467  15.083   8.080  0.0125 -0.1436 -0.1762
  524loPI   C6A 8380   8.164  15.422   7.942 -0.1104  0.0849 -0.1163
  524loPI   C1B 8381   8.243  14.784   9.621 -0.0487 -0.0325 -0.1608
  524loPI   C2B 8382   8.205  14.764   9.143 -0.3266 -0.2234 -0.0868
  524loPI   C3B 8383   8.164  14.860   8.724 -0.1484 -0.0410  0.0259
  524loPI   C4B 8384   8.077  14.805   8.273  0.0246  0.0196 -0.0078
  525loPI    C1 8385  14.656   8.884  10.036 -0.0615  0.0568 -0.0990
  525loPI    C2 8386  14.906   8.911  10.347 -0.1892 -0.1143  0.0204
  525loPI    C3 8387  14.532   8.781  10.402 -0.2855  0.0767 -0.1682
  525loPI   PO4 8388  14.755   9.091   9.878 -0.0922 -0.1373  0.2879
  525loPI   GL1 8389  14.576   9.214   9.430 -0.0087 -0.1573 -0.1336
  525loPI   GL2 8390  14.305   9.007   9.624  0.0675 -0.1235  0.1192
  525loPI   C1A 8391  14.603   9.318   8.984  0.1357  0.3601 -0.0116
  525loPI   C2A 8392  14.520   9.394   8.636 -0.2152 -0.2907 -0.1575
  525loPI   C3A 8393  14.559   9.425   8.263  0.1522  0.2029  0.0201
  525loPI   C4A 8394  14.406   9.579   7.884 -0.1421 -0.0416  0.1933
  525loPI   C5A 8395  14.513   9.824   7.579  0.0694  0.2138 -0.0226
  525loPI   C6A 8396  14.763   9.617   7.200  0.3730  0.2592  0.1988
  525loPI   C1B 8397  14.122   9.305   9.292 -0.0693 -0.0956  0.2216
  525loPI   C2B 8398  14.093   9.352   8.870 -0.1421  0.2036 -0.1160
  525loPI   C3B 8399  14.100   9.218   8.457 -0.5887 -0.0783  0.1540
  525loPI   C4B 8400  13.961   9.316   7.980  0.1772 -0.0624  0.1401
  526loPI    C1 8401   8.884  12.532  10.574 -0.0450 -0.0260 -0.0504
  526loPI    C2 8402   8.674  12.736  10.847 -0.1625 -0.0881 -0.0936
  526loPI    C3 8403   8.972  12.495  10.963 -0.2347 -0.1415 -0.0167
  526loPI   PO4 8404   8.887  12.546  10.382  0.1170 -0.2022 -0.1235
  526loPI   GL1 8405   8.952  12.521   9.912 -0.0166  0.1132 -0.1555
  526loPI   GL2 8406   9.045  12.242   9.804  0.0712  0.0256 -0.1760
  526loPI   C1A 8407   8.620  12.595   9.576 -0.0375 -0.2945 -0.0124
  526loPI   C2A 8408   8.428  12.529   9.181 -0.1300  0.2818  0.1620
  526loPI   C3A 8409   8.428  12.541   8.745  0.0403  0.1055 -0.0338
  526loPI   C4A 8410   8.434  12.589   8.271  0.1279 -0.1038 -0.2270
  526loPI   C5A 8411   8.602  12.766   7.972  0.2544 -0.1169  0.1476
  526loPI   C6A 8412   9.025  12.957   7.992 -0.0431 -0.0084  0.1450
  526loPI   C1B 8413   9.088  12.081   9.393 -0.1017  0.0284 -0.2501
  526loPI   C2B 8414   9.186  11.989   8.968 -0.0011 -0.1209 -0.0757
  526loPI   C3B 8415   9.119  12.000   8.555  0.0624  0.1173  0.0806
  526loPI   C4B 8416   8.960  11.871   8.220  0.4869  0.0951  0.2916
  527loPI    C1 8417   4.110   6.197  10.905 -0.2076 -0.0268 -0.1717
  527loPI    C2 8418   3.818   6.470  10.920 -0.0213  0.1659  0.0158
  527loPI    C3 8419   4.043   6.400  11.243  0.1569  0.0372 -0.1340
  527loPI   PO4 8420   4.000   6.011  10.776 -0.0703  0.0025  0.1424
  527loPI   GL1 8421   3.835   5.817  10.334 -0.0431 -0.2416 -0.1366
  527loPI   GL2 8422   3.552   5.764  10.231 -0.0331  0.0634  0.1984
  527loPI   C1A 8423   3.924   5.995   9.964 -0.0836  0.1903  0.2305
  527loPI   C2A 8424   3.913   5.869   9.546 -0.1294  0.0042  0.0823
  527loPI   C3A 8425   3.798   5.879   9.081 -0.1362 -0.2832  0.0888
  527loPI   C4A 8426   3.900   5.782   8.591 -0.1437  0.1698  0.2586
  527loPI   C5A 8427   3.812   5.749   8.159 -0.0200  0.1643  0.1523
  527loPI   C6A 8428   3.867   5.973   7.925  0.2627 -0.4727 -0.0465
  527loPI   C1B 8429   3.368   5.804   9.807  0.1160  0.1736  0.1284
  527loPI   C2B 8430   3.353   5.751   9.271  0.1945  0.1699 -0.1434
  527loPI   C3B 8431   3.405   5.602   8.893 -0.2473  0.2049 -0.0305
  527loPI   C4B 8432   3.415   5.690   8.412 -0.0281 -0.1562 -0.2333
  528loPI    C1 8433  14.788   0.010  10.924  0.0998 -0.1210  0.0532
  528loPI    C2 8434  14.537  -0.209  10.703  0.0058 -0.0770  0.1158
  528loPI    C3 8435  14.432   0.159  10.819  0.0042 -0.1449  0.3345
  528loPI   PO4 8436  15.028  -0.013  10.808 -0.0427  0.1368  0.1046
  528loPI   GL1 8437  15.057   0.107  10.423  0.2177 -0.0868 -0.0678
  528loPI   GL2 8438  14.651   0.267  10.307 -0.1280  0.1241  0.0879
  528loPI   C1A 8439  14.988   0.039  10.076  0.0154 -0.0435  0.4469
  528loPI   C2A 8440  14.935   0.011   9.665 -0.0919  0.2441 -0.1126
  528loPI   C3A 8441  14.916   0.041   9.185 -0.1550 -0.0119  0.0495
  528loPI   C4A 8442  14.927   0.091   8.742 -0.3712 -0.3809  0.1585
  528loPI   C5A 8443  14.683   0.279   8.407 -0.0916  0.1331  0.3639
  528loPI   C6A 8444  14.882   0.390   7.990  0.3148 -0.0696  0.1554
  528loPI   C1B 8445  14.516   0.136   9.937  0.2773 -0.1803 -0.0025
  528loPI   C2B 8446  14.481   0.203   9.603 -0.0573 -0.0032 -0.4072
  528loPI   C3B 8447  14.456  -0.003   9.332  0.3479 -0.0195 -0.1028
  528loPI   C4B 8448  14.477   0.017   8.888  0.0586  0.1525  0.1244
  529loPI    C1 8449  11.309  14.879  10.996  0.0008  0.0106  0.2885
  529loPI    C2 8450  11.552  15.121  11.203  0.2133  0.0757 -0.0300
  529loPI    C3 8451  11.353  15.261  10.886 -0.0517 -0.0423  0.0808
  529loPI   PO4 8452  11.574  14.717  10.915  0.4707  0.1459  0.1213
  529loPI   GL1 8453  11.921  15.025  10.552 -0.0767 -0.1740 -0.2284
  529loPI   GL2 8454  11.714  15.362  10.565  0.3762  0.0826 -0.0011
  529loPI   C1A 8455  12.150  15.081  10.184  0.0813  0.0209 -0.1111
  529loPI   C2A 8456  12.221  15.148   9.821  0.0030 -0.1186  0.2080
  529loPI   C3A 8457  12.182  15.145   9.439  0.2018 -0.0187  0.2853
  529loPI   C4A 8458  12.179  15.252   9.054 -0.3565  0.0664 -0.1543
  529loPI   C5A 8459  12.200  15.141   8.695 -0.0659  0.0570 -0.1553
  529loPI   C6A 8460  12.237  14.760   8.542  0.1726  0.1391 -0.0491
  529loPI   C1B 8461  11.785  15.460  10.225 -0.1656  0.2889  0.4181
  529loPI   C2B 8462  11.921  15.565   9.829  0.3116 -0.0691  0.3275
  529loPI   C3B 8463  11.875  15.550   9.354  0.2363  0.0786 -0.0366
  529loPI   C4B 8464  11.742  15.666   8.913  0.2883  0.0860 -0.0715
  530loPI    C1 8465  13.253  11.337  10.734  0.1963  0.0203  0.1041
  530loPI    C2 8466  13.288  10.939  10.721  0.0862  0.0152 -0.0747
  530loPI    C3 8467  12.942  11.105  10.834  0.0694  0.0594 -0.1902
  530loPI   PO4 8468  13.407  11.391  10.520  0.2719  0.1381  0.1755
  530loPI   GL1 8469  13.359  11.462  10.097  0.3551 -0.0363  0.2232
  530loPI   GL2 8470  13.717  11.398  10.111 -0.3302 -0.1471 -0.1191
  530loPI   C1A 8471  13.110  11.580   9.747 -0.0580 -0.2197  0.0127
  530loPI   C2A 8472  13.018  11.647   9.332 -0.0332  0.1917 -0.0495
  530loPI   C3A 8473  13.063  11.783   8.880 -0.0830  0.1251 -0.1354
  530loPI   C4A 8474  13.161  11.769   8.520  0.1530 -0.2525 -0.2123
  530loPI   C5A 8475  13.190  11.873   8.208 -0.2993 -0.0309 -0.0172
  530loPI   C6A 8476  13.630  11.803   7.996  0.0399 -0.2591 -0.0427
  530loPI   C1B 8477  13.909  11.454   9.739  0.0111 -0.0436 -0.1117
  530loPI   C2B 8478  13.910  11.496   9.325 -0.1435  0.0554 -0.3055
  530loPI   C3B 8479  13.909  11.522   8.915 -0.2134 -0.2614 -0.0382
  530loPI   C4B 8480  13.822  11.532   8.490 -0.1944  0.1659  0.2253
  531loPI    C1 8481  17.654   6.509  10.474 -0.3363 -0.0145 -0.0372
  531loPI    C2 8482  17.443   6.738  10.725  0.0766  0.3621 -0.0211
  531loPI    C3 8483  17.720   6.487  10.868 -0.0014  0.2452 -0.0737
  531loPI   PO4 8484  17.581   6.643  10.193 -0.0147 -0.0713  0.2291
  531loPI   GL1 8485  17.412   6.338   9.927  0.1976 -0.1075  0.4392
  531loPI   GL2 8486  17.461   5.995   9.878 -0.0861  0.3443 -0.0441
  531loPI   C1A 8487  17.301   6.234   9.410 -0.1387 -0.2836 -0.2009
  531loPI   C2A 8488  17.389   6.076   9.048 -0.0864  0.2775  0.0870
  531loPI   C3A 8489  17.473   6.113   8.672  0.1171  0.1800  0.2790
  531loPI   C4A 8490  17.381   6.339   8.283  0.1552  0.0358 -0.0209
  531loPI   C5A 8491  17.446   6.103   8.003  0.5042  0.0565 -0.1400
  531loPI   C6A 8492  17.912   5.884   7.890  0.0268 -0.0768 -0.0171
  531loPI   C1B 8493  17.712   5.763   9.551 -0.2452  0.1510  0.0187
  531loPI   C2B 8494  17.788   5.650   9.144 -0.0016  0.2703 -0.0652
  531loPI   C3B 8495  17.734   5.728   8.741  0.0617  0.0960 -0.0573
  531loPI   C4B 8496  17.723   5.787   8.370 -0.0877  0.2106  0.1449
  532loPI    C1 8497   8.652   0.298  11.005  0.0376 -0.1547 -0.2522
  532loPI    C2 8498   8.529   0.407  11.370  0.0672 -0.0949 -0.2599
  532loPI    C3 8499   8.855   0.180  11.329  0.2575  0.1739 -0.2655
  532loPI   PO4 8500   8.657   0.574  10.802  0.0510  0.1224 -0.2563
  532loPI   GL1 8501   8.365   0.727  10.492  0.0167 -0.0309 -0.1435
  532loPI   GL2 8502   7.938   0.639  10.452  0.0559 -0.2383 -0.1626
  532loPI   C1A 8503   8.397   0.855  10.113 -0.3378  0.0606  0.3361
  532loPI   C2A 8504   8.662   0.789   9.726  0.2563  0.4167 -0.0222
  532loPI   C3A 8505   8.538   0.929   9.304 -0.0239  0.3190 -0.1978
  532loPI   C4A 8506   8.553   0.862   8.860  0.1510 -0.0009 -0.0407
  532loPI   C5A 8507   8.635   0.921   8.357  0.1197  0.0356  0.0955
  532loPI   C6A 8508   8.903   0.912   7.997  0.0834 -0.1416 -0.2043
  532loPI   C1B 8509   7.953   0.695  10.060 -0.1004  0.0797  0.0581
  532loPI   C2B 8510   8.153   0.851   9.648 -0.2135  0.1346 -0.1081
  532loPI   C3B 8511   8.058   0.742   9.190 -0.0182  0.0949  0.2234
  532loPI   C4B 8512   8.046   0.817   8.728  0.1272 -0.2971  0.2526
  533loPI    C1 8513   6.738   0.339  11.071 -0.1522  0.0719  0.1362
  533loPI    C2 8514   6.529   0.380  11.409 -0.1269 -0.0153  0.1626
  533loPI    C3 8515   6.905   0.515  11.389 -0.1170 -0.0403  0.1801
  533loPI   PO4 8516   6.611   0.126  10.987  0.0554  0.2333  0.1692
  533loPI   GL1 8517   6.763  -0.006  10.562 -0.0676  0.0510  0.0317
  533loPI   GL2 8518   6.357  -0.103  10.492  0.1881 -0.1754 -0.2906
  533loPI   C1A 8519   6.773   0.004  10.206  0.3467  0.0985 -0.1213
  533loPI   C2A 8520   6.890  -0.051   9.828 -0.1507 -0.0214  0.0926
  533loPI   C3A 8521   6.877  -0.029   9.455 -0.1288  0.3262  0.4021
  533loPI   C4A 8522   6.858   0.049   8.974  0.0900  0.0505 -0.2279
  533loPI   C5A 8523   6.912   0.141   8.558  0.1132 -0.1439  0.1646
  533loPI   C6A 8524   6.795   0.117   8.201 -0.0336  0.2878  0.1295
  533loPI   C1B 8525   6.244  -0.130  10.060  0.1233  0.0990  0.2086
  533loPI   C2B 8526   6.354  -0.190   9.602 -0.3173 -0.1317 -0.1513
  533loPI   C3B 8527   6.374  -0.039   9.124  0.1739  0.2779  0.1273
  533loPI   C4B 8528   6.365  -0.082   8.794  0.0676  0.1126  0.1091
  534loPI    C1 8529  17.939   9.964  10.365  0.1169  0.0287 -0.1249
  534loPI    C2 8530  18.172   9.642  10.412  0.1664  0.0937  0.0821
  534loPI    C3 8531  17.953   9.778  10.719 -0.0121  0.1362 -0.0625
  534loPI   PO4 8532  17.735   9.940  10.115  0.1413 -0.2026 -0.0978
  534loPI   GL1 8533  17.610   9.876   9.630 -0.0476  0.3834  0.0141
  534loPI   GL2 8534  17.552   9.443   9.605 -0.0687 -0.1433 -0.0086
  534loPI   C1A 8535  17.685  10.002   9.226  0.0285  0.1661  0.0575
  534loPI   C2A 8536  17.666  10.035   8.737  0.1851  0.0520 -0.1618
  534loPI   C3A 8537  17.669   9.922   8.270 -0.2130 -0.3142  0.1302
  534loPI   C4A 8538  17.761  10.108   7.901 -0.0428  0.2857  0.0625
  534loPI   C5A 8539  17.477  10.021   7.489  0.1319 -0.0215  0.0231
  534loPI   C6A 8540  17.430  10.158   7.003  0.0850 -0.0419  0.1885
  534loPI   C1B 8541  17.505   9.451   9.172 -0.0598 -0.0401  0.0262
  534loPI   C2B 8542  17.460   9.590   8.749  0.1214  0.0435  0.2170
  534loPI   C3B 8543  17.480   9.431   8.341 -0.0149  0.2364 -0.1323
  534loPI   C4B 8544  17.600   9.448   7.845 -0.2967 -0.1628  0.2203
  535loPI    C1 8545   7.703  14.772  10.417 -0.0210  0.0999  0.0761
  535loPI    C2 8546   7.608  14.384  10.412 -0.3180  0.1637  0.3842
  535loPI    C3 8547   7.989  14.497  10.369 -0.2776 -0.1374 -0.1308
  535loPI   PO4 8548   7.557  14.893  10.204  0.0095  0.0431  0.3150
  535loPI   GL1 8549   7.446  14.773   9.868 -0.0067 -0.1974 -0.0550
  535loPI   GL2 8550   7.783  14.594   9.840 -0.2776  0.0133  0.0769
  535loPI   C1A 8551   7.435  14.943   9.504 -0.1771  0.0262  0.0088
  535loPI   C2A 8552   7.343  15.077   9.027  0.0368  0.1750 -0.0003
  535loPI   C3A 8553   7.230  15.165   8.582  0.0520  0.0361  0.2633
  535loPI   C4A 8554   7.086  15.190   8.217  0.3209  0.2272 -0.1650
  535loPI   C5A 8555   6.910  15.230   7.875  0.1516  0.0536  0.0409
  535loPI   C6A 8556   6.855  15.602   7.611  0.0706 -0.1358  0.2396
  535loPI   C1B 8557   7.783  14.618   9.401 -0.1945 -0.2475 -0.2173
  535loPI   C2B 8558   7.717  14.634   9.061 -0.0233 -0.1471 -0.1476
  535loPI   C3B 8559   7.663  14.769   8.666  0.0585 -0.4003  0.1519
  535loPI   C4B 8560   7.528  14.784   8.259  0.3097  0.2226 -0.1695
  536loPI    C1 8561   2.245  16.084  11.228  0.0212  0.0094  0.0505
  536loPI    C2 8562   2.112  15.753  11.409  0.1029  0.0419  0.1712
  536loPI    C3 8563   1.868  16.066  11.359  0.0448 -0.0120  0.1155
  536loPI   PO4 8564   2.294  16.001  10.994  0.0249  0.2124 -0.1136
  536loPI   GL1 8565   2.207  16.207  10.579 -0.2792 -0.0759  0.1171
  536loPI   GL2 8566   1.904  16.170  10.400  0.1002 -0.3637  0.1316
  536loPI   C1A 8567   2.307  16.223  10.134  0.3191  0.0684 -0.0703
  536loPI   C2A 8568   2.347  16.209   9.743 -0.0387  0.2414  0.0282
  536loPI   C3A 8569   2.496  16.280   9.297  0.1326  0.0039  0.0694
  536loPI   C4A 8570   2.482  16.122   8.822 -0.0231  0.1320 -0.2788
  536loPI   C5A 8571   2.368  15.827   8.507  0.3309  0.3755 -0.2243
  536loPI   C6A 8572   2.097  15.548   8.276 -0.0040  0.1949  0.1079
  536loPI   C1B 8573   1.853  16.078   9.948  0.0064  0.1628 -0.1818
  536loPI   C2B 8574   1.876  16.056   9.507 -0.0018  0.1933 -0.1650
  536loPI   C3B 8575   1.973  16.155   9.068  0.1685 -0.1980  0.3701
  536loPI   C4B 8576   1.936  16.048   8.693  0.0852 -0.0126 -0.0709
  537loPI    C1 8577   7.093   6.983  10.133 -0.1392 -0.0834  0.0697
  537loPI    C2 8578   7.008   6.796  10.476  0.1934 -0.0640  0.1660
  537loPI    C3 8579   7.074   7.190  10.475  0.1540 -0.0574  0.0725
  537loPI   PO4 8580   6.925   6.826   9.993 -0.1470 -0.0594  0.1513
  537loPI   GL1 8581   6.653   6.628   9.673 -0.1592  0.1749 -0.1517
  537loPI   GL2 8582   6.467   6.516   9.728 -0.1162  0.1311 -0.0113
  537loPI   C1A 8583   6.826   6.232   9.555  0.0981 -0.3957  0.0497
  537loPI   C2A 8584   6.828   6.097   9.099 -0.2451 -0.0857  0.0092
  537loPI   C3A 8585   6.898   6.087   8.636 -0.2483  0.0765 -0.1023
  537loPI   C4A 8586   6.820   6.029   8.229 -0.2807  0.2198 -0.3814
  537loPI   C5A 8587   6.549   6.074   7.785 -0.2710 -0.2034 -0.0895
  537loPI   C6A 8588   6.585   6.178   7.364 -0.0247  0.0908  0.2030
  537loPI   C1B 8589   6.551   6.501   9.206 -0.0243  0.1266  0.2513
  537loPI   C2B 8590   6.517   6.427   8.805 -0.1181 -0.1091  0.2475
  537loPI   C3B 8591   6.512   6.449   8.431 -0.0651 -0.0211 -0.0513
  537loPI   C4B 8592   6.487   6.473   8.084  0.0477  0.2626  0.0452
  538loPI    C1 8593  17.595   3.149  11.012 -0.0522  0.0172 -0.0415
  538loPI    C2 8594  17.334   3.387  11.198  0.0184  0.1545 -0.1166
  538loPI    C3 8595  17.258   2.996  11.163 -0.0628  0.1521  0.0731
  538loPI   PO4 8596  17.663   3.266  10.731 -0.0286 -0.0055  0.2123
  538loPI   GL1 8597  17.501   3.350  10.288 -0.0576 -0.0957 -0.0477
  538loPI   GL2 8598  17.390   3.071  10.394  0.1204  0.1206 -0.1352
  538loPI   C1A 8599  17.440   3.420   9.840 -0.0649  0.0063 -0.0619
  538loPI   C2A 8600  17.429   3.219   9.488 -0.2228  0.0256 -0.0394
  538loPI   C3A 8601  17.436   3.429   9.065  0.2848 -0.1077 -0.1696
  538loPI   C4A 8602  17.432   3.252   8.741 -0.0043  0.0747 -0.3040
  538loPI   C5A 8603  17.380   3.108   8.340 -0.0231 -0.1733 -0.2156
  538loPI   C6A 8604  17.397   2.959   7.858  0.0428 -0.0069  0.3192
  538loPI   C1B 8605  17.297   2.970  10.008 -0.1390  0.0987  0.3040
  538loPI   C2B 8606  17.215   2.848   9.645 -0.0113  0.2561 -0.2068
  538loPI   C3B 8607  17.272   2.878   9.188 -0.0878  0.2369  0.1932
  538loPI   C4B 8608  17.286   2.781   8.749  0.0652 -0.0799  0.0325
  539loPI    C1 8609   1.898  14.834  10.822  0.0682 -0.2014  0.2773
  539loPI    C2 8610   1.800  14.491  11.004 -0.1603 -0.2835  0.0081
  539loPI    C3 8611   1.796  14.835  11.209 -0.2490 -0.3963  0.1985
  539loPI   PO4 8612   2.006  14.765  10.593  0.0297 -0.1241 -0.0478
  539loPI   GL1 8613   1.931  14.644  10.133 -0.0569 -0.1279 -0.3940
  539loPI   GL2 8614   2.302  14.440  10.284 -0.1261  0.0103 -0.1386
  539loPI   C1A 8615   1.967  14.751   9.712 -0.0236 -0.0227 -0.6694
  539loPI   C2A 8616   1.972  14.793   9.252  0.0302 -0.0679  0.1850
  539loPI   C3A 8617   1.927  14.756   8.762  0.2807  0.0510 -0.3860
  539loPI   C4A 8618   1.806  14.762   8.355  0.0468 -0.1952  0.0687
  539loPI   C5A 8619   1.721  15.113   8.132  0.3546  0.0250  0.2357
  539loPI   C6A 8620   1.529  15.557   8.224  0.2705 -0.0419 -0.1140
  539loPI   C1B 8621   2.343  14.431   9.901 -0.1968  0.0719  0.0812
  539loPI   C2B 8622   2.332  14.473   9.478 -0.2884  0.0233  0.0070
  539loPI   C3B 8623   2.251  14.402   9.064 -0.2146  0.2327 -0.0143
  539loPI   C4B 8624   2.261  14.444   8.665 -0.0477  0.2435  0.0508
  540loPI    C1 8625   1.860   1.330  11.209  0.0170  0.0608 -0.2605
  540loPI    C2 8626   1.827   1.097  11.533  0.1443  0.3763 -0.0148
  540loPI    C3 8627   1.501   1.264  11.372  0.0339 -0.0699 -0.2746
  540loPI   PO4 8628   2.014   1.218  11.061 -0.1822  0.1223 -0.2757
  540loPI   GL1 8629   2.261   1.321  10.823 -0.0854 -0.2108  0.0428
  540loPI   GL2 8630   2.416   1.192  10.585 -0.1217  0.0159  0.1186
  540loPI   C1A 8631   1.974   1.211  10.367  0.2018 -0.1555  0.1254
  540loPI   C2A 8632   2.001   1.210   9.936 -0.3600 -0.2184 -0.2092
  540loPI   C3A 8633   2.030   1.271   9.530 -0.1332 -0.0898  0.2453
  540loPI   C4A 8634   2.075   1.183   9.056 -0.2368  0.0042  0.1349
  540loPI   C5A 8635   2.128   1.103   8.770 -0.3610 -0.0011  0.0121
  540loPI   C6A 8636   2.441   1.203   8.368 -0.0944 -0.0998  0.0974
  540loPI   C1B 8637   2.498   1.363  10.175  0.2543  0.3107 -0.0202
  540loPI   C2B 8638   2.555   1.388   9.722  0.1643  0.2184  0.0504
  540loPI   C3B 8639   2.547   1.262   9.320 -0.3185  0.1326  0.0880
  540loPI   C4B 8640   2.570   1.339   8.883  0.1672 -0.0051  0.5218
  541POPI    C1 8641   2.563  12.951  10.812 -0.0190 -0.1439  0.1549
  541POPI    C2 8642   2.611  13.274  11.043  0.0329  0.0850 -0.1689
  541POPI    C3 8643   2.872  12.971  11.065 -0.0365  0.0455  0.1624
  541POPI   PO4 8644   2.509  13.057  10.562 -0.0332 -0.2577 -0.0560
  541POPI   GL1 8645   2.728  13.003  10.145  0.0217 -0.1094  0.1486
  541POPI   GL2 8646   2.398  12.947   9.983 -0.4003 -0.1019  0.2402
  541POPI   C1A 8647   2.933  13.061   9.754 -0.3023  0.1984 -0.1450
  541POPI   D2A 8648   2.789  13.259   9.336  0.0417 -0.1671 -0.0315
  541POPI   C3A 8649   2.839  13.153   8.966 -0.2399  0.0498 -0.0361
  541POPI   C4A 8650   2.805  13.133   8.580  0.3744  0.1590 -0.0276
  541POPI   C1B 8651   2.319  13.068   9.596  0.0223 -0.3283  0.0329
  541POPI   C2B 8652   2.362  13.109   9.151 -0.0481  0.2374  0.1295
  541POPI   C3B 8653   2.321  13.015   8.823 -0.4360  0.2006 -0.2952
  541POPI   C4B 8654   2.233  13.031   8.348 -0.3734 -0.0539 -0.0484
  542POPI    C1 8655  13.428   8.100   9.913 -0.0763  0.0906 -0.1657
  542POPI    C2 8656  13.771   8.245  10.060  0.0426 -0.1629 -0.1883
  542POPI    C3 8657  13.464   8.169  10.305  0.0583 -0.0889 -0.1454
  542POPI   PO4 8658  13.559   7.876   9.738 -0.0904 -0.0557 -0.0341
  542POPI   GL1 8659  13.437   7.762   9.401  0.0031  0.3514 -0.0561
  542POPI   GL2 8660  13.700   7.875   9.207  0.0204 -0.0681  0.0984
  542POPI   C1A 8661  13.345   7.544   9.087 -0.0392 -0.0467 -0.1175
  542POPI   D2A 8662  13.558   7.606   8.727  0.0768  0.1532 -0.1827
  542POPI   C3A 8663  13.590   7.553   8.279  0.1085 -0.0285  0.0545
  542POPI   C4A 8664  13.617   7.715   7.780  0.3237 -0.2079  0.0493
  542POPI   C1B 8665  13.713   8.052   8.755 -0.1445  0.0067  0.0688
  542POPI   C2B 8666  13.871   8.049   8.448 -0.1990 -0.0546  0.2556
  542POPI   C3B 8667  13.984   8.284   8.162 -0.2741 -0.0351 -0.2343
  542POPI   C4B 8668  14.363   8.447   7.957  0.1974  0.0402  0.0850
  543POPI    C1 8669  12.673  14.818  11.119  0.0489  0.0122 -0.0125
  543POPI    C2 8670  12.495  15.163  11.023  0.1670  0.1444  0.2363
  543POPI    C3 8671  12.438  15.002  11.385 -0.0128 -0.1801  0.0677
  543POPI   PO4 8672  13.017  14.805  11.085 -0.0145  0.3367  0.0511
  543POPI   GL1 8673  13.188  14.887  10.554 -0.1013  0.0268  0.0389
  543POPI   GL2 8674  13.539  14.987  10.602  0.1445  0.1236  0.2007
  543POPI   C1A 8675  12.931  14.835  10.288 -0.1986 -0.0153  0.0821
  543POPI   D2A 8676  12.968  14.803   9.879 -0.1614 -0.3354  0.1940
  543POPI   C3A 8677  13.072  14.935   9.383 -0.2006  0.1606 -0.0230
  543POPI   C4A 8678  13.041  14.984   9.025 -0.1448 -0.1927  0.4104
  543POPI   C1B 8679  13.486  14.932  10.178  0.0704  0.0389  0.1289
  543POPI   C2B 8680  13.663  14.989   9.828  0.0756  0.0904 -0.2958
  543POPI   C3B 8681  13.708  15.044   9.421 -0.2430  0.0529 -0.1641
  543POPI   C4B 8682  13.588  15.028   9.066 -0.0062  0.0234  0.1913
  544POPI    C1 8683  13.538  15.609  11.007 -0.1083 -0.0512  0.1243
  544POPI    C2 8684  13.146  15.656  11.069 -0.1765 -0.1483 -0.2109
  544POPI    C3 8685  13.288  15.303  10.946  0.0099 -0.0967 -0.1474
  544POPI   PO4 8686  13.706  15.801  10.835 -0.2015  0.1121  0.1273
  544POPI   GL1 8687  13.729  15.754  10.435 -0.1095 -0.1101  0.0287
  544POPI   GL2 8688  13.623  15.427  10.380 -0.0102 -0.0193 -0.0298
  544POPI   C1A 8689  13.788  16.004  10.047  0.2003  0.2172 -0.0353
  544POPI   D2A 8690  13.824  16.061   9.633  0.2167  0.0608 -0.0851
  544POPI   C3A 8691  13.915  16.100   9.174 -0.1455 -0.1592  0.2197
  544POPI   C4A 8692  14.212  16.121   8.799  0.0454  0.0461  0.2782
  544POPI   C1B 8693  13.734  15.463   9.985 -0.0183  0.3763 -0.4033
  544POPI   C2B 8694  13.811  15.520   9.567 -0.0254  0.1849  0.0474
  544POPI   C3B 8695  13.800  15.515   9.103  0.1819 -0.0712 -0.3561
  544POPI   C4B 8696  13.648  15.452   8.686 -0.0401 -0.2896 -0.1444
  545POPI    C1 8697  17.934   8.926  10.350  0.0274 -0.1322 -0.1457
  545POPI    C2 8698  18.147   8.762  10.647 -0.0206  0.1454  0.0460
  545POPI    C3 8699  17.747   8.737  10.649 -0.0206  0.1389 -0.0015
  545POPI   PO4 8700  18.075   9.187  10.238  0.0608  0.0739  0.0920
  545POPI   GL1 8701  18.268   9.350   9.830  0.0205 -0.1332 -0.3447
  545POPI   GL2 8702  18.015   9.566   9.922  0.0011 -0.1015  0.1624
  545POPI   C1A 8703  18.452   9.226   9.436  0.0973  0.2013 -0.1179
  545POPI   D2A 8704  18.674   8.864   9.174 -0.2657 -0.1046  0.3339
  545POPI   C3A 8705  18.678   8.824   8.708 -0.1857 -0.0920  0.1939
  545POPI   C4A 8706  18.755   8.879   8.291 -0.1915 -0.2212 -0.0737
  545POPI   C1B 8707  18.076   9.615   9.436 -0.0380  0.0823  0.3210
  545POPI   C2B 8708  17.956   9.660   8.968  0.0216  0.0733 -0.0421
  545POPI   C3B 8709  17.971   9.606   8.542 -0.3690  0.2666  0.1406
  545POPI   C4B 8710  18.011   9.558   8.063 -0.2066 -0.1383 -0.2965
  546POPI    C1 8711  17.236   1.229  11.241  0.0512 -0.2781 -0.0136
  546POPI    C2 8712  16.982   0.924  11.289  0.0830 -0.2935  0.0581
  546POPI    C3 8713  17.194   1.058  11.600  0.0875 -0.2142  0.0212
  546POPI   PO4 8714  17.235   1.151  10.902 -0.3226 -0.0296  0.0279
  546POPI   GL1 8715  17.194   1.025  10.501 -0.0784 -0.0239  0.2417
  546POPI   GL2 8716  17.523   1.111  10.467  0.0170  0.1309 -0.1671
  546POPI   C1A 8717  17.194   1.109  10.103 -0.0391 -0.1049  0.1378
  546POPI   D2A 8718  17.062   1.110   9.680 -0.1580 -0.2353 -0.1729
  546POPI   C3A 8719  17.198   1.043   9.320 -0.1795 -0.0236  0.0520
  546POPI   C4A 8720  17.333   0.974   8.857  0.1002 -0.1646  0.4247
  546POPI   C1B 8721  17.726   1.174  10.056 -0.0345  0.0607 -0.4234
  546POPI   C2B 8722  17.686   1.182   9.611 -0.1266 -0.0774 -0.0632
  546POPI   C3B 8723  17.716   1.147   9.197  0.1666 -0.1496  0.0972
  546POPI   C4B 8724  17.853   1.157   8.866 -0.1917  0.0708 -0.0763
  547POPI    C1 8725  17.032   4.196  10.527  0.0588  0.3198  0.0739
  547POPI    C2 8726  17.143   3.919  10.793  0.0775  0.0687 -0.1890
  547POPI    C3 8727  16.791   4.105  10.832  0.2170  0.2668  0.1843
  547POPI   PO4 8728  17.285   4.202  10.309  0.0320 -0.1325  0.0722
  547POPI   GL1 8729  17.356   4.517   9.989  0.1033 -0.5226  0.0734
  547POPI   GL2 8730  17.302   4.947  10.001  0.1725 -0.4118  0.4785
  547POPI   C1A 8731  17.291   4.272   9.606  0.0750 -0.1001  0.3858
  547POPI   D2A 8732  17.248   4.086   9.173 -0.2543  0.0563 -0.2696
  547POPI   C3A 8733  17.306   4.198   8.737 -0.2179 -0.3046  0.2487
  547POPI   C4A 8734  17.303   4.218   8.247  0.0425 -0.0421  0.0182
  547POPI   C1B 8735  17.429   4.809   9.599  0.3719 -0.2274  0.2142
  547POPI   C2B 8736  17.355   4.742   9.196 -0.1707  0.3020  0.0090
  547POPI   C3B 8737  17.471   4.632   8.894  0.1940  0.1296 -0.0383
  547POPI   C4B 8738  17.417   4.739   8.454  0.3355  0.0129  0.1319
  548POPI    C1 8739  15.181  14.409  11.388  0.1466 -0.0448 -0.2242
  548POPI    C2 8740  14.951  14.735  11.421 -0.0024 -0.1621 -0.0873
  548POPI    C3 8741  14.786  14.382  11.331  0.1398 -0.2264 -0.0983
  548POPI   PO4 8742  15.361  14.405  11.184  0.0019  0.2894 -0.1175
  548POPI   GL1 8743  15.530  14.332  10.817  0.0492 -0.3743 -0.2071
  548POPI   GL2 8744  15.183  14.218  10.626 -0.0052  0.1607  0.0105
  548POPI   C1A 8745  15.491  14.607  10.483 -0.2347 -0.1064 -0.1477
  548POPI   D2A 8746  15.316  14.393  10.140 -0.2173 -0.1722  0.1131
  548POPI   C3A 8747  15.317  14.536   9.704  0.1561 -0.0236  0.1035
  548POPI   C4A 8748  15.354  14.560   9.256 -0.1109 -0.0183 -0.0985
  548POPI   C1B 8749  14.826  14.293  10.288  0.1407 -0.0908  0.2680
  548POPI   C2B 8750  14.804  14.269   9.888  0.0024 -0.1587  0.1309
  548POPI   C3B 8751  14.850  14.396   9.443 -0.1602  0.3993  0.2354
  548POPI   C4B 8752  14.880  14.437   8.944  0.0404  0.0840  0.2374
  549POPI    C1 8753  17.899   7.859  10.153 -0.0909 -0.0818 -0.0290
  549POPI    C2 8754  18.086   7.777  10.497 -0.1527 -0.0926  0.0021
  549POPI    C3 8755  17.822   7.518  10.346 -0.0389 -0.1422 -0.1139
  549POPI   PO4 8756  17.971   7.957   9.971 -0.1492  0.0867 -0.0684
  549POPI   GL1 8757  18.054   7.861   9.573  0.4111 -0.1831  0.2766
  549POPI   GL2 8758  18.309   7.879   9.502 -0.2014 -0.1157  0.3729
  549POPI   C1A 8759  17.844   7.671   9.207 -0.2824 -0.0681  0.0349
  549POPI   D2A 8760  17.807   7.630   8.762 -0.0710  0.1264 -0.1075
  549POPI   C3A 8761  17.922   7.638   8.289 -0.0831  0.1552  0.1098
  549POPI   C4A 8762  18.054   7.749   7.951  0.0026  0.0889 -0.0500
  549POPI   C1B 8763  18.307   7.837   9.081 -0.3242  0.2385  0.3075
  549POPI   C2B 8764  18.353   7.813   8.597  0.1235  0.0405  0.0697
  549POPI   C3B 8765  18.490   7.933   8.203  0.4441 -0.1263  0.2195
  549POPI   C4B 8766  18.561   7.753   7.833  0.0169  0.0742  0.1326
  550POPI    C1 8767  17.789  11.678  11.056  0.1313 -0.2254  0.0926
  550POPI    C2 8768  17.717  11.477  11.395 -0.2860  0.0262  0.1603
  550POPI    C3 8769  17.780  11.872  11.405 -0.0758  0.0002 -0.0354
  550POPI   PO4 8770  17.961  11.405  10.834  0.2164 -0.0221  0.0093
  550POPI   GL1 8771  18.011  11.320  10.358 -0.1527  0.0919  0.3833
  550POPI   GL2 8772  17.986  11.648  10.389 -0.1487  0.1883  0.1136
  550POPI   C1A 8773  18.152  11.467   9.955 -0.0196  0.0289  0.1230
  550POPI   D2A 8774  17.851  11.812   9.647 -0.1293  0.1835  0.0155
  550POPI   C3A 8775  17.726  11.810   9.230 -0.4216 -0.2440  0.2315
  550POPI   C4A 8776  17.819  11.847   8.788 -0.3120  0.2307 -0.1108
  550POPI   C1B 8777  17.844  12.003  10.083  0.0155  0.0257  0.4455
  550POPI   C2B 8778  17.562  12.271   9.690  0.1733  0.1787  0.2233
  550POPI   C3B 8779  17.490  12.266   9.234  0.4531 -0.0136  0.0475
  550POPI   C4B 8780  17.449  12.401   8.763  0.1676 -0.1933  0.1392
  551POPI    C1 8781   0.688   1.873  11.224 -0.0026  0.1777  0.0541
  551POPI    C2 8782   0.578   1.524  11.384  0.2767  0.0520 -0.0224
  551POPI    C3 8783   0.464   1.867  11.555  0.1091 -0.0763  0.1272
  551POPI   PO4 8784   0.592   1.895  10.992  0.0717  0.0718  0.0712
  551POPI   GL1 8785   0.502   2.051  10.614 -0.1379 -0.1481 -0.1549
  551POPI   GL2 8786   0.246   2.060  10.660  0.2083  0.4403 -0.0348
  551POPI   C1A 8787   0.656   1.965  10.276  0.2829 -0.1626 -0.1268
  551POPI   D2A 8788   0.680   1.820   9.829 -0.1564  0.2779  0.2771
  551POPI   C3A 8789   0.742   1.897   9.426  0.0556 -0.1637 -0.0610
  551POPI   C4A 8790   0.813   1.853   9.002 -0.2023 -0.3659  0.1368
  551POPI   C1B 8791   0.146   1.824  10.210 -0.2649 -0.0915 -0.0724
  551POPI   C2B 8792   0.174   1.700   9.965  0.2820  0.4564 -0.1114
  551POPI   C3B 8793   0.276   1.695   9.512 -0.2263 -0.0561 -0.0232
  551POPI   C4B 8794   0.288   1.733   9.050 -0.0788  0.1583 -0.0345
  552POPI    C1 8795   0.877   5.161  10.811 -0.0600  0.1867 -0.2368
  552POPI    C2 8796   0.536   5.332  10.929 -0.0006  0.1903 -0.0673
  552POPI    C3 8797   0.882   5.529  10.968  0.0541  0.0775  0.0214
  552POPI   PO4 8798   0.778   5.030  10.615 -0.0100 -0.2145 -0.0414
  552POPI   GL1 8799   1.072   5.041  10.194  0.2885 -0.2945 -0.2508
  552POPI   GL2 8800   1.114   4.807  10.331 -0.0813  0.1513 -0.1124
  552POPI   C1A 8801   0.881   5.119   9.770  0.2503  0.0331 -0.1111
  552POPI   D2A 8802   0.846   4.975   9.348 -0.1038 -0.0108 -0.0499
  552POPI   C3A 8803   0.827   5.010   8.926 -0.1299  0.1672 -0.1435
  552POPI   C4A 8804   0.677   5.184   8.526  0.1945  0.2037  0.0777
  552POPI   C1B 8805   1.203   4.740   9.875 -0.0191 -0.0113  0.0995
  552POPI   C2B 8806   1.238   4.654   9.418  0.1234 -0.0232 -0.0187
  552POPI   C3B 8807   1.180   4.664   9.012  0.0766  0.0137 -0.2020
  552POPI   C4B 8808   1.107   4.836   8.516 -0.1526 -0.0564  0.5066
  553POPI    C1 8809   7.770  13.836  10.582  0.0539 -0.3266 -0.0570
  553POPI    C2 8810   8.033  14.092  10.739 -0.1288 -0.2316  0.0993
  553POPI    C3 8811   8.124  13.704  10.711  0.1300 -0.1600 -0.0928
  553POPI   PO4 8812   7.712  13.854  10.378  0.1970  0.2005 -0.0071
  553POPI   GL1 8813   7.803  14.045   9.959  0.1345 -0.2880  0.2071
  553POPI   GL2 8814   7.982  13.809   9.962  0.0539  0.2263  0.2743
  553POPI   C1A 8815   7.633  14.153   9.577  0.3231 -0.0438  0.3406
  553POPI   D2A 8816   7.451  14.187   9.240 -0.0816  0.0746  0.1771
  553POPI   C3A 8817   7.508  14.317   8.716  0.0008  0.2035  0.0276
  553POPI   C4A 8818   7.469  14.263   8.212 -0.0441 -0.1672  0.2158
  553POPI   C1B 8819   7.995  13.830   9.475 -0.0346  0.0919  0.2278
  553POPI   C2B 8820   7.826  13.915   9.062 -0.0044  0.0690  0.1603
  553POPI   C3B 8821   7.858  13.894   8.697 -0.1150 -0.1999  0.2090
  553POPI   C4B 8822   7.861  13.916   8.231 -0.2089 -0.1347 -0.0079
  554POPI    C1 8823   1.934  17.680  10.934 -0.1089 -0.1854  0.1752
  554POPI    C2 8824   2.232  17.931  11.026 -0.1495 -0.1807  0.2948
  554POPI    C3 8825   1.957  17.836  11.301 -0.3053 -0.1211  0.1608
  554POPI   PO4 8826   1.898  17.757  10.671  0.0271  0.1403  0.1022
  554POPI   GL1 8827   1.838  17.512  10.311 -0.2060  0.1636  0.0138
  554POPI   GL2 8828   2.109  17.468  10.313  0.1714 -0.0875 -0.1298
  554POPI   C1A 8829   1.870  17.440   9.835  0.2046  0.1045 -0.0691
  554POPI   D2A 8830   1.863  17.523   9.362 -0.1872 -0.0019 -0.0685
  554POPI   C3A 8831   1.822  17.496   8.939  0.3195  0.1067  0.0745
  554POPI   C4A 8832   1.688  17.337   8.678  0.3806  0.2421  0.3456
  554POPI   C1B 8833   2.423  17.609   9.936  0.0911  0.1995  0.1408
  554POPI   C2B 8834   2.362  17.711   9.442 -0.1105  0.0965 -0.1048
  554POPI   C3B 8835   2.572  17.686   8.922  0.0406 -0.2691  0.0429
  554POPI   C4B 8836   2.700  17.763   8.481  0.2926 -0.0217  0.2688
  555POPI    C1 8837   6.909   8.283   9.917 -0.1747 -0.0124 -0.1484
  555POPI    C2 8838   7.127   8.521  10.153 -0.1143 -0.2702  0.0606
  555POPI    C3 8839   7.282   8.178  10.017 -0.2285 -0.2316 -0.1712
  555POPI   PO4 8840   6.843   8.477   9.720 -0.1836 -0.2144 -0.0592
  555POPI   GL1 8841   6.962   8.579   9.318  0.2914 -0.1823 -0.1441
  555POPI   GL2 8842   6.925   8.898   9.225  0.1361  0.0924  0.2582
  555POPI   C1A 8843   7.009   8.348   8.946 -0.3359  0.2086  0.0034
  555POPI   D2A 8844   6.952   8.434   8.551  0.0848  0.1953 -0.4182
  555POPI   C3A 8845   6.936   8.228   8.194  0.1628  0.1160 -0.0388
  555POPI   C4A 8846   7.102   8.031   7.750 -0.0785  0.2411 -0.1148
  555POPI   C1B 8847   6.789   8.860   8.830 -0.4124  0.2283  0.1457
  555POPI   C2B 8848   6.751   8.944   8.379  0.0821 -0.3086 -0.3041
  555POPI   C3B 8849   6.571   8.622   8.087  0.1204 -0.0538  0.2050
  555POPI   C4B 8850   6.622   8.318   7.700  0.0232 -0.0367  0.1144
  556POPI    C1 8851   4.279   3.476  10.724  0.1358  0.0071  0.0264
  556POPI    C2 8852   4.276   3.186  11.000 -0.0383  0.0265  0.0459
  556POPI    C3 8853   4.282   3.570  11.113  0.0381  0.0326  0.0213
  556POPI   PO4 8854   4.009   3.296  10.524  0.2061  0.0202 -0.4569
  556POPI   GL1 8855   3.823   3.620  10.417  0.2311  0.0298 -0.1460
  556POPI   GL2 8856   4.061   3.627  10.070 -0.1580  0.0980 -0.4891
  556POPI   C1A 8857   3.586   3.565  10.133  0.2181  0.0433 -0.3271
  556POPI   D2A 8858   3.536   3.471   9.690  0.0318  0.1967 -0.0671
  556POPI   C3A 8859   3.581   3.398   9.210 -0.0679 -0.0434 -0.1379
  556POPI   C4A 8860   3.639   3.386   8.803  0.2331 -0.1208 -0.1367
  556POPI   C1B 8861   4.029   3.566   9.613 -0.2167 -0.0320 -0.3694
  556POPI   C2B 8862   4.074   3.497   9.145 -0.3314  0.2545 -0.1353
  556POPI   C3B 8863   4.132   3.455   8.666 -0.3494 -0.1529 -0.2830
  556POPI   C4B 8864   4.131   3.504   8.294  0.0502 -0.0187  0.1716
  557POPI    C1 8865   5.971  13.611  11.041 -0.3296  0.1321 -0.0097
  557POPI    C2 8866   5.690  13.394  11.226 -0.1942  0.2071  0.2900
  557POPI    C3 8867   6.075  13.294  11.261 -0.1896 -0.0140 -0.2820
  557POPI   PO4 8868   5.830  13.650  10.820  0.0327 -0.0783  0.0703
  557POPI   GL1 8869   5.701  13.724  10.364 -0.2013 -0.1267  0.0469
  557POPI   GL2 8870   5.719  14.093  10.199 -0.0212 -0.1199 -0.0713
  557POPI   C1A 8871   5.364  13.676   9.985 -0.0227  0.0382 -0.4179
  557POPI   D2A 8872   5.344  13.747   9.567  0.1944 -0.3232  0.0638
  557POPI   C3A 8873   5.438  13.705   9.166  0.2079 -0.0519  0.2362
  557POPI   C4A 8874   5.424  13.682   8.658  0.0754 -0.2837 -0.0419
  557POPI   C1B 8875   5.676  14.149   9.686  0.3370 -0.2777 -0.1698
  557POPI   C2B 8876   5.674  14.149   9.271 -0.2816 -0.0500 -0.0966
  557POPI   C3B 8877   5.541  14.268   8.839 -0.3257 -0.0847 -0.0968
  557POPI   C4B 8878   5.523  14.181   8.356  0.2453 -0.1268 -0.0953
  558POPI    C1 8879   9.135  12.970  10.247 -0.3630  0.0310  0.0010
  558POPI    C2 8880   9.001  13.081  10.607  0.0670  0.0231  0.1693
  558POPI    C3 8881   9.307  13.276  10.438 -0.0490 -0.0546 -0.1374
  558POPI   PO4 8882   8.949  12.974  10.069 -0.0426  0.2051  0.3716
  558POPI   GL1 8883   8.797  13.050   9.584  0.0428 -0.2758  0.1149
  558POPI   GL2 8884   8.538  13.296   9.765 -0.0927 -0.2813 -0.1164
  558POPI   C1A 8885   8.724  13.146   9.179  0.0536  0.1451  0.0941
  558POPI   D2A 8886   8.637  13.001   8.757 -0.2195 -0.1917 -0.0466
  558POPI   C3A 8887   8.581  13.148   8.279 -0.1791  0.1571  0.0975
  558POPI   C4A 8888   8.729  13.454   7.976  0.2344 -0.1721  0.2083
  558POPI   C1B 8889   8.384  13.447   9.368 -0.0409  0.1432  0.1743
  558POPI   C2B 8890   8.178  13.505   8.973  0.1820 -0.1353  0.1512
  558POPI   C3B 8891   8.223  13.500   8.461  0.2364  0.1151 -0.2129
  558POPI   C4B 8892   8.214  13.608   8.081  0.1055 -0.3665 -0.1352
  559POPI    C1 8893   9.017   8.363  10.149  0.0512 -0.1229 -0.0275
  559POPI    C2 8894   9.027   8.763  10.169  0.2932 -0.1218 -0.1377
  559POPI    C3 8895   9.276   8.545  10.394  0.0254 -0.2180  0.0714
  559POPI   PO4 8896   8.899   8.294   9.857 -0.0330  0.1895  0.1157
  559POPI   GL1 8897   8.987   7.961   9.492 -0.2976 -0.0817  0.3244
  559POPI   GL2 8898   9.192   8.280   9.447  0.0646 -0.0283 -0.5724
  559POPI   C1A 8899   8.989   7.987   9.042 -0.2243  0.1275 -0.2408
  559POPI   D2A 8900   9.182   7.949   8.696 -0.1425  0.0930  0.3693
  559POPI   C3A 8901   8.967   8.005   8.424  0.0161  0.1179 -0.0786
  559POPI   C4A 8902   8.801   8.087   8.064 -0.1952  0.2706  0.2715
  559POPI   C1B 8903   9.209   8.401   8.967 -0.3308  0.0653  0.0048
  559POPI   C2B 8904   9.303   8.410   8.459 -0.1608  0.2287 -0.0999
  559POPI   C3B 8905   9.415   8.301   8.110  0.0472 -0.2135 -0.1939
  559POPI   C4B 8906   9.291   8.012   7.768 -0.1260 -0.1004 -0.0062
  560POPI    C1 8907   6.644   7.860  10.023 -0.1440  0.1731  0.0084
  560POPI    C2 8908   6.773   7.531  10.211 -0.1049  0.1362 -0.0826
  560POPI    C3 8909   6.987   7.869  10.229 -0.1417  0.1550  0.0053
  560POPI   PO4 8910   6.568   7.734   9.793  0.1107 -0.0566  0.1779
  560POPI   GL1 8911   6.362   7.709   9.439  0.0380  0.1193  0.0823
  560POPI   GL2 8912   6.677   7.564   9.344 -0.1039  0.1935 -0.1972
  560POPI   C1A 8913   6.391   7.959   9.054  0.4147 -0.1848 -0.1223
  560POPI   D2A 8914   6.652   8.036   8.805 -0.1022  0.2380 -0.1132
  560POPI   C3A 8915   6.490   8.093   8.453  0.0664  0.0767  0.0750
  560POPI   C4A 8916   6.408   7.961   8.128  0.0593 -0.0823 -0.4964
  560POPI   C1B 8917   6.776   7.586   8.882 -0.0046  0.1837  0.1248
  560POPI   C2B 8918   6.665   7.602   8.475  0.0325 -0.2400  0.1317
  560POPI   C3B 8919   6.752   7.582   8.001  0.1418 -0.4834  0.0926
  560POPI   C4B 8920   6.844   7.599   7.567  0.0548 -0.0695  0.1471
  561POPI    C1 8921  16.228  16.253  11.349  0.1376  0.1245 -0.3281
  561POPI    C2 8922  16.615  16.347  11.314  0.1964  0.0919  0.1582
  561POPI    C3 8923  16.362  16.604  11.488  0.0344  0.0342  0.0107
  561POPI   PO4 8924  16.089  16.074  11.049 -0.0062  0.0771  0.1778
  561POPI   GL1 8925  15.939  16.170  10.632  0.1015  0.1108  0.1664
  561POPI   GL2 8926  15.708  16.381  10.750 -0.0094  0.1025  0.0665
  561POPI   C1A 8927  16.296  16.197  10.245  0.2874 -0.0191  0.1261
  561POPI   D2A 8928  16.257  16.087   9.765 -0.1983 -0.0297 -0.1835
  561POPI   C3A 8929  16.344  16.216   9.384  0.2864 -0.2093  0.0568
  561POPI   C4A 8930  16.416  16.272   8.989  0.0126 -0.3181  0.0027
  561POPI   C1B 8931  15.449  16.477  10.376  0.2519 -0.1805 -0.1671
  561POPI   C2B 8932  15.349  16.391   9.966 -0.1291 -0.0779 -0.0999
  561POPI   C3B 8933  15.387  16.530   9.537 -0.2257 -0.0313  0.0381
  561POPI   C4B 8934  15.454  16.680   9.127 -0.2744  0.4649 -0.3217
  562POPI    C1 8935  14.306  17.545  11.061 -0.0673  0.0650  0.0255
  562POPI    C2 8936  14.124  17.824  10.841 -0.1186  0.1166  0.1327
  562POPI    C3 8937  14.343  17.931  11.157  0.1251  0.0574 -0.0136
  562POPI   PO4 8938  14.358  17.400  10.892 -0.0445 -0.0796  0.1086
  562POPI   GL1 8939  14.478  17.526  10.552  0.1951 -0.1576  0.0720
  562POPI   GL2 8940  14.277  17.110  10.535  0.0142 -0.2212  0.0495
  562POPI   C1A 8941  14.234  17.496  10.193  0.1156  0.1061  0.0247
  562POPI   D2A 8942  14.296  17.416   9.802 -0.3567 -0.0895  0.1135
  562POPI   C3A 8943  14.306  17.558   9.479  0.1986 -0.1415  0.1641
  562POPI   C4A 8944  14.241  17.660   9.008 -0.1224 -0.2615 -0.0077
  562POPI   C1B 8945  14.025  17.010  10.189  0.1737  0.0169  0.4112
  562POPI   C2B 8946  14.142  16.952   9.690  0.0319 -0.0356  0.0466
  562POPI   C3B 8947  14.115  17.075   9.352  0.0699  0.0619  0.3654
  562POPI   C4B 8948  14.254  17.167   8.902  0.1400  0.1504 -0.1550
  563POPI    C1 8949  12.256   8.258  10.364  0.1987  0.0422  0.0696
  563POPI    C2 8950  12.256   8.612  10.549 -0.0580  0.0373  0.0816
  563POPI    C3 8951  12.143   8.283  10.746 -0.3041  0.0275 -0.0713
  563POPI   PO4 8952  12.194   8.354  10.045  0.0780  0.0471  0.0121
  563POPI   GL1 8953  12.114   8.083   9.694 -0.2087  0.0531 -0.0937
  563POPI   GL2 8954  11.897   8.238   9.598 -0.2686  0.0725 -0.3403
  563POPI   C1A 8955  12.225   7.801   9.380 -0.2502  0.0958 -0.0931
  563POPI   D2A 8956  12.091   7.870   8.824 -0.3155 -0.1065 -0.0500
  563POPI   C3A 8957  12.180   7.788   8.454  0.4147 -0.3451 -0.1301
  563POPI   C4A 8958  12.180   7.729   7.993  0.1100  0.0690  0.0070
  563POPI   C1B 8959  11.723   7.943   9.310 -0.0222 -0.2386  0.0932
  563POPI   C2B 8960  11.592   7.927   8.959  0.2600  0.0019 -0.0427
  563POPI   C3B 8961  11.637   7.835   8.546 -0.0098 -0.2093 -0.0600
  563POPI   C4B 8962  11.663   7.653   8.151  0.2520  0.0719  0.0257
  564POPI    C1 8963   0.335   1.190  10.919 -0.0500  0.0227 -0.0833
  564POPI    C2 8964   0.182   1.207  11.288 -0.0498 -0.0577 -0.0793
  564POPI    C3 8965   0.204   1.538  11.065  0.0890  0.0208  0.0487
  564POPI   PO4 8966   0.160   0.953  10.767 -0.1856 -0.1362  0.1064
  564POPI   GL1 8967   0.015   0.763  10.380  0.0385  0.1331 -0.0919
  564POPI   GL2 8968   0.366   0.749  10.352  0.1954  0.0936 -0.0335
  564POPI   C1A 8969  -0.119   0.766   9.916 -0.0386  0.2833 -0.0137
  564POPI   D2A 8970  -0.179   0.755   9.484  0.1304  0.2178 -0.1610
  564POPI   C3A 8971  -0.034   0.802   9.072  0.0808  0.0162  0.0426
  564POPI   C4A 8972   0.044   0.722   8.569  0.1413  0.1189  0.2133
  564POPI   C1B 8973   0.407   0.831   9.915  0.0014  0.1385  0.0533
  564POPI   C2B 8974   0.364   0.855   9.449 -0.0653  0.0093  0.1758
  564POPI   C3B 8975   0.458   0.809   9.012 -0.2119 -0.0792  0.1486
  564POPI   C4B 8976   0.571   0.789   8.587  0.0522 -0.0152 -0.1189
  565POPI    C1 8977  14.976   8.423  10.345  0.1554 -0.0859  0.1352
  565POPI    C2 8978  14.677   8.241  10.538 -0.0719 -0.0093 -0.1375
  565POPI    C3 8979  14.875   8.542  10.713 -0.1223 -0.0909  0.0626
  565POPI   PO4 8980  15.094   8.444   9.974  0.0494 -0.1557 -0.0677
  565POPI   GL1 8981  15.136   8.526   9.604 -0.0790 -0.1371  0.1701
  565POPI   GL2 8982  15.033   8.926   9.487 -0.1288  0.2770  0.1335
  565POPI   C1A 8983  15.162   8.499   9.119 -0.2467  0.0026  0.0814
  565POPI   D2A 8984  15.331   8.372   8.872 -0.2196 -0.0818  0.0777
  565POPI   C3A 8985  15.165   8.436   8.552 -0.0409 -0.2636  0.1702
  565POPI   C4A 8986  15.300   8.482   8.154 -0.0865  0.2199 -0.2338
  565POPI   C1B 8987  14.938   8.944   9.086  0.0041 -0.2890 -0.1399
  565POPI   C2B 8988  14.889   8.930   8.749 -0.0822 -0.0765  0.1843
  565POPI   C3B 8989  15.015   8.858   8.377  0.0644  0.0120 -0.1045
  565POPI   C4B 8990  14.878   8.784   7.939 -0.1524  0.0848  0.0714
  566POPI    C1 8991   8.440   5.832  10.369 -0.0237  0.2592  0.1454
  566POPI    C2 8992   8.801   5.729  10.508  0.0010  0.0473 -0.0687
  566POPI    C3 8993   8.472   5.639  10.718  0.0665  0.1795  0.0933
  566POPI   PO4 8994   8.444   5.756  10.143  0.0352  0.1852 -0.0921
  566POPI   GL1 8995   8.176   5.485   9.860  0.2560  0.0137  0.0335
  566POPI   GL2 8996   7.858   5.274   9.836  0.0785 -0.0146 -0.2352
  566POPI   C1A 8997   8.367   5.571   9.472 -0.2199 -0.3072 -0.1414
  566POPI   D2A 8998   8.249   5.406   9.081 -0.1246  0.0987 -0.0377
  566POPI   C3A 8999   8.274   5.757   8.711 -0.0049 -0.0138  0.1562
  566POPI   C4A 9000   8.306   6.017   8.319 -0.1125 -0.1885 -0.1146
  566POPI   C1B 9001   7.992   5.126   9.445  0.1253 -0.2033 -0.1974
  566POPI   C2B 9002   7.974   4.942   9.008 -0.2264 -0.2177 -0.0717
  566POPI   C3B 9003   7.784   4.822   8.746 -0.0549  0.0306  0.2110
  566POPI   C4B 9004   7.967   4.731   8.311  0.0094 -0.1917 -0.1885
  567POPI    C1 9005   4.322  13.089  10.624 -0.0424 -0.2250  0.1562
  567POPI    C2 9006   3.979  13.067  10.421  0.0519 -0.0936 -0.0201
  567POPI    C3 9007   3.991  12.955  10.804 -0.1762 -0.1440 -0.0258
  567POPI   PO4 9008   4.463  13.214  10.557  0.1717  0.0349 -0.1699
  567POPI   GL1 9009   4.483  13.324  10.146  0.0695  0.1693 -0.2592
  567POPI   GL2 9010   4.382  13.492   9.930 -0.1323  0.0455  0.0392
  567POPI   C1A 9011   4.226  13.032   9.812 -0.0015 -0.0150  0.2716
  567POPI   D2A 9012   4.213  13.006   9.398 -0.1892 -0.4172 -0.2285
  567POPI   C3A 9013   4.225  12.965   8.991  0.2565  0.3600 -0.2213
  567POPI   C4A 9014   4.194  12.981   8.635 -0.2813 -0.0795 -0.0804
  567POPI   C1B 9015   4.440  13.508   9.561 -0.0396  0.0452 -0.0176
  567POPI   C2B 9016   4.482  13.637   9.177 -0.0396 -0.0150 -0.2720
  567POPI   C3B 9017   4.323  13.546   8.718  0.1034 -0.5416 -0.2374
  567POPI   C4B 9018   4.272  13.350   8.294 -0.4851 -0.2017  0.1310
  568POPI    C1 9019  17.715  14.532  11.250 -0.0022  0.1083 -0.0564
  568POPI    C2 9020  17.528  14.665  11.578 -0.2558  0.0072 -0.1578
  568POPI    C3 9021  17.625  14.278  11.545  0.2136  0.1037  0.0072
  568POPI   PO4 9022  17.666  14.635  11.031  0.0775  0.2940  0.2282
  568POPI   GL1 9023  17.596  14.460  10.635 -0.0817  0.2903 -0.4484
  568POPI   GL2 9024  17.435  14.199  10.623 -0.1859 -0.0272  0.0457
  568POPI   C1A 9025  17.770  14.630  10.372  0.2722 -0.0556  0.2193
  568POPI   D2A 9026  17.736  14.587   9.955  0.0350 -0.1096  0.1049
  568POPI   C3A 9027  17.716  14.702   9.565  0.3405  0.0683 -0.1997
  568POPI   C4A 9028  17.729  14.605   9.191 -0.0026 -0.2468  0.2324
  568POPI   C1B 9029  17.556  14.107  10.219  0.1812  0.2157  0.3330
  568POPI   C2B 9030  17.576  14.118   9.794 -0.0897  0.1989  0.1138
  568POPI   C3B 9031  17.615  14.178   9.357  0.1777 -0.1229 -0.1074
  568POPI   C4B 9032  17.600  14.166   8.878  0.2513  0.1852 -0.0287
  569POPI    C1 9033   1.646  15.628  11.222  0.1436 -0.0875  0.1159
  569POPI    C2 9034   1.674  15.323  11.479  0.1665 -0.0353  0.1754
  569POPI    C3 9035   1.644  15.698  11.616 -0.0383 -0.0250  0.1047
  569POPI   PO4 9036   1.857  15.598  11.026  0.1732  0.1868 -0.1941
  569POPI   GL1 9037   2.006  15.348  10.618  0.0822  0.1391 -0.1404
  569POPI   GL2 9038   2.143  15.635  10.607  0.1170  0.2268 -0.0229
  569POPI   C1A 9039   2.003  15.209  10.152 -0.1259  0.0597  0.0754
  569POPI   D2A 9040   2.041  15.217   9.685 -0.0559  0.2876 -0.3285
  569POPI   C3A 9041   2.246  15.295   9.282 -0.3180 -0.1131 -0.1641
  569POPI   C4A 9042   2.116  15.212   8.950  0.0513  0.1678 -0.0273
  569POPI   C1B 9043   2.147  15.765  10.205 -0.2051  0.1431  0.2944
  569POPI   C2B 9044   2.173  15.712   9.751  0.1749 -0.2125  0.2300
  569POPI   C3B 9045   2.266  15.808   9.312 -0.1056  0.0494  0.0534
  569POPI   C4B 9046   2.243  15.707   8.961 -0.0908  0.1202  0.0301
  570POPI    C1 9047   9.290   2.437  11.176 -0.0567 -0.1165 -0.1182
  570POPI    C2 9048   9.647   2.612  11.218 -0.1528  0.0674 -0.0590
  570POPI    C3 9049   9.518   2.352  11.493 -0.0774  0.0228 -0.0656
  570POPI   PO4 9050   9.219   2.318  10.991  0.4136  0.2852 -0.0065
  570POPI   GL1 9051   9.199   2.571  10.574 -0.0717  0.1150  0.2454
  570POPI   GL2 9052   8.969   2.355  10.577 -0.3921 -0.0646  0.1115
  570POPI   C1A 9053   9.396   2.271  10.282  0.0128 -0.0198  0.1416
  570POPI   D2A 9054   9.336   2.020   9.928  0.0886  0.2054  0.0607
  570POPI   C3A 9055   9.449   2.029   9.547  0.0416 -0.3593  0.4199
  570POPI   C4A 9056   9.563   2.109   9.057 -0.3035  0.2150 -0.0667
  570POPI   C1B 9057   8.932   2.534  10.112 -0.1592 -0.0313 -0.4915
  570POPI   C2B 9058   9.034   2.441   9.726  0.2520 -0.0911  0.0683
  570POPI   C3B 9059   9.120   2.348   9.214  0.0420  0.2973  0.2137
  570POPI   C4B 9060   9.136   2.456   8.852  0.2123  0.2955 -0.0416
  571POPI    C1 9061   4.493  11.608  10.546  0.4172 -0.0267  0.0660
  571POPI    C2 9062   4.345  11.917  10.754 -0.0039  0.0028 -0.2647
  571POPI    C3 9063   4.624  11.682  10.917  0.1697  0.4285  0.0707
  571POPI   PO4 9064   4.470  11.691  10.274 -0.0639 -0.1200  0.0018
  571POPI   GL1 9065   4.303  12.051   9.997 -0.1536  0.5220 -0.1946
  571POPI   GL2 9066   4.478  12.148   9.680 -0.1321 -0.1105 -0.1645
  571POPI   C1A 9067   4.280  11.707   9.663  0.1115  0.1187 -0.2496
  571POPI   D2A 9068   4.280  11.664   9.245  0.2015  0.3260  0.1539
  571POPI   C3A 9069   4.338  11.650   8.839  0.0565 -0.0915 -0.0240
  571POPI   C4A 9070   4.110  11.647   8.474  0.1584  0.1499 -0.4966
  571POPI   C1B 9071   4.401  12.152   9.315  0.0527 -0.1952  0.1400
  571POPI   C2B 9072   4.306  12.108   8.953  0.2306  0.2212  0.1124
  571POPI   C3B 9073   4.339  12.052   8.509  0.0171 -0.0595 -0.1474
  571POPI   C4B 9074   4.270  11.940   8.104 -0.0995  0.0891 -0.0483
  572POPI    C1 9075   0.526   9.605  10.575  0.0177 -0.1071 -0.0531
  572POPI    C2 9076   0.596   9.933  10.793  0.1552 -0.2039  0.0506
  572POPI    C3 9077   0.289   9.694  10.886 -0.0569 -0.0102 -0.1369
  572POPI   PO4 9078   0.434   9.628  10.269  0.3155 -0.2661 -0.1509
  572POPI   GL1 9079   0.517   9.889   9.944 -0.0146  0.3164 -0.0827
  572POPI   GL2 9080   0.032   9.977   9.937 -0.4089 -0.1338  0.1321
  572POPI   C1A 9081   0.457   9.737   9.494  0.1141  0.0385 -0.2100
  572POPI   D2A 9082   0.348   9.776   9.091 -0.0469  0.0269  0.0435
  572POPI   C3A 9083   0.252   9.426   8.774  0.1220 -0.0222 -0.0339
  572POPI   C4A 9084   0.208   9.295   8.391  0.0075  0.2470  0.0471
  572POPI   C1B 9085  -0.139  10.078   9.573  0.2397  0.0300 -0.1996
  572POPI   C2B 9086  -0.002  10.096   9.085  0.2995 -0.0589 -0.3012
  572POPI   C3B 9087  -0.021  10.112   8.691 -0.1578  0.1907 -0.0398
  572POPI   C4B 9088  -0.063  10.075   8.246  0.0663  0.0117 -0.2231
  573POPI    C1 9089   5.273   0.540  10.793 -0.3470  0.2914 -0.0306
  573POPI    C2 9090   5.232   0.570  11.190  0.0085  0.0527  0.0293
  573POPI    C3 9091   5.299   0.213  11.023  0.2309  0.2020 -0.2078
  573POPI   PO4 9092   5.281   0.881  10.737  0.1258  0.1535  0.2698
  573POPI   GL1 9093   5.067   1.136  10.454  0.2099  0.0638  0.0181
  573POPI   GL2 9094   5.079   1.431  10.393 -0.1041 -0.0787  0.4268
  573POPI   C1A 9095   5.263   1.087   9.998 -0.0373 -0.0676 -0.2637
  573POPI   D2A 9096   5.295   0.980   9.569  0.0468 -0.1331 -0.0532
  573POPI   C3A 9097   5.285   1.107   9.201  0.0409 -0.2056  0.0939
  573POPI   C4A 9098   5.362   1.118   8.771 -0.1881 -0.1414  0.0581
  573POPI   C1B 9099   4.905   1.481   9.935 -0.1055 -0.0158  0.2283
  573POPI   C2B 9100   4.983   1.419   9.475 -0.1806  0.1148 -0.0317
  573POPI   C3B 9101   4.986   1.473   8.998 -0.0948  0.1961  0.2419
  573POPI   C4B 9102   5.100   1.499   8.622  0.0873 -0.0628  0.1829
  574DPPI    C1 9103  15.572   4.761  10.706 -0.0120 -0.0283  0.0682
  574DPPI    C2 9104  15.465   4.385  10.792  0.3932 -0.1735 -0.0417
  574DPPI    C3 9105  15.561   4.637  11.086 -0.0295 -0.1041  0.0434
  574DPPI   PO4 9106  15.672   4.708  10.426  0.1863 -0.1149  0.2473
  574DPPI   GL1 9107  15.704   4.865  10.060  0.2657  0.0540  0.0084
  574DPPI   GL2 9108  15.954   5.040   9.881 -0.2123 -0.2990 -0.2326
  574DPPI   C1A 9109  15.503   4.840   9.573  0.1614 -0.1196  0.2633
  574DPPI   C2A 9110  15.472   4.778   9.099 -0.1891 -0.0650  0.0620
  574DPPI   C3A 9111  15.543   4.758   8.642  0.1467  0.3838  0.2846
  574DPPI   C4A 9112  15.643   4.635   8.156 -0.3197  0.1956 -0.0006
  574DPPI   C1B 9113  15.985   4.979   9.449 -0.1620  0.2087  0.1063
  574DPPI   C2B 9114  15.991   4.942   8.986  0.0253  0.0762 -0.5551
  574DPPI   C3B 9115  16.078   4.895   8.567 -0.0749 -0.2140 -0.0364
  574DPPI   C4B 9116  16.099   4.897   8.071  0.0483  0.1849 -0.2628
  575DPPI    C1 9117   0.832   9.308  10.339  0.0556 -0.2539  0.1695
  575DPPI    C2 9118   1.034   9.435  10.660  0.2360  0.0591 -0.0620
  575DPPI    C3 9119   0.996   9.043  10.590  0.5331 -0.0072  0.1300
  575DPPI   PO4 9120   1.024   9.443  10.100 -0.3958 -0.0062  0.2672
  575DPPI   GL1 9121   1.073   9.649   9.826 -0.0377 -0.2817  0.2058
  575DPPI   GL2 9122   1.019   9.930   9.825 -0.2174  0.2563 -0.0711
  575DPPI   C1A 9123   0.947   9.796   9.382 -0.0900 -0.0905  0.1354
  575DPPI   C2A 9124   0.855   9.911   8.917 -0.0536  0.3228 -0.0753
  575DPPI   C3A 9125   0.549   9.777   8.645  0.2398 -0.0967  0.0002
  575DPPI   C4A 9126   0.326   9.759   8.333  0.1362 -0.1086 -0.0420
  575DPPI   C1B 9127   1.094  10.274   9.539 -0.0532 -0.0800  0.1344
  575DPPI   C2B 9128   1.107  10.378   9.131  0.1146  0.1863 -0.0792
  575DPPI   C3B 9129   1.003  10.478   8.732  0.1614 -0.0429 -0.0296
  575DPPI   C4B 9130   0.885  10.319   8.448 -0.0632 -0.0750 -0.1072
  576DPPI    C1 9131   0.143   6.276  10.746  0.2850 -0.0491  0.1101
  576DPPI    C2 9132  -0.044   6.366  11.088  0.1603 -0.1257  0.0628
  576DPPI    C3 9133   0.356   6.373  11.071  0.1631  0.0241  0.1688
  576DPPI   PO4 9134  -0.064   6.387  10.506  0.2142  0.1390 -0.0286
  576DPPI   GL1 9135  -0.051   6.063  10.126 -0.0487  0.0945 -0.1668
  576DPPI   GL2 9136  -0.222   6.310   9.944  0.1490 -0.1266  0.1756
  576DPPI   C1A 9137   0.065   5.948   9.669 -0.0164  0.1283 -0.2953
  576DPPI   C2A 9138   0.046   5.918   9.246  0.1556  0.0202  0.2843
  576DPPI   C3A 9139   0.057   5.814   8.874 -0.0517  0.2873 -0.2648
  576DPPI   C4A 9140   0.050   5.907   8.358 -0.0826  0.1710  0.0380
  576DPPI   C1B 9141  -0.327   6.320   9.508  0.0825 -0.0811 -0.0091
  576DPPI   C2B 9142  -0.302   6.166   9.026  0.1319 -0.1059  0.0311
  576DPPI   C3B 9143  -0.216   6.276   8.585  0.1102 -0.3100 -0.0266
  576DPPI   C4B 9144  -0.248   6.329   8.179  0.0059  0.1753  0.1732
  577DPPI    C1 9145   4.333   0.166  10.952  0.0570  0.1021  0.1622
  577DPPI    C2 9146   3.971   0.019  10.866  0.1639  0.0187 -0.1578
  577DPPI    C3 9147   4.115  -0.010  11.238 -0.1569  0.0538 -0.0275
  577DPPI   PO4 9148   4.302   0.365  10.664  0.3301  0.0491  0.1427
  577DPPI   GL1 9149   4.307   0.698  10.244  0.0438  0.1269 -0.0347
  577DPPI   GL2 9150   4.486   0.419  10.198 -0.0735 -0.0689 -0.1686
  577DPPI   C1A 9151   4.351   0.743   9.759 -0.4745  0.0960 -0.1374
  577DPPI   C2A 9152   4.333   0.834   9.275 -0.2108 -0.2993  0.1319
  577DPPI   C3A 9153   4.344   0.802   8.802  0.2074  0.2318 -0.0353
  577DPPI   C4A 9154   4.203   0.861   8.426  0.0623  0.2047  0.1020
  577DPPI   C1B 9155   4.632   0.304   9.774  0.2205 -0.3224  0.1374
  577DPPI   C2B 9156   4.653   0.452   9.379 -0.2805 -0.0071  0.0686
  577DPPI   C3B 9157   4.704   0.512   8.960 -0.1908 -0.0323  0.0897
  577DPPI   C4B 9158   4.569   0.464   8.467  0.1521  0.0873 -0.0404
  578DPPI    C1 9159   4.764   3.854  10.798 -0.0412 -0.1569  0.0437
  578DPPI    C2 9160   4.468   4.056  10.976 -0.0289 -0.0329 -0.0748
  578DPPI    C3 9161   4.846   4.182  11.013  0.0056 -0.1698  0.0457
  578DPPI   PO4 9162   4.676   3.799  10.589 -0.3045 -0.3830  0.0998
  578DPPI   GL1 9163   4.517   3.804  10.179 -0.2708 -0.1139 -0.1385
  578DPPI   GL2 9164   4.373   4.093  10.057 -0.1134  0.1228  0.3992
  578DPPI   C1A 9165   4.624   3.696   9.739  0.1485 -0.2370 -0.2039
  578DPPI   C2A 9166   4.621   3.655   9.268 -0.1643  0.3844 -0.1041
  578DPPI   C3A 9167   4.650   3.603   8.850  0.3713 -0.3015  0.0427
  578DPPI   C4A 9168   4.620   3.565   8.484 -0.0832  0.0802 -0.1112
  578DPPI   C1B 9169   4.230   3.989   9.704  0.5723 -0.1303  0.0943
  578DPPI   C2B 9170   4.250   3.928   9.329  0.0312 -0.0254 -0.2010
  578DPPI   C3B 9171   4.228   3.930   8.895 -0.0810  0.0172  0.2888
  578DPPI   C4B 9172   4.317   3.944   8.594  0.1409 -0.1387 -0.0936
  579DPPI    C1 9173   3.295   6.821  10.778  0.1053  0.1806  0.0698
  579DPPI    C2 9174   3.629   6.894  10.987  0.1598  0.0725  0.0213
  579DPPI    C3 9175   3.273   6.892  11.171  0.1949  0.1008  0.0897
  579DPPI   PO4 9176   3.411   6.679  10.504  0.1860 -0.2935  0.0831
  579DPPI   GL1 9177   3.251   6.445  10.225 -0.2628 -0.1228 -0.0689
  579DPPI   GL2 9178   3.151   6.107  10.199  0.0815 -0.1472 -0.2059
  579DPPI   C1A 9179   3.531   6.344   9.888  0.0373 -0.2280  0.1950
  579DPPI   C2A 9180   3.484   6.222   9.428 -0.2147  0.0106 -0.2356
  579DPPI   C3A 9181   3.474   6.220   8.952 -0.0218 -0.0537 -0.2678
  579DPPI   C4A 9182   3.615   6.137   8.611  0.1407  0.0172 -0.2101
  579DPPI   C1B 9183   3.081   6.195   9.745  0.1404 -0.1601 -0.1098
  579DPPI   C2B 9184   3.041   6.159   9.237  0.1278  0.0844  0.1301
  579DPPI   C3B 9185   3.097   5.966   8.806  0.3147 -0.1402 -0.0322
  579DPPI   C4B 9186   3.018   6.024   8.306  0.1599 -0.1053  0.2912
  580DPPI    C1 9187  15.789   7.134  10.449 -0.0380  0.1907 -0.1671
  580DPPI    C2 9188  15.456   7.318  10.570 -0.0996 -0.1326  0.1714
  580DPPI    C3 9189  15.753   7.252  10.829  0.0045 -0.3266  0.0055
  580DPPI   PO4 9190  15.831   7.201  10.215 -0.2312  0.0991  0.1613
  580DPPI   GL1 9191  15.842   7.159   9.901  0.2430  0.1005  0.0640
  580DPPI   GL2 9192  16.071   6.863   9.887 -0.1162 -0.0036  0.0165
  580DPPI   C1A 9193  15.768   7.264   9.543  0.1496  0.1297 -0.4918
  580DPPI   C2A 9194  15.842   7.164   9.039 -0.1675  0.2194 -0.4692
  580DPPI   C3A 9195  15.849   7.206   8.802 -0.1326  0.0635 -0.0688
  580DPPI   C4A 9196  15.836   7.075   8.389 -0.0370 -0.3885 -0.0517
  580DPPI   C1B 9197  16.103   6.948   9.413 -0.0771  0.1773  0.0120
  580DPPI   C2B 9198  16.211   6.859   9.022 -0.2820 -0.1204 -0.0559
  580DPPI   C3B 9199  16.185   6.795   8.561  0.1931  0.1950  0.0017
  580DPPI   C4B 9200  16.205   6.750   8.150  0.5748 -0.1014 -0.0241
  581DPPI    C1 9201   3.790   0.551  11.004 -0.1098 -0.0052 -0.0202
  581DPPI    C2 9202   3.652   0.367  11.332  0.0845  0.1212  0.1350
  581DPPI    C3 9203   4.011   0.543  11.337  0.0217  0.2616 -0.0983
  581DPPI   PO4 9204   3.671   0.671  10.851  0.0421 -0.2522  0.0722
  581DPPI   GL1 9205   3.710   0.732  10.440 -0.2672  0.0690 -0.0033
  581DPPI   GL2 9206   3.831   0.361  10.467  0.0518 -0.0161 -0.0359
  581DPPI   C1A 9207   3.716   0.631   9.967 -0.2260 -0.2657 -0.2177
  581DPPI   C2A 9208   3.740   0.576   9.447 -0.0367  0.0320 -0.0105
  581DPPI   C3A 9209   3.848   0.743   8.991  0.0370 -0.2494  0.2906
  581DPPI   C4A 9210   3.808   0.624   8.623 -0.0691  0.0109 -0.1461
  581DPPI   C1B 9211   4.000   0.288  10.067  0.1525 -0.4290 -0.2884
  581DPPI   C2B 9212   4.152   0.346   9.622 -0.1960  0.3638  0.1667
  581DPPI   C3B 9213   4.173   0.283   9.205 -0.3549  0.0481 -0.1023
  581DPPI   C4B 9214   4.228   0.328   8.893 -0.1209 -0.3049  0.1359
  582DPPI    C1 9215   9.417   7.279  10.063  0.2630 -0.0380 -0.0818
  582DPPI    C2 9216   9.363   7.446  10.422 -0.2730 -0.0055 -0.1693
  582DPPI    C3 9217   9.509   7.664  10.121  0.0172  0.0132 -0.0183
  582DPPI   PO4 9218   9.344   6.981  10.174  0.0539 -0.0492  0.0433
  582DPPI   GL1 9219   9.391   6.622   9.899 -0.2465  0.1746  0.2618
  582DPPI   GL2 9220   9.390   6.304   9.897 -0.3543  0.3534  0.1475
  582DPPI   C1A 9221   9.401   6.594   9.343  0.2070 -0.0769 -0.0158
  582DPPI   C2A 9222   9.415   6.523   8.839 -0.1432  0.1526 -0.3816
  582DPPI   C3A 9223   9.336   6.144   8.472 -0.0467  0.3828  0.3483
  582DPPI   C4A 9224   8.938   6.223   8.175  0.0237 -0.0322 -0.0297
  582DPPI   C1B 9225   9.613   6.209   9.553  0.1512  0.0361  0.0006
  582DPPI   C2B 9226   9.569   6.150   9.182  0.0713  0.1730 -0.1668
  582DPPI   C3B 9227   9.698   5.928   8.789  0.0764 -0.0439 -0.1241
  582DPPI   C4B 9228   9.682   5.767   8.379 -0.2092 -0.0232  0.3370
  583DPPI    C1 9229   4.895   2.150  11.204  0.1796  0.1152  0.0009
  583DPPI    C2 9230   4.774   2.232  11.576  0.0724  0.1926 -0.0505
  583DPPI    C3 9231   4.540   2.325  11.265  0.0346 -0.1311 -0.1217
  583DPPI   PO4 9232   4.916   1.901  11.095  0.0113 -0.0505 -0.1679
  583DPPI   GL1 9233   4.966   2.027  10.691 -0.1395 -0.4587 -0.1862
  583DPPI   GL2 9234   5.237   1.875  10.691 -0.0571 -0.2019 -0.1412
  583DPPI   C1A 9235   4.831   1.888  10.300 -0.1403 -0.1759 -0.1514
  583DPPI   C2A 9236   4.946   2.003   9.900 -0.1877  0.1751  0.0759
  583DPPI   C3A 9237   5.104   1.872   9.507  0.2170  0.3988  0.2519
  583DPPI   C4A 9238   5.088   1.934   9.110 -0.2664  0.1199  0.2070
  583DPPI   C1B 9239   5.316   1.898  10.239  0.1174  0.3724 -0.0306
  583DPPI   C2B 9240   5.403   1.591   9.869 -0.1541  0.0992  0.0212
  583DPPI   C3B 9241   5.489   1.568   9.463  0.1706  0.1020 -0.1424
  583DPPI   C4B 9242   5.439   1.595   9.075  0.1049  0.1941 -0.1406
  584DPPI    C1 9243  17.478  17.666  11.044  0.1646 -0.0501 -0.0321
  584DPPI    C2 9244  17.170  17.632  10.791  0.1616  0.0564 -0.0431
  584DPPI    C3 9245  17.110  17.597  11.185  0.1435  0.0276 -0.0483
  584DPPI   PO4 9246  17.730  17.735  10.885  0.2403  0.1730 -0.1854
  584DPPI   GL1 9247  17.699  17.660  10.505  0.0420  0.1370  0.0639
  584DPPI   GL2 9248  17.489  17.407  10.471  0.0908  0.2101  0.1101
  584DPPI   C1A 9249  17.752  17.928  10.073 -0.0527 -0.0720  0.1628
  584DPPI   C2A 9250  17.771  18.000   9.610  0.0777  0.1380  0.1878
  584DPPI   C3A 9251  17.882  17.923   9.158 -0.0456  0.3846 -0.1031
  584DPPI   C4A 9252  17.878  17.944   8.660 -0.2066 -0.2712 -0.0647
  584DPPI   C1B 9253  17.623  17.479  10.012  0.1564  0.2549  0.0308
  584DPPI   C2B 9254  17.705  17.477   9.543 -0.3164  0.1859  0.0477
  584DPPI   C3B 9255  17.693  17.442   9.189  0.3583  0.0266  0.1543
  584DPPI   C4B 9256  17.667  17.496   8.869  0.0185 -0.3233  0.3026
  585DPPI    C1 9257  11.805   3.272  11.060  0.1446  0.0626 -0.1898
  585DPPI    C2 9258  11.981   3.199  11.411  0.0424 -0.1260 -0.1768
  585DPPI    C3 9259  11.770   3.535  11.360  0.1431 -0.0490 -0.0918
  585DPPI   PO4 9260  11.935   3.301  10.780  0.0578 -0.0285 -0.3695
  585DPPI   GL1 9261  11.897   3.030  10.414  0.0109 -0.2721 -0.0449
  585DPPI   GL2 9262  11.770   3.262  10.180  0.2626 -0.0296  0.0015
  585DPPI   C1A 9263  11.766   2.763  10.036 -0.1741  0.0009 -0.1880
  585DPPI   C2A 9264  11.945   2.579   9.764  0.1143  0.1491 -0.0811
  585DPPI   C3A 9265  11.951   2.587   9.338  0.0261 -0.1907 -0.0918
  585DPPI   C4A 9266  11.933   2.545   8.929  0.3304  0.1247  0.0561
  585DPPI   C1B 9267  12.044   3.195   9.845 -0.0004 -0.0499 -0.0266
  585DPPI   C2B 9268  12.149   3.107   9.383  0.0956  0.3707 -0.0942
  585DPPI   C3B 9269  12.125   3.021   9.038  0.2879 -0.1917  0.1627
  585DPPI   C4B 9270  12.125   2.993   8.654  0.1350 -0.0158  0.2578
  586DPPI    C1 9271  16.569  12.337  10.882  0.2388  0.1348  0.0701
  586DPPI    C2 9272  16.923  12.167  10.958  0.1190 -0.1186  0.0744
  586DPPI    C3 9273  16.619  12.117  11.213  0.0498  0.0119  0.0189
  586DPPI   PO4 9274  16.627  12.428  10.588 -0.0870  0.2548 -0.0172
  586DPPI   GL1 9275  16.467  12.188  10.205  0.1576 -0.0856 -0.0714
  586DPPI   GL2 9276  16.483  11.927   9.973  0.3519  0.2325 -0.0282
  586DPPI   C1A 9277  16.695  12.538   9.853  0.4565  0.0847  0.0760
  586DPPI   C2A 9278  16.655  12.599   9.435 -0.0359 -0.0905  0.4789
  586DPPI   C3A 9279  16.593  12.603   8.969 -0.0015 -0.0897  0.0424
  586DPPI   C4A 9280  16.441  12.617   8.535 -0.1394  0.2181  0.2446
  586DPPI   C1B 9281  16.500  12.140   9.596 -0.0279  0.1104 -0.0241
  586DPPI   C2B 9282  16.462  12.175   9.188  0.2549  0.0706  0.0482
  586DPPI   C3B 9283  16.408  12.038   8.738 -0.2357 -0.1775 -0.1383
  586DPPI   C4B 9284  16.415  12.030   8.280  0.1054  0.0456  0.1958
  587DPPI    C1 9285  10.149   4.862  10.916 -0.0278  0.2125 -0.0932
  587DPPI    C2 9286   9.983   4.518  11.034  0.1205  0.0701 -0.2928
  587DPPI    C3 9287   9.771   4.857  11.045  0.1032  0.0497  0.2996
  587DPPI   PO4 9288  10.234   4.782  10.715  0.2437  0.0968 -0.1558
  587DPPI   GL1 9289  10.243   4.672  10.382  0.1453 -0.6147 -0.0279
  587DPPI   GL2 9290  10.035   4.554  10.270  0.0929  0.0272 -0.0025
  587DPPI   C1A 9291  10.485   4.362  10.088  0.2339 -0.1235 -0.3088
  587DPPI   C2A 9292  10.445   4.169   9.683  0.1540 -0.0984  0.1374
  587DPPI   C3A 9293  10.449   4.128   9.230 -0.0772  0.2451 -0.0966
  587DPPI   C4A 9294  10.646   4.204   8.817 -0.2161 -0.1458  0.2178
  587DPPI   C1B 9295  10.048   4.631   9.802  0.0731 -0.1843 -0.4355
  587DPPI   C2B 9296  10.040   4.547   9.408 -0.1089  0.0290  0.0356
  587DPPI   C3B 9297  10.100   4.495   9.017 -0.0569 -0.1372 -0.2399
  587DPPI   C4B 9298  10.200   4.529   8.619  0.1459 -0.0456 -0.0836
  588DPPI    C1 9299  10.538   9.681  10.115 -0.0678 -0.0083  0.0115
  588DPPI    C2 9300  10.440   9.690  10.503  0.3756  0.1567  0.1247
  588DPPI    C3 9301  10.791   9.535  10.388  0.1431 -0.1179 -0.2383
  588DPPI   PO4 9302  10.407   9.653   9.972 -0.0043  0.0979  0.1469
  588DPPI   GL1 9303  10.602   9.607   9.619 -0.4395 -0.2036  0.2337
  588DPPI   GL2 9304  10.409   9.557   9.450 -0.0202 -0.4988 -0.0819
  588DPPI   C1A 9305  10.841   9.247   9.458 -0.0135 -0.0629 -0.3728
  588DPPI   C2A 9306  10.861   9.195   8.929 -0.2861 -0.3909 -0.1146
  588DPPI   C3A 9307  11.054   9.145   8.447  0.0733  0.0566 -0.1681
  588DPPI   C4A 9308  11.146   9.159   8.062  0.2007 -0.1136 -0.1669
  588DPPI   C1B 9309  10.384   9.439   9.014  0.0466 -0.0626 -0.0292
  588DPPI   C2B 9310  10.547   9.392   8.600 -0.2880  0.2123  0.0985
  588DPPI   C3B 9311  10.717   9.460   8.204  0.2084 -0.0392 -0.1876
  588DPPI   C4B 9312  10.800   9.355   7.760 -0.0548 -0.1090 -0.4293
  589DPPI    C1 9313  11.463   6.348  10.590  0.0641  0.1583  0.0517
  589DPPI    C2 9314  11.725   6.196  10.852  0.2337  0.1227 -0.1359
  589DPPI    C3 9315  11.435   6.441  10.978  0.1482 -0.1070  0.1238
  589DPPI   PO4 9316  11.541   6.391  10.243 -0.1699 -0.1110 -0.0625
  589DPPI   GL1 9317  11.528   6.520   9.746 -0.3579 -0.0933  0.2137
  589DPPI   GL2 9318  11.296   6.779   9.773 -0.0860  0.2294 -0.4049
  589DPPI   C1A 9319  11.637   6.309   9.507 -0.0629  0.0026  0.1963
  589DPPI   C2A 9320  11.705   6.158   9.118  0.0276  0.2738  0.0302
  589DPPI   C3A 9321  11.794   6.187   8.642 -0.3114  0.0275  0.0940
  589DPPI   C4A 9322  11.863   6.172   8.239 -0.2708  0.0793 -0.0163
  589DPPI   C1B 9323  11.315   6.677   9.386 -0.1851 -0.2898 -0.3213
  589DPPI   C2B 9324  11.371   6.566   8.919 -0.1580  0.0342  0.3993
  589DPPI   C3B 9325  11.429   6.602   8.573  0.2066  0.0436  0.0507
  589DPPI   C4B 9326  11.098   6.645   8.257 -0.1770  0.0220 -0.1753
  590DPPI    C1 9327   5.792  17.228  10.967  0.0019 -0.0547  0.0129
  590DPPI    C2 9328   5.756  17.507  11.251  0.1976 -0.0878  0.0719
  590DPPI    C3 9329   5.533  17.175  11.266  0.0250  0.0259  0.0473
  590DPPI   PO4 9330   5.703  17.310  10.766  0.4272 -0.4390 -0.1490
  590DPPI   GL1 9331   5.500  17.532  10.469 -0.2870 -0.1095 -0.1331
  590DPPI   GL2 9332   5.298  17.347  10.421  0.1195 -0.0425  0.1028
  590DPPI   C1A 9333   5.629  17.515  10.108  0.2549 -0.0197 -0.0969
  590DPPI   C2A 9334   5.727  17.350   9.677  0.0734  0.0980 -0.0068
  590DPPI   C3A 9335   5.685  17.492   9.237  0.2327 -0.1321 -0.2224
  590DPPI   C4A 9336   5.683  17.525   8.775  0.1036 -0.1639 -0.0377
  590DPPI   C1B 9337   5.161  17.362   9.948  0.1612  0.1689 -0.0580
  590DPPI   C2B 9338   5.224  17.304   9.499 -0.1880 -0.0995  0.0257
  590DPPI   C3B 9339   5.185  17.419   9.068  0.0001 -0.0498  0.1465
  590DPPI   C4B 9340   5.151  17.304   8.652 -0.3247 -0.0418  0.0898
  591DPPI    C1 9341   5.607   5.421  10.737 -0.1303 -0.0228  0.1590
  591DPPI    C2 9342   5.298   5.643  10.860 -0.2142 -0.0687  0.0330
  591DPPI    C3 9343   5.559   5.497  11.126 -0.4251 -0.2140  0.1627
  591DPPI   PO4 9344   5.683   5.567  10.566  0.1157  0.4343 -0.2493
  591DPPI   GL1 9345   5.750   5.408  10.152  0.0667 -0.0322 -0.0757
  591DPPI   GL2 9346   5.646   5.118  10.262  0.1208 -0.2670 -0.1129
  591DPPI   C1A 9347   5.639   5.384   9.708  0.0222 -0.1857  0.1571
  591DPPI   C2A 9348   5.566   5.355   9.226  0.3392 -0.0696  0.0552
  591DPPI   C3A 9349   5.654   5.203   8.836 -0.3123  0.0228  0.1146
  591DPPI   C4A 9350   5.657   5.185   8.383  0.0211  0.5132  0.1154
  591DPPI   C1B 9351   5.489   4.920   9.843 -0.1327  0.0156  0.1065
  591DPPI   C2B 9352   5.432   4.760   9.386  0.1062  0.3516 -0.1784
  591DPPI   C3B 9353   5.417   4.742   9.010  0.0392  0.0126  0.1809
  591DPPI   C4B 9354   5.431   4.838   8.607 -0.2121  0.1130 -0.0348
  592DPPI    C1 9355   8.838   1.382  11.100  0.1648  0.0465  0.0437
  592DPPI    C2 9356   8.472   1.338  11.256  0.0763 -0.0229 -0.1797
  592DPPI    C3 9357   8.795   1.261  11.479 -0.0497 -0.2094 -0.0591
  592DPPI   PO4 9358   8.797   1.535  10.921 -0.0386  0.3411 -0.0617
  592DPPI   GL1 9359   8.926   1.397  10.452  0.1693  0.1220 -0.0037
  592DPPI   GL2 9360   8.699   1.244  10.300 -0.0980 -0.0308  0.2833
  592DPPI   C1A 9361   9.161   1.478  10.048  0.4820 -0.0327  0.0502
  592DPPI   C2A 9362   9.310   1.538   9.708  0.0526  0.1817 -0.3278
  592DPPI   C3A 9363   9.326   1.507   9.218 -0.0863 -0.0391 -0.1483
  592DPPI   C4A 9364   9.287   1.635   8.733 -0.2219 -0.0622  0.2283
  592DPPI   C1B 9365   8.723   1.407   9.836 -0.2204  0.0518  0.2913
  592DPPI   C2B 9366   8.772   1.491   9.425 -0.2812  0.0625 -0.2741
  592DPPI   C3B 9367   8.681   1.353   9.048  0.1435 -0.1129  0.0391
  592DPPI   C4B 9368   8.820   1.474   8.671 -0.0010 -0.2022 -0.2401
  593DPPI    C1 9369  11.754  15.862  11.100  0.1758  0.0483 -0.0405
  593DPPI    C2 9370  11.673  15.570  11.361  0.3278  0.0990  0.0648
  593DPPI    C3 9371  11.647  15.953  11.475 -0.1347  0.1375 -0.1477
  593DPPI   PO4 9372  11.646  15.832  10.945  0.2175  0.1682 -0.0061
  593DPPI   GL1 9373  11.546  15.934  10.543  0.3528  0.2189  0.0730
  593DPPI   GL2 9374  11.237  15.808  10.621 -0.1485  0.2021 -0.0763
  593DPPI   C1A 9375  11.456  16.001  10.100  0.3122 -0.0740 -0.1949
  593DPPI   C2A 9376  11.563  15.970   9.682 -0.1778  0.0117  0.3737
  593DPPI   C3A 9377  11.451  15.966   9.221  0.0838  0.0318 -0.1787
  593DPPI   C4A 9378  11.330  16.038   8.736 -0.1179  0.3060 -0.0388
  593DPPI   C1B 9379  11.315  15.525  10.289 -0.3516 -0.3351  0.0609
  593DPPI   C2B 9380  11.346  15.571   9.851  0.2235  0.2392  0.0176
  593DPPI   C3B 9381  11.229  15.484   9.435  0.3351  0.0822 -0.2117
  593DPPI   C4B 9382  11.295  15.496   8.981 -0.1029 -0.1137 -0.0248
  594PYPI    C1 9383   1.929   8.907  10.005  0.0332  0.0879 -0.0515
  594PYPI    C2 9384   1.760   8.798  10.351 -0.1015  0.0474 -0.1294
  594PYPI    C3 9385   2.104   9.001  10.352 -0.0413 -0.0535  0.0256
  594PYPI   PO4 9386   1.800   8.987   9.866  0.0344 -0.2775  0.0404
  594PYPI   GL1 9387   1.553   8.925   9.449  0.2450  0.0327 -0.3887
  594PYPI   GL2 9388   1.492   8.623   9.428  0.1649 -0.0617  0.2316
  594PYPI   C1A 9389   1.281   9.020   9.033  0.1303 -0.2187  0.1348
  594PYPI   C2A 9390   1.150   8.978   8.613  0.1574 -0.1048  0.2271
  594PYPI   D3A 9391   1.121   8.891   8.147  0.4473 -0.0598 -0.0004
  594PYPI   C4A 9392   1.118   9.294   7.901 -0.4655  0.0062  0.3498
  594PYPI   C1B 9393   1.486   8.566   9.070  0.1665  0.0491  0.0264
  594PYPI   C2B 9394   1.459   8.549   8.662  0.0467 -0.4499 -0.0242
  594PYPI   C3B 9395   1.583   8.435   8.231  0.0034  0.0896  0.0556
  594PYPI   C4B 9396   1.853   8.249   7.958 -0.2013 -0.2755 -0.3955
  595PYPI    C1 9397  14.939   5.240  10.560  0.2455  0.1084 -0.0883
  595PYPI    C2 9398  14.989   5.589  10.370  0.4575  0.1552  0.0503
  595PYPI    C3 9399  14.867   5.584  10.751  0.1471  0.0653 -0.0475
  595PYPI   PO4 9400  15.158   5.024  10.418  0.2211 -0.0010 -0.1652
  595PYPI   GL1 9401  15.053   4.746  10.009 -0.1141  0.2321 -0.0406
  595PYPI   GL2 9402  15.294   4.496   9.926 -0.2013  0.0332  0.1503
  595PYPI   C1A 9403  15.003   4.677   9.596 -0.1315 -0.1632 -0.3060
  595PYPI   C2A 9404  15.059   4.613   9.193  0.4291  0.0260  0.0252
  595PYPI   D3A 9405  15.082   4.676   8.788 -0.0764 -0.2199  0.1236
  595PYPI   C4A 9406  15.151   4.535   8.402 -0.2092  0.2922 -0.0511
  595PYPI   C1B 9407  15.360   4.336   9.488  0.0100  0.5028 -0.1215
  595PYPI   C2B 9408  15.405   4.319   8.996  0.2190  0.0075 -0.0591
  595PYPI   C3B 9409  15.522   4.267   8.532  0.0490  0.0748  0.0871
  595PYPI   C4B 9410  15.351   4.094   8.136  0.0288 -0.1801  0.0136
  596PYPI    C1 9411  10.705  11.096  10.326 -0.1514 -0.0120  0.0742
  596PYPI    C2 9412  10.356  11.243  10.455 -0.2206  0.0946 -0.2253
  596PYPI    C3 9413  10.699  11.400  10.587 -0.2799 -0.0686  0.1383
  596PYPI   PO4 9414  10.720  11.033  10.074 -0.1757 -0.1009  0.2507
  596PYPI   GL1 9415  10.645  11.190   9.750  0.1709  0.4505 -0.0658
  596PYPI   GL2 9416  10.653  11.483   9.573 -0.2856  0.2272  0.1760
  596PYPI   C1A 9417  10.742  11.106   9.288 -0.1086  0.1077  0.3992
  596PYPI   C2A 9418  10.813  11.265   8.754 -0.0771 -0.2123 -0.0680
  596PYPI   D3A 9419  10.738  11.442   8.375  0.0523  0.1012 -0.1787
  596PYPI   C4A 9420  10.904  11.253   8.083  0.0943  0.0633  0.2884
  596PYPI   C1B 9421  10.945  11.658   9.305  0.4058 -0.0171 -0.3559
  596PYPI   C2B 9422  11.023  11.751   8.949  0.0308  0.1724 -0.3012
  596PYPI   C3B 9423  11.004  11.802   8.501  0.2698  0.1880 -0.1574
  596PYPI   C4B 9424  11.068  11.714   7.962 -0.2160  0.2472  0.0289
  597PYPI    C1 9425   1.665   8.180  10.393 -0.1532  0.0896 -0.0295
  597PYPI    C2 9426   1.980   8.209  10.639 -0.1296 -0.2800 -0.0105
  597PYPI    C3 9427   1.631   8.379  10.738  0.0565  0.1223 -0.0264
  597PYPI   PO4 9428   1.709   8.303  10.145 -0.0197  0.1621 -0.0262
  597PYPI   GL1 9429   1.914   8.288   9.777  0.1480 -0.2124  0.3476
  597PYPI   GL2 9430   2.135   8.550   9.738  0.1603  0.0103  0.1084
  597PYPI   C1A 9431   1.902   8.159   9.383 -0.1393  0.1412  0.1343
  597PYPI   C2A 9432   1.767   8.205   8.904  0.1411  0.0976 -0.0981
  597PYPI   D3A 9433   1.764   8.085   8.525  0.1605  0.3457 -0.1187
  597PYPI   C4A 9434   2.020   7.779   8.266 -0.1738  0.0569  0.1236
  597PYPI   C1B 9435   2.008   8.672   9.413 -0.0276  0.0068  0.1346
  597PYPI   C2B 9436   1.946   8.789   9.111  0.1035 -0.4656  0.0422
  597PYPI   C3B 9437   1.675   8.961   8.722 -0.0882 -0.1085 -0.1382
  597PYPI   C4B 9438   1.593   8.952   8.263  0.3747  0.0926 -0.0551
  598PYPI    C1 9439  13.089   7.301  10.286  0.0502 -0.2842 -0.0565
  598PYPI    C2 9440  12.818   7.102  10.503 -0.1878  0.2919  0.1980
  598PYPI    C3 9441  13.138   7.262  10.681  0.0462  0.0736 -0.0172
  598PYPI   PO4 9442  13.163   7.223  10.004 -0.2001 -0.1361 -0.0947
  598PYPI   GL1 9443  13.201   7.408   9.639 -0.0836 -0.0482 -0.0584
  598PYPI   GL2 9444  13.394   7.169   9.425 -0.0537  0.0901 -0.2438
  598PYPI   C1A 9445  12.953   7.686   9.385 -0.0696 -0.0409  0.1942
  598PYPI   C2A 9446  12.871   7.654   8.968 -0.0977  0.0717  0.1004
  598PYPI   D3A 9447  13.105   7.561   8.638  0.1174  0.2583  0.1120
  598PYPI   C4A 9448  13.104   7.456   8.162  0.2894 -0.1147  0.0656
  598PYPI   C1B 9449  13.338   7.096   8.971  0.1015 -0.2838  0.0451
  598PYPI   C2B 9450  13.319   7.145   8.514 -0.1931 -0.0689 -0.1637
  598PYPI   C3B 9451  13.408   7.002   8.059  0.3073  0.1741  0.0380
  598PYPI   C4B 9452  13.369   7.289   7.706  0.4295  0.1110 -0.2670
  599PYPI    C1 9453   0.947   6.363  10.607 -0.3472 -0.0924  0.0348
  599PYPI    C2 9454   0.925   6.758  10.546 -0.1367 -0.0899 -0.0340
  599PYPI    C3 9455   0.839   6.606  10.906  0.4250  0.0901  0.1874
  599PYPI   PO4 9456   0.842   6.262  10.454  0.0550 -0.0721  0.0050
  599PYPI   GL1 9457   0.760   6.126  10.061 -0.0831  0.2748 -0.1115
  599PYPI   GL2 9458   0.635   5.844   9.993 -0.1599 -0.0545  0.0944
  599PYPI   C1A 9459   1.047   6.228   9.767  0.2925  0.2883 -0.4371
  599PYPI   C2A 9460   1.101   6.153   9.424  0.1860 -0.2031 -0.0753
  599PYPI   D3A 9461   1.113   6.158   9.012  0.2555  0.1642  0.1365
  599PYPI   C4A 9462   1.035   6.078   8.483 -0.0505  0.4333 -0.0192
  599PYPI   C1B 9463   0.654   5.939   9.572  0.0521  0.3302  0.1392
  599PYPI   C2B 9464   0.592   5.944   9.190 -0.0490  0.1821 -0.0698
  599PYPI   C3B 9465   0.652   6.011   8.752 -0.1792  0.0163 -0.0769
  599PYPI   C4B 9466   0.567   6.063   8.354  0.0423 -0.0249  0.4069
  600PYPI    C1 9467  10.268  14.207  10.933 -0.0106  0.0997 -0.1048
  600PYPI    C2 9468   9.875  14.208  11.010 -0.0262 -0.0922 -0.1747
  600PYPI    C3 9469  10.129  14.392  11.259 -0.1453 -0.0941 -0.0505
  600PYPI   PO4 9470  10.308  14.329  10.646  0.0655  0.0358  0.2362
  600PYPI   GL1 9471  10.566  14.240  10.359 -0.1225 -0.1003 -0.1326
  600PYPI   GL2 9472  10.810  14.448  10.520  0.0731  0.1030  0.1524
  600PYPI   C1A 9473  10.528  14.320   9.905  0.1192  0.2174  0.3455
  600PYPI   C2A 9474  10.562  14.333   9.414 -0.0645  0.2379 -0.0789
  600PYPI   D3A 9475  10.499  14.416   9.016  0.3335 -0.2606 -0.0137
  600PYPI   C4A 9476  10.455  14.322   8.624  0.1520 -0.1054 -0.0287
  600PYPI   C1B 9477  10.997  14.462  10.094 -0.2181 -0.0499  0.1143
  600PYPI   C2B 9478  11.010  14.384   9.662 -0.1344 -0.0748 -0.0888
  600PYPI   C3B 9479  11.007  14.463   9.145 -0.2118 -0.0287 -0.0485
  600PYPI   C4B 9480  10.927  14.515   8.722  0.2429  0.0277  0.2890
  601PYPI    C1 9481   9.093  16.043  10.889  0.0407  0.0134 -0.1382
  601PYPI    C2 9482   9.320  16.356  10.787  0.1004 -0.0799 -0.2965
  601PYPI    C3 9483   9.016  16.404  11.043  0.1862  0.0815 -0.2229
  601PYPI   PO4 9484   9.085  15.952  10.556 -0.0423  0.0258 -0.3268
  601PYPI   GL1 9485   9.471  16.059  10.355 -0.0206 -0.0521 -0.0811
  601PYPI   GL2 9486   9.339  16.295  10.292 -0.0326  0.2301  0.0451
  601PYPI   C1A 9487   9.562  15.995   9.912  0.0846 -0.2423  0.2889
  601PYPI   C2A 9488   9.519  16.059   9.476  0.0409 -0.0824 -0.1347
  601PYPI   D3A 9489   9.442  16.117   9.013  0.0534 -0.4187  0.0327
  601PYPI   C4A 9490   9.451  16.063   8.574 -0.1951  0.0458  0.1010
  601PYPI   C1B 9491   9.272  16.459   9.836  0.0462  0.2768  0.2037
  601PYPI   C2B 9492   9.178  16.467   9.433 -0.1985 -0.0786  0.4087
  601PYPI   C3B 9493   9.110  16.433   9.062 -0.2211 -0.1468  0.3943
  601PYPI   C4B 9494   9.153  16.472   8.633 -0.3497  0.3295  0.2240
  602PYPI    C1 9495  16.359  13.958  11.363 -0.0220  0.0796 -0.0063
  602PYPI    C2 9496  16.021  13.954  11.577 -0.1394 -0.0602 -0.1919
  602PYPI    C3 9497  16.229  13.617  11.526  0.2218  0.0901  0.2182
  602PYPI   PO4 9498  16.349  14.011  11.074  0.1739 -0.1837 -0.0163
  602PYPI   GL1 9499  16.221  13.819  10.702  0.0612 -0.0801  0.1262
  602PYPI   GL2 9500  15.969  14.034  10.786  0.1985 -0.0617 -0.1336
  602PYPI   C1A 9501  16.074  13.748  10.263  0.0423  0.2552 -0.1569
  602PYPI   C2A 9502  16.035  13.786   9.837 -0.1017  0.1336  0.0837
  602PYPI   D3A 9503  16.088  13.680   9.439 -0.1313  0.0932 -0.2064
  602PYPI   C4A 9504  16.027  13.832   9.038  0.2124 -0.1061 -0.0482
  602PYPI   C1B 9505  15.666  14.087  10.380  0.0106  0.2750  0.1323
  602PYPI   C2B 9506  15.639  14.163   9.867  0.0464  0.2123  0.1814
  602PYPI   C3B 9507  15.728  14.114   9.392 -0.0249 -0.0641  0.1838
  602PYPI   C4B 9508  15.684  14.188   8.974 -0.3304  0.1767  0.2183
  603PYPI    C1 9509  10.952  13.024  10.542  0.2268  0.2344 -0.0013
  603PYPI    C2 9510  11.121  12.753  10.783 -0.1212  0.1839  0.1932
  603PYPI    C3 9511  11.348  13.025  10.597  0.2196 -0.1636  0.0877
  603PYPI   PO4 9512  10.728  12.818  10.440 -0.4122  0.0196  0.1683
  603PYPI   GL1 9513  10.529  13.096  10.140  0.0336 -0.1980 -0.0407
  603PYPI   GL2 9514  10.471  13.490  10.224  0.4016  0.1340 -0.0132
  603PYPI   C1A 9515  10.701  13.253   9.743  0.1572 -0.0267  0.0785
  603PYPI   C2A 9516  10.635  13.406   9.322 -0.0773  0.0561  0.0662
  603PYPI   D3A 9517  10.578  13.489   8.979 -0.1836  0.0793 -0.0114
  603PYPI   C4A 9518  10.184  13.414   8.777 -0.0545 -0.3227  0.3575
  603PYPI   C1B 9519  10.429  13.603   9.736 -0.2769  0.0818  0.2556
  603PYPI   C2B 9520  10.363  13.844   9.372  0.0463 -0.0691  0.4632
  603PYPI   C3B 9521  10.289  13.924   8.931 -0.0237  0.2294  0.1818
  603PYPI   C4B 9522  10.322  13.854   8.489 -0.0848  0.1558 -0.2522
  604PYPI    C1 9523   4.804   2.757  11.000  0.2509 -0.0789 -0.1102
  604PYPI    C2 9524   5.139   2.904  11.161  0.1689 -0.2972  0.2736
  604PYPI    C3 9525   4.904   2.661  11.375 -0.2875 -0.0707  0.0448
  604PYPI   PO4 9526   4.850   2.607  10.790 -0.1499 -0.0001  0.2095
  604PYPI   GL1 9527   4.730   2.495  10.437  0.0275  0.0805  0.0975
  604PYPI   GL2 9528   4.754   2.837  10.216  0.3307 -0.2883 -0.3348
  604PYPI   C1A 9529   4.605   2.355  10.049  0.0653  0.3734 -0.3670
  604PYPI   C2A 9530   4.686   2.340   9.623 -0.1288  0.2538 -0.1660
  604PYPI   D3A 9531   4.786   2.435   9.246  0.0813  0.1692  0.3280
  604PYPI   C4A 9532   4.774   2.280   8.946  0.0051  0.2101  0.0126
  604PYPI   C1B 9533   4.800   2.858   9.790 -0.0627 -0.2148 -0.0090
  604PYPI   C2B 9534   4.855   2.874   9.448 -0.0108 -0.4408 -0.0533
  604PYPI   C3B 9535   4.893   2.808   9.038  0.0720  0.1617  0.3510
  604PYPI   C4B 9536   4.945   2.674   8.530  0.0164  0.1292 -0.1012
  605PYPI    C1 9537   4.770  14.979  10.857  0.0058 -0.1353 -0.0008
  605PYPI    C2 9538   4.818  15.376  10.854 -0.0890 -0.1235 -0.0010
  605PYPI    C3 9539   4.912  15.166  11.181  0.0095 -0.1072 -0.0185
  605PYPI   PO4 9540   4.699  14.940  10.587  0.3227  0.5207  0.0932
  605PYPI   GL1 9541   4.408  14.950  10.237  0.1892 -0.2756  0.0423
  605PYPI   GL2 9542   4.457  15.375  10.212  0.1482  0.1844 -0.1383
  605PYPI   C1A 9543   4.328  14.819   9.878 -0.0271  0.4944  0.3270
  605PYPI   C2A 9544   4.326  14.834   9.353  0.0976  0.1358  0.1982
  605PYPI   D3A 9545   4.383  14.821   9.001  0.0529 -0.0709  0.0558
  605PYPI   C4A 9546   4.344  14.913   8.647 -0.2628 -0.4185  0.3770
  605PYPI   C1B 9547   4.443  15.367   9.753 -0.0861  0.1457  0.1783
  605PYPI   C2B 9548   4.526  15.268   9.278  0.0170 -0.2680 -0.1964
  605PYPI   C3B 9549   4.477  15.356   8.860 -0.2481 -0.2895  0.2848
  605PYPI   C4B 9550   4.523  15.353   8.428  0.1494 -0.1031  0.0540
  606PYPI    C1 9551  18.086  16.766  11.040 -0.0483  0.1125  0.2715
  606PYPI    C2 9552  18.389  16.710  11.295 -0.0158  0.0129  0.2119
  606PYPI    C3 9553  18.023  16.578  11.388  0.0194 -0.1240  0.1585
  606PYPI   PO4 9554  18.149  16.653  10.861  0.2322  0.0311 -0.3394
  606PYPI   GL1 9555  18.278  16.775  10.453 -0.2192 -0.0533  0.0387
  606PYPI   GL2 9556  18.076  17.076  10.516  0.0539 -0.0292 -0.3331
  606PYPI   C1A 9557  18.376  16.666   9.991  0.0646  0.1487 -0.1239
  606PYPI   C2A 9558  18.387  16.624   9.424  0.1609 -0.0139 -0.1148
  606PYPI   D3A 9559  18.440  16.694   8.922 -0.0645 -0.0799  0.2427
  606PYPI   C4A 9560  18.207  16.409   8.563 -0.0017 -0.0350  0.0269
  606PYPI   C1B 9561  17.934  16.984  10.095 -0.0326  0.2292 -0.2162
  606PYPI   C2B 9562  18.074  16.994   9.691  0.0542 -0.3424  0.1033
  606PYPI   C3B 9563  17.993  16.979   9.297  0.0858  0.2138 -0.2118
  606PYPI   C4B 9564  18.148  17.051   8.813 -0.0037 -0.1190 -0.0044
  607ERGO   ROH 9565   1.304   7.293   9.750 -0.1631 -0.0519 -0.0792
  607ERGO    R1 9566   1.467   7.252   9.522 -0.0583  0.0854 -0.0295
  607ERGO    R2 9567   1.434   7.037   9.353  0.2222  0.0175  0.0029
  607ERGO    R3 9568   1.418   7.230   9.162  0.0590 -0.0356 -0.0398
  607ERGO    R4 9569   1.432   6.979   9.012 -0.2643 -0.0990  0.0169
  607ERGO    R5 9570   1.561   7.153   8.987 -0.2092 -0.1650 -0.2123
  607ERGO    C1 9571   1.416   7.127   8.635 -0.7007 -0.2167 -0.0151
  607ERGO    C2 9572   1.402   6.954   8.450 -0.0703 -0.4368  0.4417
  608ERGO   ROH 9573  17.251   7.175   6.086 -0.0577 -0.3644  0.0104
  608ERGO    R1 9574  17.272   7.044   6.336  0.0430 -0.1166  0.1352
  608ERGO    R2 9575  17.383   7.165   6.558 -0.1257  0.2098  0.0506
  608ERGO    R3 9576  17.146   7.097   6.673 -0.0744  0.0550  0.0654
  608ERGO    R4 9577  17.336   7.116   6.897  0.0353 -0.3036  0.0068
  608ERGO    R5 9578  17.207   6.946   6.849 -0.0013 -0.2215 -0.1904
  608ERGO    C1 9579  17.086   7.023   7.202  0.1772 -0.7478 -0.0046
  608ERGO    C2 9580  17.032   7.173   7.617  0.2443  0.2354  0.2442
  609ERGO   ROH 9581   5.619   1.197  10.410  0.0256  0.3261  0.0151
  609ERGO    R1 9582   5.697   1.272  10.148 -0.0154  0.2158 -0.0295
  609ERGO    R2 9583   5.901   1.143  10.011  0.0386  0.2284  0.0349
  609ERGO    R3 9584   5.709   1.113   9.821  0.0443  0.0378  0.0583
  609ERGO    R4 9585   5.960   1.101   9.673  0.0417  0.0599  0.0557
  609ERGO    R5 9586   5.792   1.232   9.632 -0.0149 -0.0357 -0.0135
  609ERGO    C1 9587   5.815   1.049   9.298  0.0489 -0.2172  0.0899
  609ERGO    C2 9588   5.851   1.149   8.961  0.0347 -0.2075 -0.1090
  610ERGO   ROH 9589  13.417  17.581  10.338 -0.1638 -0.0404  0.0617
  610ERGO    R1 9590  13.607  17.637  10.136 -0.1592 -0.0237  0.0701
  610ERGO    R2 9591  13.731  17.439   9.989 -0.0255 -0.0222  0.1748
  610ERGO    R3 9592  13.637  17.582   9.778 -0.0700 -0.1624  0.0991
  610ERGO    R4 9593  13.788  17.362   9.657  0.1645 -0.0619  0.2154
  610ERGO    R5 9594  13.814  17.574   9.617 -0.0051 -0.0521  0.1677
  610ERGO    C1 9595  13.733  17.451   9.265  0.2332 -0.2166  0.1681
  610ERGO    C2 9596  13.827  17.412   8.824 -0.2820 -0.0284 -0.0720
  611ERGO   ROH 9597   1.954  11.357   9.852 -0.0796  0.0506  0.0744
  611ERGO    R1 9598   1.824  11.427   9.610 -0.0953 -0.1063  0.0354
  611ERGO    R2 9599   1.930  11.609   9.431 -0.3233  0.1337  0.1317
  611ERGO    R3 9600   1.898  11.405   9.254  0.1089  0.1157  0.0626
  611ERGO    R4 9601   1.889  11.648   9.090 -0.0926  0.1293  0.1022
  611ERGO    R5 9602   1.740  11.489   9.095  0.1236 -0.0804 -0.0545
  611ERGO    C1 9603   1.835  11.480   8.726  0.4475  0.1098  0.0203
  611ERGO    C2 9604   1.821  11.486   8.479  0.0883 -0.1020  0.0732
  612ERGO   ROH 9605   8.603  17.061  10.234 -0.1423  0.2553  0.1647
  612ERGO    R1 9606   8.453  17.153  10.012 -0.0805  0.1008  0.0572
  612ERGO    R2 9607   8.565  17.305   9.809 -0.0689  0.1303  0.0853
  612ERGO    R3 9608   8.463  17.110   9.651  0.1549  0.0214  0.0715
  612ERGO    R4 9609   8.534  17.325   9.466  0.0787  0.0396  0.0655
  612ERGO    R5 9610   8.340  17.227   9.483  0.1446 -0.1046 -0.0093
  612ERGO    C1 9611   8.420  17.153   9.117  0.3748 -0.1157  0.0412
  612ERGO    C2 9612   8.345  17.083   8.823 -0.4585  0.0937 -0.0069
  613ERGO   ROH 9613   0.797  11.811   6.460  0.1652  0.0495  0.0577
  613ERGO    R1 9614   0.688  11.734   6.710  0.0241  0.1396  0.0255
  613ERGO    R2 9615   0.823  11.770   6.948 -0.0051  0.0050  0.0660
  613ERGO    R3 9616   0.595  11.900   7.020  0.0936  0.2162  0.0048
  613ERGO    R4 9617   0.735  11.850   7.273 -0.0695  0.0002  0.0496
  613ERGO    R5 9618   0.529  11.795   7.225 -0.1042  0.2236 -0.0552
  613ERGO    C1 9619   0.470  12.018   7.529 -0.0143  0.1956 -0.0172
  613ERGO    C2 9620   0.474  11.950   7.908  0.4002 -0.1782  0.1654
  614ERGO   ROH 9621   7.708   4.771  10.122 -0.0433 -0.0575 -0.0216
  614ERGO    R1 9622   7.782   4.755   9.849  0.0633 -0.2061  0.0159
  614ERGO    R2 9623   7.867   4.519   9.732 -0.2168 -0.3460  0.0967
  614ERGO    R3 9624   7.669   4.574   9.555 -0.0558 -0.0914 -0.0113
  614ERGO    R4 9625   7.864   4.418   9.402 -0.1078 -0.2534  0.0663
  614ERGO    R5 9626   7.783   4.613   9.348  0.1208 -0.1475  0.0685
  614ERGO    C1 9627   7.675   4.411   9.042  0.1068  0.0394 -0.0528
  614ERGO    C2 9628   7.610   4.244   8.681 -0.1365 -0.0019 -0.4602
  615ERGO   ROH 9629  11.386  14.916  10.477 -0.1088  0.0419 -0.0919
  615ERGO    R1 9630  11.471  15.074  10.257  0.0548 -0.0371 -0.0882
  615ERGO    R2 9631  11.680  14.998  10.092  0.0156 -0.2245 -0.0644
  615ERGO    R3 9632  11.494  15.033   9.896  0.0626 -0.0732 -0.0819
  615ERGO    R4 9633  11.751  15.048   9.757  0.0900  0.2309  0.0132
  615ERGO    R5 9634  11.591  15.195   9.750  0.0234  0.1583  0.1479
  615ERGO    C1 9635  11.619  15.109   9.379  0.1773  0.6381  0.0421
  615ERGO    C2 9636  11.630  15.178   9.104  0.2193  0.0244  0.3469
  616ERGO   ROH 9637  17.217   8.236   9.691 -0.0669 -0.3571 -0.0207
  616ERGO    R1 9638  17.114   8.350   9.453  0.0030 -0.2957 -0.0210
  616ERGO    R2 9639  17.276   8.464   9.260  0.0526 -0.1792  0.0924
  616ERGO    R3 9640  17.147   8.291   9.096  0.1693 -0.1507 -0.0315
  616ERGO    R4 9641  17.197   8.527   8.930  0.0729 -0.0214  0.1161
  616ERGO    R5 9642  17.005   8.429   8.962  0.1166 -0.1431  0.0292
  616ERGO    C1 9643  17.030   8.400   8.583  0.1941  0.0974  0.0134
  616ERGO    C2 9644  17.152   8.374   8.376  0.1225  0.1280  0.0605
  617ERGO   ROH 9645   6.656   4.295  10.140  0.0376  0.1272  0.0484
  617ERGO    R1 9646   6.749   4.321   9.874 -0.0635  0.0880  0.0117
  617ERGO    R2 9647   6.787   4.104   9.707 -0.1677  0.0773  0.0258
  617ERGO    R3 9648   6.624   4.244   9.541 -0.2009  0.0844  0.0591
  617ERGO    R4 9649   6.776   4.065   9.364 -0.3392 -0.0590  0.0429
  617ERGO    R5 9650   6.758   4.282   9.345 -0.2646 -0.0420 -0.0249
  617ERGO    C1 9651   6.616   4.174   9.008 -0.4701 -0.1317  0.0840
  617ERGO    C2 9652   6.682   4.046   8.619  0.1331 -0.0196  0.1820
  618ERGO   ROH 9653   7.249   1.564  10.539 -0.1279 -0.0494  0.2420
  618ERGO    R1 9654   7.401   1.535  10.302 -0.1526  0.1160  0.2058
  618ERGO    R2 9655   7.340   1.349  10.108  0.0560 -0.0138  0.2671
  618ERGO    R3 9656   7.341   1.565   9.944 -0.2978 -0.0443  0.2143
  618ERGO    R4 9657   7.369   1.336   9.764  0.2007 -0.0519  0.2795
  618ERGO    R5 9658   7.500   1.510   9.774 -0.1253  0.2069  0.2837
  618ERGO    C1 9659   7.387   1.532   9.410 -0.0472 -0.1026  0.2371
  618ERGO    C2 9660   7.382   1.544   9.026  0.0197 -0.2166 -0.1448
  619ERGO   ROH 9661  15.765  14.863   6.862 -0.0150  0.1072  0.1054
  619ERGO    R1 9662  15.732  14.834   7.141 -0.0513  0.0775  0.0995
  619ERGO    R2 9663  15.611  14.613   7.255 -0.1727  0.1123  0.0571
  619ERGO    R3 9664  15.842  14.602   7.399 -0.1851 -0.0220  0.0650
  619ERGO    R4 9665  15.636  14.500   7.581 -0.2287  0.0590  0.0420
  619ERGO    R5 9666  15.776  14.661   7.621 -0.1545 -0.0220  0.0678
  619ERGO    C1 9667  15.867  14.423   7.905 -0.2728 -0.0980  0.0406
  619ERGO    C2 9668  16.007  14.031   8.055  0.1625  0.3561 -0.1817
  620ERGO   ROH 9669   1.546  11.190   9.986 -0.4037  0.1252  0.1055
  620ERGO    R1 9670   1.392  11.217   9.750 -0.2226  0.3692  0.0107
  620ERGO    R2 9671   1.390  11.449   9.599  0.3400  0.3348 -0.0704
  620ERGO    R3 9672   1.457  11.279   9.397  0.1068  0.1244  0.0229
  620ERGO    R4 9673   1.323  11.504   9.264  0.1859  0.1164 -0.0776
  620ERGO    R5 9674   1.273  11.292   9.245  0.0256  0.1313  0.1184
  620ERGO    C1 9675   1.348  11.376   8.880 -0.1227 -0.2082  0.0058
  620ERGO    C2 9676   1.275  11.377   8.534  0.1615 -0.2010  0.0786
  621ERGO   ROH 9677  16.900   1.855  10.446 -0.0015 -0.0501 -0.1938
  621ERGO    R1 9678  16.896   1.937  10.175  0.0130 -0.0428 -0.1919
  621ERGO    R2 9679  17.115   1.910  10.008  0.0478  0.0330 -0.1604
  621ERGO    R3 9680  16.937   1.778   9.850  0.1137 -0.0199 -0.1904
  621ERGO    R4 9681  17.072   1.967   9.670  0.0090  0.0983 -0.1445
  621ERGO    R5 9682  16.857   1.946   9.699  0.0208 -0.0234 -0.1446
  621ERGO    C1 9683  16.881   1.876   9.325  0.0482  0.0866 -0.1635
  621ERGO    C2 9684  16.983   1.839   8.913  0.1654 -0.1567  0.2177
  622ERGO   ROH 9685   9.319  12.823   9.747  0.3455  0.0505 -0.0617
  622ERGO    R1 9686   9.260  12.635   9.544  0.1664  0.0498 -0.0101
  622ERGO    R2 9687   9.029  12.648   9.393  0.1274  0.1652  0.0615
  622ERGO    R3 9688   9.204  12.645   9.184  0.0603  0.0189  0.0051
  622ERGO    R4 9689   8.941  12.599   9.062  0.0010  0.0678  0.1081
  622ERGO    R5 9690   9.118  12.475   9.038 -0.0513 -0.0088  0.0987
  622ERGO    C1 9691   9.053  12.569   8.674 -0.1356 -0.1263  0.0823
  622ERGO    C2 9692   8.898  12.792   8.431 -0.4239  0.0076 -0.0681
  623ERGO   ROH 9693  16.401   0.126  10.482 -0.1663 -0.1004  0.1618
  623ERGO    R1 9694  16.483   0.035  10.227  0.0302  0.0758  0.1585
  623ERGO    R2 9695  16.328  -0.135  10.073  0.3080 -0.1160  0.0767
  623ERGO    R3 9696  16.359   0.060   9.886  0.0754 -0.0196  0.1363
  623ERGO    R4 9697  16.314  -0.185   9.731  0.1924  0.0135  0.0623
  623ERGO    R5 9698  16.480  -0.046   9.709  0.0745  0.1462  0.0391
  623ERGO    C1 9699  16.334  -0.031   9.357 -0.0934  0.1795  0.1098
  623ERGO    C2 9700  16.435  -0.006   9.079 -0.2323  0.1277  0.1075
  624ERGO   ROH 9701  15.034  17.748  10.521 -0.1561 -0.0697  0.0226
  624ERGO    R1 9702  14.895  17.650  10.295 -0.1145 -0.0913  0.0062
  624ERGO    R2 9703  14.729  17.809  10.142 -0.0944 -0.1079 -0.0340
  624ERGO    R3 9704  14.887  17.722   9.938 -0.0564 -0.1173 -0.0004
  624ERGO    R4 9705  14.650  17.834   9.806  0.1070  0.1584 -0.0650
  624ERGO    R5 9706  14.733  17.634   9.777 -0.0436  0.1058 -0.1376
  624ERGO    C1 9707  14.752  17.767   9.420  0.2598  0.3044 -0.0515
  624ERGO    C2 9708  14.780  17.762   9.111 -0.2036 -0.0739  0.0171
  625ERGO   ROH 9709   8.415  11.554   9.723  0.1565  0.0341 -0.0314
  625ERGO    R1 9710   8.230  11.602   9.515  0.0506 -0.1786  0.0122
  625ERGO    R2 9711   8.156  11.857   9.437 -0.1774 -0.2639 -0.0423
  625ERGO    R3 9712   8.232  11.769   9.192 -0.1896 -0.2748 -0.0432
  625ERGO    R4 9713   8.161  12.051   9.151 -0.0490 -0.2246 -0.0145
  625ERGO    R5 9714   8.083  11.880   9.040 -0.1222 -0.1786 -0.0467
  625ERGO    C1 9715   8.236  12.081   8.754  0.0143 -0.2120  0.0007
  625ERGO    C2 9716   8.180  12.184   8.380 -0.4023 -0.0440 -0.0667
  626ERGO   ROH 9717  10.624   4.795  10.041 -0.0769 -0.3158  0.0581
  626ERGO    R1 9718  10.677   4.664   9.795 -0.2090 -0.1890 -0.0408
  626ERGO    R2 9719  10.487   4.639   9.596 -0.2571  0.0968 -0.0417
  626ERGO    R3 9720  10.679   4.755   9.443 -0.1834  0.0567  0.0222
  626ERGO    R4 9721  10.518   4.599   9.254  0.0253 -0.1328  0.0085
  626ERGO    R5 9722  10.734   4.588   9.280  0.0059 -0.0351  0.1816
  626ERGO    C1 9723  10.718   4.684   8.912  0.2589 -0.3042  0.0976
  626ERGO    C2 9724  10.786   4.703   8.654  0.0765  0.2858 -0.1052
  627ERGO   ROH 9725   1.068   5.532  10.045  0.3139 -0.3126  0.0324
  627ERGO    R1 9726   1.044   5.657   9.792  0.2466 -0.2445  0.0714
  627ERGO    R2 9727   1.223   5.613   9.586  0.1791 -0.2111 -0.0009
  627ERGO    R3 9728   0.998   5.550   9.447  0.1261 -0.1537  0.0602
  627ERGO    R4 9729   1.188   5.636   9.243  0.0510 -0.1172  0.0183
  627ERGO    R5 9730   0.987   5.714   9.273  0.0731 -0.1107  0.1092
  627ERGO    C1 9731   0.956   5.591   8.913 -0.0734 -0.0088  0.0869
  627ERGO    C2 9732   0.894   5.588   8.585 -0.0564 -0.3419 -0.0766
  628ERGO   ROH 9733   7.875  11.748  10.060 -0.2203  0.0974 -0.1321
  628ERGO    R1 9734   7.909  11.623   9.808  0.1329  0.1572 -0.1188
  628ERGO    R2 9735   7.699  11.508   9.670  0.4277 -0.3749 -0.1456
  628ERGO    R3 9736   7.784  11.671   9.470  0.0629 -0.1699 -0.1442
  628ERGO    R4 9737   7.631  11.461   9.334  0.3459 -0.3994 -0.1266
  628ERGO    R5 9738   7.835  11.522   9.289  0.2312 -0.0409 -0.2085
  628ERGO    C1 9739   7.672  11.587   8.951 -0.0442 -0.2210 -0.1143
  628ERGO    C2 9740   7.515  11.390   8.611 -0.2746 -0.3760 -0.1085
  629ERGO   ROH 9741   4.576  18.119  10.581  0.1104  0.0023  0.0217
  629ERGO    R1 9742   4.508  17.967  10.352  0.0596 -0.0216  0.0527
  629ERGO    R2 9743   4.325  18.054  10.164  0.0455 -0.0260  0.0668
  629ERGO    R3 9744   4.530  18.010   9.991  0.0148 -0.0770  0.0430
  629ERGO    R4 9745   4.312  18.113   9.824  0.0928  0.1953  0.1017
  629ERGO    R5 9746   4.423  17.928   9.792 -0.0478  0.1265 -0.0103
  629ERGO    C1 9747   4.497  18.106   9.463  0.0916  0.2762  0.0998
  629ERGO    C2 9748   4.495  18.078   9.226 -0.0144  0.0391 -0.1347
  630ERGO   ROH 9749   1.977   5.428   9.959 -0.0524 -0.0331 -0.0699
  630ERGO    R1 9750   1.870   5.305   9.728 -0.0281 -0.0727 -0.0604
  630ERGO    R2 9751   1.709   5.440   9.548 -0.0390 -0.1126 -0.0826
  630ERGO    R3 9752   1.893   5.354   9.368 -0.0200 -0.1093 -0.0644
  630ERGO    R4 9753   1.685   5.481   9.206  0.1300  0.1318 -0.0682
  630ERGO    R5 9754   1.763   5.279   9.181  0.0103  0.0982 -0.1699
  630ERGO    C1 9755   1.844   5.423   8.837  0.2464  0.2772 -0.0428
  630ERGO    C2 9756   1.811   5.383   8.560  0.2665 -0.0256 -0.0955
  631ERGO   ROH 9757  17.363  12.855  10.552  0.0509 -0.1854 -0.1098
  631ERGO    R1 9758  17.234  12.946  10.317 -0.0544 -0.4303 -0.1491
  631ERGO    R2 9759  17.334  13.152  10.162 -0.4392 -0.1722 -0.0643
  631ERGO    R3 9760  17.313  12.968   9.963  0.0568 -0.1903 -0.1130
  631ERGO    R4 9761  17.359  13.221   9.824 -0.5296 -0.0230 -0.0415
  631ERGO    R5 9762  17.196  13.081   9.788 -0.1916 -0.4260 -0.1108
  631ERGO    C1 9763  17.353  13.089   9.441 -0.1164  0.0469 -0.0739
  631ERGO    C2 9764  17.380  13.301   9.139 -0.0241 -0.2898  0.1972
  632ERGO   ROH 9765   6.224  11.134   9.633 -0.2461  0.0001  0.0289
  632ERGO    R1 9766   6.162  11.045   9.372 -0.2698  0.1671 -0.0201
  632ERGO    R2 9767   5.924  11.108   9.246 -0.1579  0.4740 -0.0572
  632ERGO    R3 9768   6.089  11.201   9.051 -0.0108  0.3640  0.0082
  632ERGO    R4 9769   5.889  11.039   8.909 -0.0811  0.4728 -0.0674
  632ERGO    R5 9770   6.106  11.019   8.896 -0.0717  0.3294  0.0239
  632ERGO    C1 9771   6.024  11.086   8.529  0.1017  0.3690 -0.0120
  632ERGO    C2 9772   5.879  11.056   8.233  0.2261  0.2549 -0.0385
  633ERGO   ROH 9773   9.720   8.371   9.616  0.2736  0.0055 -0.0817
  633ERGO    R1 9774   9.792   8.221   9.386  0.0948 -0.0413 -0.1089
  633ERGO    R2 9775   9.611   8.062   9.249 -0.0621  0.0856 -0.0540
  633ERGO    R3 9776   9.692   8.211   9.036 -0.0281  0.0341 -0.0765
  633ERGO    R4 9777   9.592   7.963   8.919  0.1495 -0.0646 -0.0227
  633ERGO    R5 9778   9.787   8.052   8.885  0.1236  0.0148  0.0372
  633ERGO    C1 9779   9.657   8.044   8.527  0.3047 -0.2003 -0.0256
  633ERGO    C2 9780   9.705   7.908   8.155  0.0916  0.0293  0.0007
  634ERGO   ROH 9781   5.735   0.897   6.683  0.3366 -0.1695 -0.0275
  634ERGO    R1 9782   5.770   0.802   6.948  0.4829  0.0684  0.0417
  634ERGO    R2 9783   5.892   0.952   7.145  0.0106  0.5143  0.0121
  634ERGO    R3 9784   5.662   0.901   7.281  0.0760 -0.0205 -0.0581
  634ERGO    R4 9785   5.845   1.008   7.483 -0.2757  0.5924 -0.0380
  634ERGO    R5 9786   5.736   0.820   7.494  0.2113  0.2929  0.0207
  634ERGO    C1 9787   5.602   0.993   7.807 -0.3809  0.1358 -0.1330
  634ERGO    C2 9788   5.476   1.223   7.851 -0.1522 -0.0973 -0.2579
  635ERGO   ROH 9789  13.771   7.394   9.145 -0.0504  0.2579  0.0728
  635ERGO    R1 9790  13.897   7.272   8.923  0.1009  0.3155  0.1261
  635ERGO    R2 9791  13.759   7.119   8.738  0.3050 -0.0373  0.2558
  635ERGO    R3 9792  13.871   7.292   8.561 -0.0161  0.0345  0.1171
  635ERGO    R4 9793  13.781   7.066   8.398  0.1193 -0.1192  0.2553
  635ERGO    R5 9794  13.981   7.151   8.402  0.0289  0.1088  0.0834
  635ERGO    C1 9795  13.898   7.197   8.032 -0.2901 -0.0994  0.1248
  635ERGO    C2 9796  13.956   7.368   7.820  0.0131 -0.1629  0.1818
  636ERGO   ROH 9797   0.420   3.800   9.908 -0.0612  0.0996 -0.1168
  636ERGO    R1 9798   0.399   3.614   9.696 -0.0652  0.0179 -0.0453
  636ERGO    R2 9799   0.195   3.623   9.510 -0.0079  0.0131 -0.1088
  636ERGO    R3 9800   0.401   3.627   9.333  0.0459 -0.1345 -0.0510
  636ERGO    R4 9801   0.167   3.556   9.172  0.0681 -0.1253 -0.0884
  636ERGO    R5 9802   0.354   3.446   9.183  0.0284 -0.1849  0.0144
  636ERGO    C1 9803   0.344   3.521   8.809  0.1629 -0.3445 -0.0221
  636ERGO    C2 9804   0.374   3.425   8.507 -0.0757  0.0374 -0.0556
  637ERGO   ROH 9805   3.391  11.040   9.849 -0.0144  0.0375  0.0911
  637ERGO    R1 9806   3.236  11.174   9.654  0.0520  0.1196  0.0910
  637ERGO    R2 9807   3.343  11.361   9.481  0.1832 -0.0388 -0.0176
  637ERGO    R3 9808   3.233  11.200   9.291 -0.0294 -0.0130  0.0842
  637ERGO    R4 9809   3.267  11.458   9.158  0.0797 -0.0922 -0.0079
  637ERGO    R5 9810   3.083  11.343   9.171  0.0119  0.0472  0.1188
  637ERGO    C1 9811   3.119  11.363   8.792 -0.1801 -0.0989  0.0933
  637ERGO    C2 9812   3.089  11.378   8.523 -0.0244  0.3380 -0.0605
  638ERGO   ROH 9813  16.573   9.177   9.573 -0.1498  0.2266 -0.1005
  638ERGO    R1 9814  16.438   9.201   9.326 -0.0831  0.1908 -0.1413
  638ERGO    R2 9815  16.521   9.373   9.126  0.0668  0.0439 -0.2103
  638ERGO    R3 9816  16.517   9.147   8.975 -0.0403 -0.0293 -0.0987
  638ERGO    R4 9817  16.499   9.367   8.782  0.0228 -0.1203 -0.2047
  638ERGO    R5 9818  16.363   9.197   8.798 -0.0407 -0.0579 -0.1044
  638ERGO    C1 9819  16.481   9.151   8.439 -0.1030 -0.2845 -0.0968
  638ERGO    C2 9820  16.425   9.238   8.085 -0.0555 -0.0101 -0.1133
  639ERGO   ROH 9821  17.283  12.098   6.839 -0.0115 -0.1170 -0.0603
  639ERGO    R1 9822  17.389  12.163   7.093  0.0501 -0.1138 -0.0878
  639ERGO    R2 9823  17.258  12.105   7.328  0.0639 -0.0237 -0.0629
  639ERGO    R3 9824  17.493  11.982   7.391  0.0278 -0.0999 -0.0700
  639ERGO    R4 9825  17.382  12.070   7.649  0.0628 -0.0476 -0.0641
  639ERGO    R5 9826  17.581  12.114   7.571  0.0782 -0.1162 -0.0780
  639ERGO    C1 9827  17.675  11.934   7.895  0.0280 -0.1331 -0.0716
  639ERGO    C2 9828  17.829  11.924   8.271  0.1051  0.1004  0.3648
  640ERGO   ROH 9829  15.610   8.832   9.590  0.0627 -0.0636 -0.0699
  640ERGO    R1 9830  15.477   8.825   9.340 -0.0400  0.0767 -0.0199
  640ERGO    R2 9831  15.393   9.054   9.209  0.2041  0.1711 -0.0148
  640ERGO    R3 9832  15.538   8.950   9.004 -0.0014 -0.0414 -0.0570
  640ERGO    R4 9833  15.335   9.116   8.874  0.2141  0.2702  0.0011
  640ERGO    R5 9834  15.377   8.907   8.833 -0.1113  0.2061 -0.0187
  640ERGO    C1 9835  15.438   9.055   8.487  0.0270  0.1284 -0.0291
  640ERGO    C2 9836  15.490   8.978   8.173 -0.0448  0.0543 -0.2945
  641ERGO   ROH 9837  14.809   5.279  10.078  0.4037  0.2747  0.1415
  641ERGO    R1 9838  14.967   5.354   9.856  0.2444  0.0546 -0.0515
  641ERGO    R2 9839  15.102   5.170   9.700 -0.0338 -0.1166 -0.0926
  641ERGO    R3 9840  14.967   5.292   9.497 -0.1443 -0.1244 -0.0257
  641ERGO    R4 9841  15.152   5.107   9.364 -0.0271  0.0611 -0.1265
  641ERGO    R5 9842  15.132   5.321   9.326 -0.1829  0.0654 -0.0337
  641ERGO    C1 9843  15.054   5.185   8.978 -0.1270  0.1572 -0.0834
  641ERGO    C2 9844  15.140   5.158   8.670 -0.0539 -0.0980 -0.1799
  642ERGO   ROH 9845   1.167  11.025  10.161 -0.1054  0.0842  0.0319
  642ERGO    R1 9846   0.959  11.073   9.976 -0.0874  0.0567  0.0043
  642ERGO    R2 9847   0.937  11.310   9.835 -0.1484  0.0872  0.0636
  642ERGO    R3 9848   0.934  11.144   9.620 -0.0439  0.1433  0.0185
  642ERGO    R4 9849   0.877  11.410   9.509 -0.1156  0.1516  0.0770
  642ERGO    R5 9850   0.758  11.229   9.481 -0.0450  0.1167  0.0042
  642ERGO    C1 9851   0.839  11.312   9.118  0.0015  0.2418  0.0427
  642ERGO    C2 9852   0.762  11.228   8.792  0.0401 -0.1520 -0.1986
  643ERGO   ROH 9853   3.737   2.218  10.365  0.2225  0.0213 -0.0709
  643ERGO    R1 9854   3.672   2.049  10.147  0.2029  0.0259 -0.0691
  643ERGO    R2 9855   3.515   2.132   9.936  0.0552 -0.0167  0.0201
  643ERGO    R3 9856   3.727   2.049   9.788  0.0284  0.1190 -0.0959
  643ERGO    R4 9857   3.529   2.141   9.591 -0.1330 -0.0050  0.0115
  643ERGO    R5 9858   3.627   1.946   9.595 -0.0082  0.0585 -0.0427
  643ERGO    C1 9859   3.736   2.068   9.250 -0.2678  0.1291 -0.1021
  643ERGO    C2 9860   3.729   2.071   8.822  0.2987  0.2644 -0.1051
  644ERGO   ROH 9861   8.692   5.450   9.871  0.1615 -0.0994  0.0374
  644ERGO    R1 9862   8.860   5.439   9.643  0.1095 -0.1123 -0.0025
  644ERGO    R2 9863   8.912   5.204   9.508  0.0229 -0.1145 -0.0491
  644ERGO    R3 9864   8.824   5.345   9.293  0.0038 -0.0608 -0.0038
  644ERGO    R4 9865   9.009   5.147   9.181  0.1053  0.0776 -0.0580
  644ERGO    R5 9866   9.016   5.362   9.151  0.0162  0.0878  0.0381
  644ERGO    C1 9867   8.983   5.246   8.789  0.1353  0.2398 -0.0207
  644ERGO    C2 9868   8.947   5.039   8.473  0.0789  0.2372  0.3304
  645ERGO   ROH 9869  13.343  11.095   9.685 -0.0998 -0.0746  0.0649
  645ERGO    R1 9870  13.265  11.202   9.435 -0.0047 -0.0568  0.0427
  645ERGO    R2 9871  13.435  11.353   9.279  0.0757 -0.0991  0.0889
  645ERGO    R3 9872  13.372  11.170   9.089  0.0833 -0.0848  0.0723
  645ERGO    R4 9873  13.421  11.418   8.940 -0.1551 -0.0131  0.1129
  645ERGO    R5 9874  13.243  11.293   8.929 -0.0836 -0.1204  0.1782
  645ERGO    C1 9875  13.353  11.283   8.564 -0.2824  0.0502  0.1111
  645ERGO    C2 9876  13.357  11.407   8.198 -0.0598  0.1909 -0.1198
  646ERGO   ROH 9877  15.948   2.146   6.732  0.0513  0.1364 -0.0912
  646ERGO    R1 9878  15.822   2.107   6.983  0.0964 -0.0122 -0.0915
  646ERGO    R2 9879  15.962   2.039   7.211  0.1775  0.1607 -0.0922
  646ERGO    R3 9880  15.837   2.258   7.313 -0.0890  0.0132 -0.0922
  646ERGO    R4 9881  15.943   2.116   7.547  0.3407  0.2776 -0.1083
  646ERGO    R5 9882  15.737   2.180   7.516  0.2035 -0.0638  0.0314
  646ERGO    C1 9883  15.815   2.367   7.839  0.1855  0.2072 -0.1178
  646ERGO    C2 9884  16.096   2.489   8.004  0.0832 -0.1858  0.3024
  647ERGO   ROH 9885   3.670   9.332   9.551  0.1200 -0.0983 -0.1189
  647ERGO    R1 9886   3.774   9.479   9.333 -0.0540  0.1206 -0.0571
  647ERGO    R2 9887   3.855   9.359   9.097  0.1580  0.3077 -0.0799
  647ERGO    R3 9888   3.682   9.536   8.985 -0.0802  0.0977 -0.0547
  647ERGO    R4 9889   3.834   9.427   8.759 -0.0672  0.1823 -0.0928
  647ERGO    R5 9890   3.808   9.638   8.808 -0.2625  0.1751 -0.1448
  647ERGO    C1 9891   3.659   9.632   8.457 -0.4219 -0.0877 -0.0767
  647ERGO    C2 9892   3.639   9.518   8.112  0.1140  0.1551  0.0519
  648ERGO   ROH 9893  12.944   3.544  10.238 -0.1130 -0.1636  0.0642
  648ERGO    R1 9894  13.099   3.547  10.001 -0.0002 -0.2375  0.1364
  648ERGO    R2 9895  13.129   3.324   9.840 -0.2662 -0.1799  0.0024
  648ERGO    R3 9896  13.041   3.492   9.646  0.0733  0.0895  0.0700
  648ERGO    R4 9897  13.194   3.287   9.503 -0.3271 -0.1707 -0.0105
  648ERGO    R5 9898  13.222   3.503   9.490  0.1092 -0.2094  0.0829
  648ERGO    C1 9899  13.149   3.423   9.124 -0.0439  0.0876  0.0455
  648ERGO    C2 9900  13.247   3.301   8.805  0.0652  0.3059  0.0510
  649ERGO   ROH 9901   0.042   7.464   6.194 -0.3019 -0.1926  0.0056
  649ERGO    R1 9902   0.141   7.355   6.436 -0.2702 -0.1809 -0.0028
  649ERGO    R2 9903   0.297   7.500   6.612 -0.1641 -0.2043 -0.0807
  649ERGO    R3 9904   0.106   7.425   6.791 -0.1366 -0.0979 -0.0048
  649ERGO    R4 9905   0.293   7.590   6.946 -0.1471  0.0560 -0.1484
  649ERGO    R5 9906   0.228   7.388   6.995 -0.1097  0.0797  0.0149
  649ERGO    C1 9907   0.113   7.573   7.308 -0.1114  0.3075 -0.1165
  649ERGO    C2 9908   0.140   7.852   7.471  0.0216  0.3237  0.1506
  650ERGO   ROH 9909  16.704  15.922  10.190  0.0681 -0.1126  0.0160
  650ERGO    R1 9910  16.793  15.836   9.935  0.0858 -0.1193  0.0225
  650ERGO    R2 9911  16.623  15.721   9.750  0.1115 -0.2059  0.0395
  650ERGO    R3 9912  16.719  15.917   9.588  0.0380 -0.1898  0.0187
  650ERGO    R4 9913  16.663  15.692   9.408  0.2118 -0.2457  0.0556
  650ERGO    R5 9914  16.851  15.801   9.426  0.1390 -0.1401  0.0746
  650ERGO    C1 9915  16.776  15.860   9.057  0.2010 -0.2539  0.0454
  650ERGO    C2 9916  16.652  15.933   8.716 -0.2870  0.1239  0.0448
  651ERGO   ROH 9917   4.704  10.276   9.867  0.1519 -0.2678 -0.0853
  651ERGO    R1 9918   4.557  10.428   9.679  0.1291 -0.2023 -0.0144
  651ERGO    R2 9919   4.652  10.663   9.570  0.0813 -0.1242  0.1165
  651ERGO    R3 9920   4.601  10.537   9.335  0.1240 -0.0093  0.0441
  651ERGO    R4 9921   4.571  10.822   9.273 -0.1981  0.0140  0.2622
  651ERGO    R5 9922   4.425  10.665   9.235 -0.0521 -0.1152  0.2067
  651ERGO    C1 9923   4.476  10.795   8.880 -0.3207  0.2023  0.2790
  651ERGO    C2 9924   4.358  10.806   8.511 -0.1948 -0.0568 -0.1700
  652ERGO   ROH 9925  15.106  14.692  10.842  0.4794 -0.1831 -0.2047
  652ERGO    R1 9926  15.000  14.680  10.580  0.1437 -0.0741 -0.0803
  652ERGO    R2 9927  14.898  14.902  10.451  0.1143  0.0179  0.0804
  652ERGO    R3 9928  15.075  14.831  10.257 -0.1597 -0.0635 -0.1455
  652ERGO    R4 9929  14.859  14.968  10.114 -0.1340  0.2718  0.1558
  652ERGO    R5 9930  14.938  14.770  10.070 -0.4074  0.2146 -0.0533
  652ERGO    C1 9931  15.003  14.941   9.736 -0.5361  0.3433 -0.0122
  652ERGO    C2 9932  15.038  14.927   9.372  0.0177 -0.4545  0.0274
  653ERGO   ROH 9933   7.097  15.894  10.235 -0.0325 -0.2335 -0.1547
  653ERGO    R1 9934   7.197  15.834   9.977  0.0384 -0.1841 -0.1393
  653ERGO    R2 9935   7.044  15.709   9.783  0.0640 -0.0711 -0.2344
  653ERGO    R3 9936   7.115  15.924   9.634  0.1893 -0.0463 -0.1401
  653ERGO    R4 9937   6.968  15.750   9.449 -0.0638  0.1960 -0.1748
  653ERGO    R5 9938   7.168  15.832   9.419 -0.0005  0.0298 -0.2220
  653ERGO    C1 9939   6.992  15.977   9.114 -0.0206  0.3749 -0.0516
  653ERGO    C2 9940   7.026  16.027   8.778 -0.2357 -0.2319 -0.1118
  654ERGO   ROH 9941   8.778   7.437   9.606 -0.0936  0.0020 -0.0907
  654ERGO    R1 9942   8.911   7.442   9.356 -0.0192 -0.1233 -0.0545
  654ERGO    R2 9943   8.867   7.253   9.160 -0.1042 -0.1121 -0.0438
  654ERGO    R3 9944   8.815   7.471   9.006  0.1003 -0.0907 -0.0856
  654ERGO    R4 9945   8.820   7.246   8.818 -0.1415 -0.1441 -0.0382
  654ERGO    R5 9946   8.936   7.430   8.803  0.0447 -0.2594 -0.0886
  654ERGO    C1 9947   8.744   7.446   8.474  0.0287 -0.1428 -0.0742
  654ERGO    C2 9948   8.631   7.519   8.051 -0.1065  0.0084  0.0184
  655ERGO   ROH 9949  14.746   3.740  10.043 -0.2191 -0.0639 -0.0195
  655ERGO    R1 9950  14.664   3.660   9.784 -0.2445  0.0296 -0.0417
  655ERGO    R2 9951  14.591   3.841   9.588 -0.0313  0.1151 -0.0485
  655ERGO    R3 9952  14.780   3.711   9.442 -0.1238 -0.0595 -0.0143
  655ERGO    R4 9953  14.576   3.787   9.247  0.0409  0.2435 -0.0715
  655ERGO    R5 9954  14.656   3.587   9.279 -0.2048  0.1380 -0.1038
  655ERGO    C1 9955  14.746   3.635   8.912 -0.0038  0.1543 -0.0527
  655ERGO    C2 9956  14.715   3.601   8.575  0.3144 -0.1332 -0.1710
  656ERGO   ROH 9957  10.115   6.200   6.750  0.3244 -0.1335  0.0282
  656ERGO    R1 9958   9.971   6.059   6.949  0.2435 -0.0199  0.0521
  656ERGO    R2 9959  10.027   6.084   7.219  0.1425  0.1249  0.0642
  656ERGO    R3 9960   9.763   6.145   7.235  0.1395  0.1463 -0.0731
  656ERGO    R4 9961   9.864   6.185   7.507 -0.0381 -0.0237  0.0148
  656ERGO    R5 9962   9.695   6.061   7.448 -0.0131  0.0317 -0.1677
  656ERGO    C1 9963   9.521   6.300   7.689 -0.1459 -0.0901 -0.1429
  656ERGO    C2 9964   9.434   6.278   8.014 -0.2954 -0.0181 -0.2076
  657ERGO   ROH 9965   4.301   4.987  10.188  0.1526  0.0914  0.0973
  657ERGO    R1 9966   4.140   4.956   9.957  0.1456  0.2217  0.0847
  657ERGO    R2 9967   4.150   5.132   9.744  0.4018  0.1426  0.0294
  657ERGO    R3 9968   4.196   4.906   9.601  0.1344  0.0349  0.1085
  657ERGO    R4 9969   4.104   5.101   9.403  0.4126  0.0911  0.0323
  657ERGO    R5 9970   4.021   4.902   9.438  0.1525  0.2049  0.0843
  657ERGO    C1 9971   4.119   4.869   9.070  0.1679 -0.0399  0.1080
  657ERGO    C2 9972   4.072   4.836   8.714 -0.0139  0.0946 -0.4750
  658ERGO   ROH 9973   6.436  15.106  10.105 -0.0964 -0.1568 -0.0455
  658ERGO    R1 9974   6.409  15.273   9.878 -0.1461 -0.0939  0.0062
  658ERGO    R2 9975   6.588  15.269   9.669 -0.0917  0.0903  0.0460
  658ERGO    R3 9976   6.365  15.228   9.520 -0.0321  0.0014 -0.0198
  658ERGO    R4 9977   6.559  15.343   9.332 -0.0145  0.0378  0.0275
  658ERGO    R5 9978   6.357  15.416   9.371 -0.0476 -0.0219 -0.0456
  658ERGO    C1 9979   6.332  15.347   8.996  0.0863 -0.0763 -0.0452
  658ERGO    C2 9980   6.390  15.434   8.607  0.0663 -0.0524 -0.1806
  659ERGO   ROH 9981   2.778  17.264  10.078 -0.1928  0.1173  0.0369
  659ERGO    R1 9982   2.725  17.167   9.817 -0.0181  0.0057  0.0412
  659ERGO    R2 9983   2.640  17.332   9.612 -0.2111 -0.1367  0.0074
  659ERGO    R3 9984   2.854  17.225   9.482 -0.0405  0.1362  0.0535
  659ERGO    R4 9985   2.687  17.338   9.269 -0.2802 -0.2974 -0.0061
  659ERGO    R5 9986   2.761  17.133   9.281  0.0779 -0.1698  0.1299
  659ERGO    C1 9987   2.914  17.241   8.948 -0.1602 -0.1348  0.0294
  659ERGO    C2 9988   2.793  17.299   8.619  0.2517 -0.2821  0.0245
  660ERGO   ROH 9989  12.359  17.236   6.835  0.0215  0.0077  0.0480
  660ERGO    R1 9990  12.322  17.227   7.115 -0.1874  0.0826  0.0245
  660ERGO    R2 9991  12.497  17.347   7.292 -0.1367 -0.1500  0.1364
  660ERGO    R3 9992  12.272  17.469   7.382 -0.0318  0.1799 -0.0329
  660ERGO    R4 9993  12.485  17.564   7.560 -0.0241 -0.1632  0.1523
  660ERGO    R5 9994  12.297  17.471   7.621 -0.2194  0.1093 -0.0104
  660ERGO    C1 9995  12.266  17.806   7.802  0.1400  0.1390  0.0025
  660ERGO    C2 9996  12.121  18.051   8.073 -0.1944 -0.0821 -0.0423
  661ERGO   ROH 9997  15.054   0.641  10.365 -0.0837 -0.0914 -0.0007
  661ERGO    R1 9998  15.039   0.510  10.115 -0.2364  0.0074 -0.0445
  661ERGO    R2 9999  14.842   0.566   9.929 -0.1733  0.3010 -0.0273
  661ERGO    R310000  15.054   0.608   9.765 -0.1212  0.1075 -0.0124
  661ERGO    R410001  14.834   0.540   9.584 -0.1394  0.1797 -0.0196
  661ERGO    R510002  15.030   0.445   9.592 -0.1990  0.0584  0.0437
  661ERGO    C110003  15.029   0.564   9.230 -0.0708 -0.0726 -0.0010
  661ERGO    C210004  14.996   0.564   8.981  0.2346 -0.1233 -0.2173
  662ERGO   ROH10005  10.206  11.732   9.489 -0.2527  0.0667  0.0070
  662ERGO    R110006  10.322  11.879   9.276 -0.1932  0.0647  0.0380
  662ERGO    R210007  10.509  11.769   9.105 -0.0926  0.0834  0.1330
  662ERGO    R310008  10.335  11.853   8.914 -0.0299  0.0184  0.0466
  662ERGO    R410009  10.591  11.826   8.774  0.0511  0.1260  0.1754
  662ERGO    R510010  10.464  12.003   8.778 -0.0220  0.0738  0.1158
  662ERGO    C110011  10.476  11.939   8.402  0.1936  0.0897  0.1189
  662ERGO    C210012  10.690  11.927   8.112  0.1669  0.0313 -0.3591
  663ERGO   ROH10013  13.816  12.656   6.539 -0.0703 -0.0563 -0.1348
  663ERGO    R110014  13.747  12.825   6.755 -0.0676 -0.0780 -0.1155
  663ERGO    R210015  13.560  12.754   6.946 -0.1431 -0.0577 -0.1709
  663ERGO    R310016  13.763  12.808   7.118 -0.1605 -0.1650 -0.1174
  663ERGO    R410017  13.520  12.883   7.263 -0.1312  0.1422 -0.2503
  663ERGO    R510018  13.694  13.009   7.229 -0.0026 -0.0471 -0.2434
  663ERGO    C110019  13.686  13.010   7.611 -0.1406  0.1576 -0.2463
  663ERGO    C210020  13.722  13.078   7.942 -0.2048 -0.3488  0.1858
  664ERGO   ROH10021   6.745   2.783  10.253  0.1496 -0.1620  0.0092
  664ERGO    R110022   6.658   2.849   9.992 -0.1259 -0.1764  0.0932
  664ERGO    R210023   6.831   2.939   9.796 -0.4086  0.3568  0.0603
  664ERGO    R310024   6.726   2.733   9.654 -0.0109  0.1990 -0.0150
  664ERGO    R410025   6.830   2.916   9.451 -0.1007  0.3085  0.0611
  664ERGO    R510026   6.628   2.836   9.461  0.0051  0.0360 -0.1024
  664ERGO    C110027   6.732   2.708   9.117  0.4520  0.1323 -0.0091
  664ERGO    C210028   6.780   2.703   8.713  0.2015 -0.0253  0.2660
  665ERGO   ROH10029   3.636  10.727   9.612 -0.1817  0.1797 -0.0771
  665ERGO    R110030   3.541  10.906   9.415  0.0064  0.1959 -0.1547
  665ERGO    R210031   3.695  10.983   9.199  0.1357  0.0395 -0.1252
  665ERGO    R310032   3.481  10.896   9.056  0.1230  0.1448 -0.1718
  665ERGO    R410033   3.655  11.026   8.858  0.2037  0.0768 -0.1291
  665ERGO    R510034   3.443  11.068   8.893  0.2220  0.1660 -0.1657
  665ERGO    C110035   3.430  10.968   8.525  0.2313  0.1974 -0.1751
  665ERGO    C210036   3.459  11.142   8.211  0.0016  0.2476 -0.2174
  666ERGO   ROH10037   1.843   9.346   9.466 -0.0599  0.0233 -0.0004
  666ERGO    R110038   1.750   9.297   9.203 -0.2127  0.0881  0.0403
  666ERGO    R210039   1.590   9.475   9.066  0.0741  0.3322  0.0106
  666ERGO    R310040   1.784   9.455   8.877  0.0001 -0.0939 -0.0283
  666ERGO    R410041   1.591   9.646   8.766  0.3503  0.2755 -0.0227
  666ERGO    R510042   1.665   9.465   8.669 -0.0285  0.1012 -0.0040
  666ERGO    C110043   1.774   9.725   8.413  0.4417 -0.1576 -0.0786
  666ERGO    C210044   1.703   9.794   8.099  0.0337  0.0606  0.2811
  667ERGO   ROH10045   6.975  13.444   9.929 -0.3400  0.0743  0.1546
  667ERGO    R110046   6.911  13.371   9.663 -0.1855  0.0570  0.1223
  667ERGO    R210047   6.732  13.513   9.508 -0.0943  0.0456  0.0102
  667ERGO    R310048   6.940  13.523   9.333  0.0056  0.0338  0.1260
  667ERGO    R410049   6.700  13.533   9.164  0.0938 -0.0821 -0.0163
  667ERGO    R510050   6.866  13.393   9.146  0.1410 -0.0515  0.1278
  667ERGO    C110051   6.877  13.553   8.800  0.2971 -0.1676  0.0770
  667ERGO    C210052   6.869  13.749   8.533  0.2207 -0.2570  0.0116
  668ERGO   ROH10053  17.853   2.792  10.464  0.0167  0.1869 -0.0022
  668ERGO    R110054  17.833   2.629  10.233  0.1982  0.2141 -0.0390
  668ERGO    R210055  17.592   2.577  10.109  0.2308 -0.1477  0.0363
  668ERGO    R310056  17.722   2.671   9.889  0.0004  0.1303  0.0140
  668ERGO    R410057  17.512   2.496   9.782  0.3086 -0.2682  0.0464
  668ERGO    R510058  17.725   2.486   9.738  0.3249  0.1490 -0.0059
  668ERGO    C110059  17.587   2.538   9.386  0.1377 -0.0774  0.0315
  668ERGO    C210060  17.638   2.436   8.978 -0.0480  0.0891 -0.0078
  669ERGO   ROH10061   4.239   4.669   6.554  0.0395 -0.0605  0.1354
  669ERGO    R110062   4.097   4.783   6.770 -0.0358  0.1465 -0.0193
  669ERGO    R210063   4.142   4.710   7.033 -0.4913  0.0073  0.0309
  669ERGO    R310064   4.179   4.977   7.067 -0.0585 -0.0573  0.1219
  669ERGO    R410065   4.055   4.887   7.317 -0.3746  0.0840  0.0191
  669ERGO    R510066   3.986   5.049   7.188 -0.0194  0.2401  0.0150
  669ERGO    C110067   4.039   5.241   7.514  0.0997  0.0681  0.0976
  669ERGO    C210068   4.047   5.228   7.860  0.1659  0.0488  0.0535
  670ERGO   ROH10069   3.967   3.357   6.323 -0.0640  0.0187 -0.0536
  670ERGO    R110070   4.075   3.429   6.574 -0.1966  0.2598 -0.0612
  670ERGO    R210071   3.928   3.561   6.767 -0.4861 -0.0692 -0.0417
  670ERGO    R310072   4.006   3.353   6.923  0.0028  0.0890 -0.0579
  670ERGO    R410073   3.951   3.570   7.112 -0.7240 -0.1027 -0.0242
  670ERGO    R510074   4.135   3.454   7.098 -0.3787  0.4053  0.0519
  670ERGO    C110075   4.037   3.380   7.459 -0.4036  0.0263 -0.0293
  670ERGO    C210076   3.991   3.563   7.834  0.0661  0.0713  0.0961
  671ERGO   ROH10077  10.966  13.420  10.124  0.0162  0.1653  0.0656
  671ERGO    R110078  11.103  13.529   9.901  0.2361 -0.2295 -0.0037
  671ERGO    R210079  11.210  13.372   9.700 -0.3884 -0.5626 -0.1085
  671ERGO    R310080  11.060  13.532   9.540 -0.0007 -0.0378  0.0249
  671ERGO    R410081  11.271  13.429   9.365 -0.1792 -0.3046 -0.0290
  671ERGO    R510082  11.218  13.638   9.396  0.2736 -0.2158  0.1912
  671ERGO    C110083  11.164  13.613   9.019  0.3064  0.3385  0.1425
  671ERGO    C210084  11.361  13.654   8.714  0.0874 -0.1731  0.0512
  672ERGO   ROH10085   0.628  15.689  10.592  0.1930  0.1426 -0.0343
  672ERGO    R110086   0.455  15.690  10.368  0.1367 -0.0947  0.0075
  672ERGO    R210087   0.443  15.903  10.191 -0.0739 -0.1885 -0.0790
  672ERGO    R310088   0.492  15.709  10.006  0.0271 -0.2278 -0.0140
  672ERGO    R410089   0.406  15.940   9.849  0.2955 -0.1810 -0.1232
  672ERGO    R510090   0.323  15.739   9.840  0.2036 -0.1505 -0.1941
  672ERGO    C110091   0.432  15.780   9.477  0.6055 -0.2138 -0.0879
  672ERGO    C210092   0.445  15.733   9.235 -0.0029  0.0065  0.1000
  673ERGO   ROH10093   4.714  11.581   9.841  0.2927  0.1984  0.0423
  673ERGO    R110094   4.820  11.702   9.608  0.1409  0.1452 -0.0558
  673ERGO    R210095   4.889  11.556   9.384  0.0042  0.0916 -0.0659
  673ERGO    R310096   4.723  11.732   9.259 -0.0835  0.0546 -0.0026
  673ERGO    R410097   4.888  11.619   9.044 -0.0425  0.2059 -0.0452
  673ERGO    R510098   4.859  11.831   9.088 -0.1404  0.1758  0.0240
  673ERGO    C110099   4.732  11.820   8.729 -0.1520  0.2376  0.0262
  673ERGO    C210100   4.676  11.693   8.418 -0.1102 -0.0203  0.1149
  674PSPI    C110101  17.368   1.146   6.110 -0.3685  0.0175  0.0293
  674PSPI    C210102  17.610   1.152   5.792 -0.0824  0.2466  0.2455
  674PSPI    C310103  17.218   1.085   5.744 -0.0168  0.1060 -0.1333
  674PSPI   PO410104  17.462   1.352   6.265 -0.1112 -0.0883  0.1968
  674PSPI   GL110105  17.570   1.551   6.658 -0.0881  0.2122 -0.0881
  674PSPI   GL210106  17.419   1.194   6.805 -0.2036  0.0058 -0.0420
  674PSPI   C1A10107  17.296   1.664   6.941 -0.0802  0.1410  0.0283
  674PSPI   C2A10108  17.259   1.624   7.421 -0.1711  0.2318 -0.2240
  674PSPI   C3A10109  17.149   1.646   7.920 -0.3280  0.0316  0.1220
  674PSPI   C4A10110  16.955   1.623   8.364 -0.1727 -0.1373 -0.0243
  674PSPI   C1B10111  17.641   1.235   7.102  0.2054  0.2001  0.0805
  674PSPI   C2B10112  17.865   1.499   7.473  0.0498  0.0072  0.2415
  674PSPI   C3B10113  18.120   1.805   7.673  0.2468  0.0270 -0.2818
  674PSPI   C4B10114  18.343   2.035   7.999  0.0013  0.0486  0.0242
  675PSPI    C110115   1.401  17.265   6.094  0.0638 -0.2311 -0.0465
  675PSPI    C210116   1.693  17.539   6.109 -0.0298 -0.1372  0.0845
  675PSPI    C310117   1.676  17.281   5.803  0.1326 -0.0797  0.0257
  675PSPI   PO410118   1.325  17.232   6.328 -0.0050 -0.0033  0.2270
  675PSPI   GL110119   1.567  17.107   6.703 -0.4381 -0.0582 -0.0187
  675PSPI   GL210120   1.294  17.257   6.885 -0.1880  0.2018 -0.1658
  675PSPI   C1A10121   1.705  17.045   7.128  0.0609  0.0761  0.1780
  675PSPI   C2A10122   1.672  16.979   7.633 -0.0610  0.0281  0.1107
  675PSPI   C3A10123   1.415  16.894   8.010 -0.0146  0.0969 -0.2535
  675PSPI   C4A10124   1.113  16.815   8.394  0.1917 -0.2634  0.2291
  675PSPI   C1B10125   1.022  16.898   6.956  0.1129 -0.1336 -0.1994
  675PSPI   C2B10126   0.703  16.991   7.222  0.1161 -0.2504 -0.2929
  675PSPI   C3B10127   0.659  17.245   7.538  0.0022 -0.1771 -0.2227
  675PSPI   C4B10128   0.567  17.642   7.850  0.2070 -0.0485  0.3621
  676PSPI    C110129   8.623   4.288   6.060 -0.2911 -0.3844 -0.2234
  676PSPI    C210130   8.875   4.241   5.753 -0.0913  0.0030 -0.1245
  676PSPI    C310131   8.489   4.321   5.685 -0.0708 -0.0240 -0.2749
  676PSPI   PO410132   8.794   4.200   6.264 -0.0133 -0.1591  0.0272
  676PSPI   GL110133   9.010   3.888   6.531 -0.0181  0.1703 -0.0170
  676PSPI   GL210134   9.254   4.274   6.554  0.2039 -0.0083 -0.1046
  676PSPI   C1A10135   9.034   3.776   7.012 -0.5632 -0.0405  0.1922
  676PSPI   C2A10136   9.162   3.793   7.477  0.0167  0.1231 -0.0599
  676PSPI   C3A10137   9.379   3.639   7.774  0.1006  0.1058 -0.0854
  676PSPI   C4A10138   9.474   3.631   8.154  0.0348  0.2722 -0.2446
  676PSPI   C1B10139   9.315   4.226   6.944  0.3653  0.1140 -0.2934
  676PSPI   C2B10140   9.430   4.376   7.413 -0.1475 -0.1116  0.2026
  676PSPI   C3B10141   9.308   4.575   7.842 -0.2899  0.0492  0.3289
  676PSPI   C4B10142   9.258   4.813   8.188  0.2040  0.0639  0.2688
  677PSPI    C110143  14.960  16.528   6.137 -0.3297  0.0956 -0.1017
  677PSPI    C210144  15.092  16.153   6.183  0.2642  0.2978 -0.0682
  677PSPI    C310145  14.982  16.282   5.821  0.1321  0.1182 -0.0939
  677PSPI   PO410146  14.818  16.511   6.353 -0.0752  0.0678 -0.2791
  677PSPI   GL110147  14.774  16.333   6.775 -0.0601  0.2559 -0.3315
  677PSPI   GL210148  15.104  16.419   6.840 -0.1922  0.0335 -0.1832
  677PSPI   C1A10149  14.451  16.243   7.076  0.0213 -0.2200 -0.0570
  677PSPI   C2A10150  14.469  15.994   7.443  0.3073 -0.3586  0.0015
  677PSPI   C3A10151  14.543  16.137   7.948 -0.3273  0.1302 -0.0921
  677PSPI   C4A10152  14.572  15.932   8.440 -0.2707  0.1788 -0.1390
  677PSPI   C1B10153  14.939  16.480   7.212 -0.2871 -0.1829 -0.0114
  677PSPI   C2B10154  14.734  16.467   7.547  0.1981 -0.1728 -0.2176
  677PSPI   C3B10155  14.743  16.679   7.913 -0.2944  0.2550 -0.2004
  677PSPI   C4B10156  14.489  16.873   8.138  0.2494 -0.4625  0.0384
  678PSPI    C110157  17.431   8.682   5.416 -0.1367  0.0310 -0.0836
  678PSPI    C210158  17.722   8.558   5.170  0.0326 -0.0250  0.1415
  678PSPI    C310159  17.664   8.949   5.231 -0.0956 -0.0066 -0.0863
  678PSPI   PO410160  17.395   8.505   5.572  0.1102  0.2082 -0.0416
  678PSPI   GL110161  17.576   8.340   5.920 -0.1549 -0.0895  0.1032
  678PSPI   GL210162  17.676   8.607   5.996  0.2917 -0.3145 -0.0918
  678PSPI   C1A10163  17.598   8.102   6.237  0.0328 -0.0889 -0.0523
  678PSPI   C2A10164  17.687   8.024   6.674 -0.1379  0.0591 -0.1199
  678PSPI   C3A10165  17.420   7.759   6.988  0.2341  0.0000  0.2886
  678PSPI   C4A10166  17.402   7.429   7.293 -0.0101 -0.1932 -0.3106
  678PSPI   C1B10167  17.614   8.767   6.373  0.1147  0.1925  0.1006
  678PSPI   C2B10168  17.857   8.508   6.620  0.1824 -0.1259  0.2225
  678PSPI   C3B10169  17.784   8.438   7.028  0.1762  0.2574  0.2368
  678PSPI   C4B10170  17.559   8.537   7.361  0.0488  0.0711 -0.5777
  679PSPI    C110171   2.945  15.310   5.781  0.0622  0.0074  0.0358
  679PSPI    C210172   2.644  15.144   5.577  0.0417  0.0413  0.0384
  679PSPI    C310173   2.986  15.234   5.390 -0.0368  0.2262 -0.0189
  679PSPI   PO410174   2.851  15.494   5.962  0.2117  0.1252  0.0490
  679PSPI   GL110175   2.909  15.521   6.305  0.1702 -0.0550 -0.0470
  679PSPI   GL210176   3.099  15.502   6.461  0.0937  0.0641 -0.5569
  679PSPI   C1A10177   2.662  15.557   6.740 -0.2366  0.0157 -0.0384
  679PSPI   C2A10178   2.508  15.393   7.126 -0.0162  0.2980 -0.0009
  679PSPI   C3A10179   2.416  15.320   7.621  0.1389 -0.2281 -0.2280
  679PSPI   C4A10180   2.497  15.432   8.069 -0.0942  0.1366  0.3585
  679PSPI   C1B10181   3.172  15.689   6.903 -0.2152  0.1831  0.0958
  679PSPI   C2B10182   3.395  15.575   7.219  0.0172  0.3200  0.0524
  679PSPI   C3B10183   3.621  15.343   7.656  0.3477  0.3252 -0.1388
  679PSPI   C4B10184   3.604  15.331   8.072 -0.2448  0.0540 -0.0265
  680PSPI    C110185   2.213  16.772   5.824  0.2030  0.1155  0.1209
  680PSPI    C210186   2.130  16.989   5.499  0.1447  0.0835  0.1142
  680PSPI    C310187   1.836  16.803   5.696  0.2111 -0.1005  0.0409
  680PSPI   PO410188   2.266  16.956   5.991 -0.3774  0.1050 -0.0930
  680PSPI   GL110189   2.305  16.909   6.485  0.0436  0.0243 -0.1293
  680PSPI   GL210190   2.142  17.180   6.690  0.2917  0.0213 -0.3071
  680PSPI   C1A10191   2.627  16.799   6.833 -0.0987 -0.1752 -0.1646
  680PSPI   C2A10192   2.530  16.783   7.163  0.2633 -0.2951 -0.0740
  680PSPI   C3A10193   2.609  16.811   7.550 -0.2455  0.0859  0.1130
  680PSPI   C4A10194   2.934  16.728   7.765 -0.1034 -0.1751 -0.2484
  680PSPI   C1B10195   2.210  17.219   7.112 -0.1323  0.1524  0.0388
  680PSPI   C2B10196   2.164  17.024   7.454  0.0005  0.0006 -0.2352
  680PSPI   C3B10197   2.163  16.919   7.860 -0.2848  0.1557  0.2219
  680PSPI   C4B10198   2.107  16.878   8.313 -0.0196 -0.1161 -0.0278
  681PSPI    C110199   6.794   0.775   5.996  0.2166 -0.0421 -0.3839
  681PSPI    C210200   6.419   0.799   6.134  0.3894  0.1005  0.0810
  681PSPI    C310201   6.501   0.906   5.757  0.0294  0.4557  0.0964
  681PSPI   PO410202   6.926   0.843   6.259  0.1548  0.0562  0.1632
  681PSPI   GL110203   6.821   1.025   6.537 -0.1582 -0.1563 -0.1486
  681PSPI   GL210204   6.929   1.288   6.486 -0.0682 -0.1368 -0.1225
  681PSPI   C1A10205   6.724   0.883   6.978  0.1271  0.1043 -0.0149
  681PSPI   C2A10206   6.753   0.741   7.402  0.1733  0.0316  0.1277
  681PSPI   C3A10207   6.634   0.806   7.874 -0.2546 -0.1718  0.2406
  681PSPI   C4A10208   6.706   0.593   8.183 -0.0537  0.1182 -0.1552
  681PSPI   C1B10209   7.042   1.344   6.883  0.1762 -0.0140 -0.1780
  681PSPI   C2B10210   7.099   1.117   7.251 -0.1875  0.0535 -0.2895
  681PSPI   C3B10211   6.993   1.217   7.615 -0.1867 -0.1772  0.1248
  681PSPI   C4B10212   6.765   1.238   8.104  0.0650  0.1997 -0.1357
  682PSPI    C110213   7.210  10.925   5.256 -0.0828 -0.0211  0.0186
  682PSPI    C210214   7.013  11.260   5.161  0.2517  0.1516 -0.0832
  682PSPI    C310215   7.167  11.030   4.872  0.1071 -0.0408 -0.0091
  682PSPI   PO410216   7.266  10.975   5.517  0.2534  0.0680 -0.2998
  682PSPI   GL110217   7.174  10.814   5.917 -0.1408  0.0880  0.0722
  682PSPI   GL210218   7.501  10.720   5.880  0.2479 -0.1741 -0.1291
  682PSPI   C1A10219   7.230  11.088   6.275 -0.4888 -0.0680  0.0160
  682PSPI   C2A10220   7.411  11.498   6.247 -0.2231  0.1941  0.0224
  682PSPI   C3A10221   7.425  11.904   6.177  0.1571  0.4072 -0.1594
  682PSPI   C4A10222   7.296  12.313   6.360  0.0900 -0.0410  0.0745
  682PSPI   C1B10223   7.679  10.632   6.355 -0.1769 -0.2754 -0.1812
  682PSPI   C2B10224   7.538  10.656   6.876  0.2554  0.3030  0.5150
  682PSPI   C3B10225   7.525  10.464   7.268  0.2070  0.2274 -0.0244
  682PSPI   C4B10226   7.672  10.127   7.569  0.0794 -0.3150  0.2861
  683PSPI    C110227  10.302   0.889   6.097  0.1684 -0.0171 -0.0610
  683PSPI    C210228  10.318   0.567   5.860 -0.1809 -0.0637 -0.0258
  683PSPI    C310229  10.444   0.922   5.724  0.0441 -0.1792 -0.1235
  683PSPI   PO410230  10.402   0.732   6.316  0.0742  0.0086 -0.1086
  683PSPI   GL110231  10.900   0.585   6.530 -0.0435 -0.0375 -0.1212
  683PSPI   GL210232  10.735   0.410   6.659  0.1008  0.0706 -0.0028
  683PSPI   C1A10233  10.982   0.784   7.009  0.2192 -0.2998 -0.1522
  683PSPI   C2A10234  11.126   0.777   7.404 -0.0906 -0.1207  0.0876
  683PSPI   C3A10235  11.177   0.816   7.829  0.2466 -0.1893 -0.1522
  683PSPI   C4A10236  11.008   0.864   8.262 -0.3079 -0.1045 -0.0516
  683PSPI   C1B10237  10.735   0.325   7.066 -0.0330 -0.1626  0.0531
  683PSPI   C2B10238  10.837   0.339   7.449  0.1012  0.2383  0.0674
  683PSPI   C3B10239  11.087   0.201   7.705 -0.1158  0.2580 -0.2226
  683PSPI   C4B10240  11.128   0.315   8.093  0.2173  0.0199 -0.1858
  684PSPI    C110241   7.954  11.649   5.301 -0.0655 -0.0044 -0.0221
  684PSPI    C210242   8.007  12.003   5.478  0.0897  0.0335 -0.1420
  684PSPI    C310243   8.153  11.939   5.111  0.2346 -0.2189 -0.0434
  684PSPI   PO410244   7.975  11.424   5.527 -0.1060 -0.0448 -0.1490
  684PSPI   GL110245   8.089  11.199   5.960 -0.3512 -0.2897 -0.0617
  684PSPI   GL210246   7.982  10.891   6.088  0.3048  0.0020  0.0796
  684PSPI   C1A10247   8.293  11.312   6.277 -0.0423 -0.1501 -0.3784
  684PSPI   C2A10248   8.443  11.173   6.732  0.1539  0.0844 -0.1482
  684PSPI   C3A10249   8.268  10.926   7.073 -0.1821  0.0448  0.1471
  684PSPI   C4A10250   8.289  11.037   7.511  0.2921 -0.1443 -0.1007
  684PSPI   C1B10251   7.783  11.126   6.329 -0.0244  0.1802  0.1228
  684PSPI   C2B10252   7.555  11.143   6.735 -0.1639 -0.2090  0.1107
  684PSPI   C3B10253   7.322  11.232   7.101 -0.1228  0.0117  0.1085
  684PSPI   C4B10254   7.317  11.613   7.331 -0.1728 -0.0472  0.2490
  685PSPI    C110255   1.432   2.622   5.798  0.1070  0.1436  0.1628
  685PSPI    C210256   1.632   2.468   5.487 -0.0419  0.0673  0.1041
  685PSPI    C310257   1.504   2.229   5.781  0.0143  0.1259  0.1764
  685PSPI   PO410258   1.601   2.833   5.891  0.2491 -0.0066 -0.1496
  685PSPI   GL110259   1.722   3.100   6.232  0.2130  0.2586  0.0081
  685PSPI   GL210260   1.951   2.819   6.237  0.0324  0.0545 -0.2506
  685PSPI   C1A10261   1.536   3.108   6.642  0.0227 -0.1202 -0.1874
  685PSPI   C2A10262   1.390   3.275   7.161  0.3917 -0.3270  0.0852
  685PSPI   C3A10263   1.463   3.339   7.704 -0.3780 -0.1735 -0.1477
  685PSPI   C4A10264   1.499   3.296   8.140 -0.2010 -0.1436 -0.1061
  685PSPI   C1B10265   2.006   2.916   6.625 -0.0093 -0.1448  0.1726
  685PSPI   C2B10266   2.236   2.734   6.985  0.2490 -0.1100 -0.2927
  685PSPI   C3B10267   2.185   2.697   7.455 -0.1282  0.2070  0.0416
  685PSPI   C4B10268   2.097   2.378   7.719  0.0681  0.1023  0.0159
  686PSPI    C110269  11.453   4.838   5.777  0.0762 -0.0835 -0.1460
  686PSPI    C210270  11.250   4.936   5.447  0.0481 -0.1051 -0.1352
  686PSPI    C310271  11.649   4.911   5.436  0.0468 -0.1135 -0.1694
  686PSPI   PO410272  11.254   4.994   6.050  0.2511 -0.0023  0.2171
  686PSPI   GL110273  11.089   5.214   6.414 -0.1904 -0.0365 -0.0700
  686PSPI   GL210274  11.239   5.513   6.396  0.3379 -0.2182  0.0705
  686PSPI   C1A10275  11.382   5.009   6.697  0.2111 -0.0132  0.1304
  686PSPI   C2A10276  11.432   4.991   7.049 -0.0039 -0.1608 -0.0589
  686PSPI   C3A10277  11.490   4.802   7.397  0.0175 -0.2395  0.2820
  686PSPI   C4A10278  11.760   4.708   7.731  0.1775  0.1381 -0.0930
  686PSPI   C1B10279  11.080   5.510   6.872 -0.1819  0.2513 -0.0185
  686PSPI   C2B10280  11.386   5.465   7.303  0.1159  0.1237 -0.0473
  686PSPI   C3B10281  11.485   5.221   7.666  0.1307  0.2428  0.2648
  686PSPI   C4B10282  11.439   4.955   7.978 -0.1548 -0.0592 -0.0533
  687PSPI    C110283   5.084   1.656   5.791 -0.0421 -0.1219  0.0640
  687PSPI    C210284   5.292   1.338   5.665  0.1126 -0.0100  0.0342
  687PSPI    C310285   4.892   1.337   5.645  0.1291 -0.0359 -0.3616
  687PSPI   PO410286   5.116   1.727   5.985  0.1249 -0.3436 -0.1344
  687PSPI   GL110287   5.424   1.757   6.322 -0.1802 -0.2796 -0.1626
  687PSPI   GL210288   5.688   1.987   6.480 -0.2366 -0.1517 -0.0901
  687PSPI   C1A10289   5.260   1.769   6.742 -0.2024 -0.0101  0.0720
  687PSPI   C2A10290   5.196   1.763   7.199 -0.0922  0.0753 -0.3361
  687PSPI   C3A10291   4.858   1.992   7.439  0.1869  0.1183  0.1257
  687PSPI   C4A10292   4.436   2.055   7.591  0.0944  0.3413  0.1818
  687PSPI   C1B10293   5.676   1.842   6.935  0.2075 -0.3939 -0.0279
  687PSPI   C2B10294   5.644   1.918   7.438  0.6109 -0.2234  0.2072
  687PSPI   C3B10295   5.728   1.990   7.862 -0.1509 -0.0300  0.2345
  687PSPI   C4B10296   5.830   2.071   8.272 -0.3517  0.2317  0.0820
  688PSPI    C110297   6.685   1.846   5.907 -0.0696 -0.1038 -0.0117
  688PSPI    C210298   6.382   1.870   6.167 -0.0749 -0.1347 -0.0150
  688PSPI    C310299   6.323   1.710   5.805 -0.0827 -0.0348 -0.0582
  688PSPI   PO410300   6.915   1.736   6.138 -0.1647  0.1961 -0.1514
  688PSPI   GL110301   7.151   1.757   6.558 -0.3102  0.1038 -0.1353
  688PSPI   GL210302   7.365   1.653   6.481 -0.1402  0.2323  0.1972
  688PSPI   C1A10303   7.274   1.794   6.996  0.3216 -0.2256 -0.1306
  688PSPI   C2A10304   7.249   1.641   7.335  0.0344  0.1005  0.2725
  688PSPI   C3A10305   7.450   1.419   7.634  0.2667 -0.0967 -0.0466
  688PSPI   C4A10306   7.467   1.104   7.988  0.0514 -0.2904  0.2508
  688PSPI   C1B10307   7.546   1.424   6.835 -0.1652  0.3332 -0.4090
  688PSPI   C2B10308   7.601   1.102   7.210 -0.2144  0.0920 -0.0696
  688PSPI   C3B10309   7.504   0.837   7.548  0.0694 -0.1784  0.1119
  688PSPI   C4B10310   7.130   0.634   7.798  0.0693  0.2234  0.2613
  689PSPI    C110311   5.356   4.183   5.724  0.0039  0.0705  0.1065
  689PSPI    C210312   5.591   4.161   5.401  0.0312  0.1179  0.1230
  689PSPI    C310313   5.225   4.321   5.372 -0.0301 -0.0281  0.0801
  689PSPI   PO410314   5.504   4.230   6.003 -0.1679  0.2019 -0.0789
  689PSPI   GL110315   5.440   4.376   6.441 -0.1402  0.0900  0.1028
  689PSPI   GL210316   5.346   4.060   6.605 -0.0515  0.1828  0.2388
  689PSPI   C1A10317   5.543   4.476   6.874 -0.1141  0.0942 -0.5565
  689PSPI   C2A10318   5.687   4.774   7.236 -0.1337  0.1283  0.1862
  689PSPI   C3A10319   5.562   5.030   7.559  0.1882 -0.0541  0.1572
  689PSPI   C4A10320   5.389   5.195   7.901  0.1373  0.2695  0.1871
  689PSPI   C1B10321   5.342   4.096   7.096 -0.2173 -0.1038  0.1314
  689PSPI   C2B10322   5.381   4.368   7.508  0.1136  0.1256  0.1383
  689PSPI   C3B10323   5.400   4.580   7.872  0.1171  0.0500  0.1757
  689PSPI   C4B10324   5.725   4.572   8.243  0.0042 -0.4582  0.3354
  690PSPI    C110325  10.244  14.984   5.898 -0.0189  0.1100  0.3439
  690PSPI    C210326  10.438  15.257   6.116  0.4486 -0.0456  0.1368
  690PSPI    C310327  10.641  15.021   5.866 -0.0284 -0.1449 -0.1696
  690PSPI   PO410328  10.040  14.931   6.055 -0.2763  0.2176 -0.1515
  690PSPI   GL110329   9.830  14.834   6.386 -0.2868  0.1225  0.1275
  690PSPI   GL210330   9.981  15.138   6.466  0.0313  0.0096  0.0205
  690PSPI   C1A10331   9.619  15.008   6.760  0.1912 -0.0534 -0.0544
  690PSPI   C2A10332   9.361  15.134   7.063 -0.0783  0.0935 -0.2386
  690PSPI   C3A10333   9.172  14.825   7.250 -0.0110  0.4975 -0.0027
  690PSPI   C4A10334   8.973  14.478   7.443 -0.1785  0.0733 -0.0687
  690PSPI   C1B10335  10.019  15.376   6.868 -0.0315 -0.2464 -0.0397
  690PSPI   C2B10336   9.791  15.406   7.245 -0.1241 -0.0398  0.0418
  690PSPI   C3B10337   9.923  15.341   7.640  0.1789 -0.1500 -0.0813
  690PSPI   C4B10338   9.989  15.370   8.114  0.1716 -0.2047 -0.0320
  691PSPI    C110339  15.870  17.329   6.533  0.1266 -0.0488  0.0001
  691PSPI    C210340  15.963  17.222   6.159 -0.1548 -0.1023 -0.0570
  691PSPI    C310341  15.583  17.209   6.282 -0.0527 -0.1770  0.2614
  691PSPI   PO410342  16.144  17.545   6.536  0.1928  0.3808  0.1698
  691PSPI   GL110343  16.268  17.666   6.932 -0.2537 -0.0404  0.2008
  691PSPI   GL210344  16.052  17.975   6.855 -0.4254 -0.3233 -0.4690
  691PSPI   C1A10345  16.009  17.537   7.224 -0.1048 -0.4115  0.1055
  691PSPI   C2A10346  16.060  17.413   7.598  0.0429 -0.0183  0.0922
  691PSPI   C3A10347  16.363  17.402   7.976  0.1811  0.0211 -0.3544
  691PSPI   C4A10348  16.708  17.323   8.180 -0.1100 -0.1877 -0.1141
  691PSPI   C1B10349  16.096  18.032   7.340  0.0091 -0.2713 -0.0487
  691PSPI   C2B10350  16.062  17.949   7.618 -0.0619  0.2136 -0.0595
  691PSPI   C3B10351  15.945  17.697   7.982  0.0641  0.0698  0.2137
  691PSPI   C4B10352  15.669  17.786   8.334  0.1457  0.0267 -0.1134
  692PSPI    C110353   9.601   7.858   5.505 -0.0436  0.0563  0.1954
  692PSPI    C210354   9.290   7.752   5.277  0.2442 -0.1268 -0.1206
  692PSPI    C310355   9.542   8.036   5.152  0.0991  0.1611  0.2235
  692PSPI   PO410356   9.435   7.933   5.708  0.0728 -0.2032  0.0161
  692PSPI   GL110357   9.240   8.054   6.033  0.0623 -0.0806 -0.3107
  692PSPI   GL210358   9.121   7.847   6.084  0.3926  0.3222  0.3014
  692PSPI   C1A10359   9.147   8.426   6.349 -0.3918 -0.2153  0.0150
  692PSPI   C2A10360   9.199   8.441   6.753 -0.0970  0.2637  0.1076
  692PSPI   C3A10361   9.204   8.431   7.163  0.0452  0.1556 -0.0857
  692PSPI   C4A10362   9.482   8.389   7.600 -0.4153 -0.0168  0.4208
  692PSPI   C1B10363   9.080   7.716   6.449 -0.1515 -0.2041  0.1294
  692PSPI   C2B10364   8.902   8.049   6.781 -0.0214 -0.2769 -0.2677
  692PSPI   C3B10365   8.694   8.429   6.966  0.1379  0.0013 -0.1436
  692PSPI   C4B10366   8.426   8.463   7.294  0.1473  0.3505  0.1939
  693PSPI    C110367  10.502   9.426   5.141 -0.1243  0.1510 -0.0226
  693PSPI    C210368  10.332   9.134   4.926 -0.0558 -0.1223  0.2876
  693PSPI    C310369  10.132   9.473   4.996 -0.2406 -0.2009  0.1476
  693PSPI   PO410370  10.777   9.404   5.164  0.1042  0.1139 -0.3210
  693PSPI   GL110371  10.901   9.366   5.666 -0.3770 -0.2333 -0.0290
  693PSPI   GL210372  10.591   9.307   5.743  0.1202 -0.1611  0.3155
  693PSPI   C1A10373  11.254   9.470   5.939 -0.0878  0.1701  0.1233
  693PSPI   C2A10374  11.190   9.615   6.404 -0.1740 -0.0487 -0.0963
  693PSPI   C3A10375  11.087   9.610   6.870  0.1799  0.0608  0.1915
  693PSPI   C4A10376  10.777   9.795   7.169  0.0678 -0.1375  0.2013
  693PSPI   C1B10377  10.377   9.268   6.080  0.2243  0.0286  0.1654
  693PSPI   C2B10378  10.047   9.436   6.295 -0.0161 -0.0995  0.2216
  693PSPI   C3B10379   9.935   9.713   6.683 -0.1611  0.2294  0.1172
  693PSPI   C4B10380   9.736   9.932   7.015 -0.0036 -0.4971 -0.0283
  694POPI    C110381   4.483   8.778   5.888  0.0324  0.1437  0.0856
  694POPI    C210382   4.397   8.633   5.525 -0.0198  0.3729  0.0046
  694POPI    C310383   4.768   8.600   5.671 -0.0343  0.1485 -0.0066
  694POPI   PO410384   4.395   9.044   5.943 -0.0908  0.1616  0.0144
  694POPI   GL110385   4.216   9.359   6.306 -0.0035 -0.1970  0.0572
  694POPI   GL210386   3.946   9.175   6.190 -0.0926 -0.0646  0.0130
  694POPI   C1A10387   4.027   9.384   6.722  0.1160 -0.0660 -0.2999
  694POPI   D2A10388   3.834   9.773   7.082 -0.0435  0.1822  0.1973
  694POPI   C3A10389   4.238   9.674   7.397 -0.3314 -0.2305  0.3741
  694POPI   C4A10390   4.525   9.526   7.674 -0.0294  0.0110 -0.1164
  694POPI   C1B10391   3.787   9.594   6.356 -0.1239 -0.1679 -0.0041
  694POPI   C2B10392   3.601   9.827   6.618 -0.1314 -0.0318 -0.0069
  694POPI   C3B10393   3.430  10.071   6.963 -0.2969 -0.0114 -0.0892
  694POPI   C4B10394   3.582  10.121   7.347  0.2444  0.1027  0.1320
  695POPI    C110395   7.673   1.230   6.334 -0.0215  0.1015 -0.1202
  695POPI    C210396   7.769   1.489   6.045  0.0921  0.1713 -0.0211
  695POPI    C310397   7.880   1.560   6.423 -0.0565  0.0813  0.0406
  695POPI   PO410398   7.802   1.011   6.290  0.0150  0.0289  0.0275
  695POPI   GL110399   8.012   0.627   6.629 -0.3388  0.1669  0.1404
  695POPI   GL210400   7.682   0.624   6.660  0.1314  0.0626  0.0784
  695POPI   C1A10401   8.330   0.545   6.966  0.1008 -0.2062  0.1434
  695POPI   D2A10402   8.688   0.490   7.275  0.0892 -0.1612 -0.2708
  695POPI   C3A10403   8.845   0.515   7.660 -0.0158 -0.1584 -0.2411
  695POPI   C4A10404   8.687   0.476   8.036 -0.0793  0.1792  0.0443
  695POPI   C1B10405   7.858   0.671   7.058  0.2763 -0.1771  0.3977
  695POPI   C2B10406   8.137   0.963   7.315  0.0345 -0.1745 -0.0392
  695POPI   C3B10407   7.900   1.138   7.648 -0.1100  0.1309 -0.0117
  695POPI   C4B10408   8.044   0.952   8.040 -0.0214  0.0352 -0.0659
  696POPI    C110409   0.389   1.189   5.889  0.0261  0.1519  0.2061
  696POPI    C210410   0.419   1.586   5.929 -0.2016  0.1791  0.1210
  696POPI    C310411   0.143   1.430   5.685  0.0025 -0.0278  0.0188
  696POPI   PO410412   0.630   1.161   6.117 -0.0527 -0.0062 -0.0730
  696POPI   GL110413   0.649   1.040   6.574  0.2074 -0.2555  0.0860
  696POPI   GL210414   0.814   1.384   6.543 -0.0372 -0.3827  0.0757
  696POPI   C1A10415   0.635   0.887   6.923 -0.0457 -0.3362 -0.1056
  696POPI   D2A10416   0.986   0.702   7.203 -0.1557 -0.0086 -0.2096
  696POPI   C3A10417   1.009   0.311   7.218  0.0679 -0.1333  0.0895
  696POPI   C4A10418   1.153   0.023   6.938 -0.0107  0.0890  0.2051
  696POPI   C1B10419   0.630   1.452   7.060 -0.2179 -0.2107 -0.0498
  696POPI   C2B10420   0.720   1.185   7.342  0.2003  0.1890 -0.0036
  696POPI   C3B10421   0.958   0.877   7.666 -0.0614 -0.2176 -0.1223
  696POPI   C4B10422   1.157   0.729   8.020 -0.2097 -0.1067  0.2610
  697POPI    C110423   1.975   2.041   5.654 -0.1634 -0.0214  0.2353
  697POPI    C210424   2.076   1.839   5.324  0.0443 -0.2206  0.4172
  697POPI    C310425   2.109   2.237   5.332 -0.1114 -0.1994  0.1470
  697POPI   PO410426   2.110   1.962   5.803 -0.0380  0.1792 -0.0258
  697POPI   GL110427   2.318   1.868   6.197 -0.1431  0.0041 -0.0749
  697POPI   GL210428   2.071   1.891   6.402 -0.0232  0.0712  0.0463
  697POPI   C1A10429   2.630   2.004   6.536  0.2335  0.0010  0.2795
  697POPI   D2A10430   2.977   1.867   6.765 -0.0088  0.1336  0.0064
  697POPI   C3A10431   3.388   1.939   6.638  0.1825  0.0488 -0.0323
  697POPI   C4A10432   3.512   2.291   6.760 -0.0452  0.0466 -0.0405
  697POPI   C1B10433   2.102   1.917   6.822  0.0997  0.0929 -0.0144
  697POPI   C2B10434   2.048   1.808   7.148  0.1371 -0.0327  0.0332
  697POPI   C3B10435   2.066   1.887   7.604  0.0892 -0.0526 -0.3623
  697POPI   C4B10436   1.717   1.714   7.904  0.0744  0.0676  0.3034
  698POPI    C110437   0.961   2.809   5.704 -0.0560  0.0611 -0.0246
  698POPI    C210438   0.597   2.924   5.582 -0.1131  0.0326  0.1165
  698POPI    C310439   0.855   2.765   5.320 -0.2370 -0.0364  0.0354
  698POPI   PO410440   0.970   2.568   5.971  0.0299 -0.1239 -0.0526
  698POPI   GL110441   0.757   2.547   6.296 -0.0878 -0.0269 -0.0156
  698POPI   GL210442   0.884   2.303   6.533  0.0006 -0.2491 -0.0703
  698POPI   C1A10443   0.926   2.772   6.609 -0.1976 -0.0872 -0.1909
  698POPI   D2A10444   1.222   2.856   6.893 -0.1319 -0.2636  0.0158
  698POPI   C3A10445   1.234   2.832   7.420  0.2856 -0.2382 -0.1456
  698POPI   C4A10446   1.317   2.924   7.884  0.0550  0.2056  0.0168
  698POPI   C1B10447   1.084   2.215   6.873  0.2553 -0.0352  0.1618
  698POPI   C2B10448   1.246   2.324   7.145  0.2813  0.0415  0.1894
  698POPI   C3B10449   1.603   2.536   7.348  0.1323 -0.3151 -0.0162
  698POPI   C4B10450   1.733   2.924   7.674 -0.4071 -0.2096 -0.0806
  699POPI    C110451  10.888   1.071   6.199 -0.1286 -0.1322 -0.1258
  699POPI    C210452  11.113   1.375   6.070 -0.0994 -0.2097 -0.2606
  699POPI    C310453  11.241   0.999   6.026  0.0261 -0.2307  0.2223
  699POPI   PO410454  10.818   1.038   6.375  0.2894  0.2069  0.1766
  699POPI   GL110455  10.649   0.941   6.698 -0.0761  0.1430  0.0216
  699POPI   GL210456  10.451   1.200   6.863 -0.2656 -0.3897  0.1326
  699POPI   C1A10457  10.447   0.825   7.095  0.1988  0.0965 -0.2194
  699POPI   D2A10458  10.645   0.800   7.441  0.0603 -0.1557  0.1252
  699POPI   C3A10459  10.223   0.820   7.738  0.1950  0.0343  0.0654
  699POPI   C4A10460   9.946   0.599   8.099  0.2830 -0.0047  0.2491
  699POPI   C1B10461  10.298   1.223   7.333  0.4675 -0.1889  0.2019
  699POPI   C2B10462  10.241   1.323   7.779 -0.0809 -0.1447  0.1674
  699POPI   C3B10463  10.385   1.617   8.079 -0.0359 -0.2828  0.2704
  699POPI   C4B10464  10.564   1.601   8.499 -0.0437 -0.1170 -0.1380
  700POPI    C110465   2.337   5.732   5.651 -0.1033 -0.0811  0.0560
  700POPI    C210466   2.568   5.508   5.412 -0.2980 -0.0666 -0.1488
  700POPI    C310467   2.239   5.351   5.578 -0.2539 -0.0279 -0.0235
  700POPI   PO410468   2.542   5.872   5.801 -0.0919  0.0168 -0.3835
  700POPI   GL110469   2.436   5.848   6.256 -0.1755 -0.0176  0.0436
  700POPI   GL210470   2.617   5.976   6.259 -0.0870  0.1473 -0.1076
  700POPI   C1A10471   2.242   5.894   6.654  0.2120 -0.0680 -0.3251
  700POPI   D2A10472   2.264   5.955   7.035  0.3886  0.1324 -0.0581
  700POPI   C3A10473   2.646   6.077   7.240  0.3272 -0.1565 -0.0332
  700POPI   C4A10474   2.864   5.999   7.539  0.0739  0.0141  0.2267
  700POPI   C1B10475   2.742   5.942   6.742  0.1342 -0.1233  0.0707
  700POPI   C2B10476   3.001   5.793   7.097 -0.1960 -0.0497  0.2850
  700POPI   C3B10477   3.300   5.529   7.069  0.1799 -0.0351 -0.0187
  700POPI   C4B10478   3.575   5.401   7.309  0.0715  0.1179 -0.0764
  701POPI    C110479   3.084  10.511   5.695  0.0786 -0.1169  0.2264
  701POPI    C210480   3.333  10.453   5.388 -0.1892 -0.1019  0.0026
  701POPI    C310481   3.480  10.515   5.755  0.1344 -0.0958 -0.1242
  701POPI   PO410482   2.879  10.332   5.606 -0.4815  0.2930  0.0926
  701POPI   GL110483   2.429  10.328   5.723 -0.2628 -0.2809 -0.0113
  701POPI   GL210484   2.642  10.681   5.909 -0.4979 -0.0671 -0.0283
  701POPI   C1A10485   2.338  10.102   6.093  0.3476 -0.0456 -0.5806
  701POPI   D2A10486   2.157   9.657   6.153 -0.2302  0.2016  0.1276
  701POPI   C3A10487   2.333   9.270   6.318  0.0285  0.0250 -0.1788
  701POPI   C4A10488   2.346   8.852   6.492  0.0257  0.1965 -0.1827
  701POPI   C1B10489   3.005  10.574   6.215 -0.2015 -0.0212 -0.1791
  701POPI   C2B10490   2.963  10.597   6.684 -0.1286 -0.1560 -0.1737
  701POPI   C3B10491   3.102  10.446   7.065  0.1349 -0.1046  0.0317
  701POPI   C4B10492   3.108  10.212   7.374 -0.1585 -0.2179 -0.2980
  702POPI    C110493  16.277  12.176   5.842 -0.0546  0.1618  0.0127
  702POPI    C210494  16.191  12.408   5.527  0.0874  0.1587 -0.0291
  702POPI    C310495  16.283  12.023   5.472  0.0970  0.1541  0.0179
  702POPI   PO410496  16.116  12.145   6.042 -0.4346  0.1849  0.1334
  702POPI   GL110497  15.947  12.384   6.404 -0.1700  0.0661  0.0167
  702POPI   GL210498  15.986  12.650   6.545  0.2253  0.0032 -0.1511
  702POPI   C1A10499  15.796  12.132   6.698  0.1467 -0.2832  0.0920
  702POPI   D2A10500  15.838  11.746   6.738  0.1314 -0.0009  0.3808
  702POPI   C3A10501  16.186  11.538   6.990  0.1253 -0.1627  0.0344
  702POPI   C4A10502  16.572  11.381   7.020 -0.3973  0.0883 -0.1578
  702POPI   C1B10503  15.959  12.610   7.016 -0.1560 -0.0072 -0.0197
  702POPI   C2B10504  15.979  12.585   7.410  0.1726  0.2907 -0.0498
  702POPI   C3B10505  16.162  12.625   7.774 -0.2707  0.1622 -0.1970
  702POPI   C4B10506  16.463  12.845   8.059  0.1163  0.1722 -0.2847
  703POPI    C110507   5.518   0.683   6.113 -0.1450 -0.0696  0.1832
  703POPI    C210508   5.823   0.559   6.341  0.0868 -0.2195 -0.1985
  703POPI    C310509   5.659   0.311   6.073 -0.1051 -0.0109 -0.2784
  703POPI   PO410510   5.394   0.891   6.218 -0.2495  0.3006  0.1213
  703POPI   GL110511   5.295   1.073   6.572 -0.0589 -0.0637  0.3204
  703POPI   GL210512   4.985   1.240   6.623 -0.1905  0.1413  0.1809
  703POPI   C1A10513   5.211   0.935   7.074  0.2802  0.2094 -0.0052
  703POPI   D2A10514   5.240   0.839   7.535 -0.2280  0.1379 -0.0319
  703POPI   C3A10515   5.127   0.719   8.006 -0.1617  0.0754 -0.1328
  703POPI   C4A10516   5.357   0.311   8.235 -0.0113  0.0414 -0.0639
  703POPI   C1B10517   4.947   1.329   7.016 -0.0782  0.0442  0.1142
  703POPI   C2B10518   4.847   1.394   7.397  0.1469  0.3331  0.0799
  703POPI   C3B10519   4.964   1.261   7.708  0.0719  0.3926 -0.1648
  703POPI   C4B10520   5.140   1.246   8.156 -0.0732 -0.0338 -0.2284
  704POPI    C110521   4.742  14.508   5.777  0.0739 -0.0287  0.1290
  704POPI    C210522   4.507  14.810   5.894  0.0781  0.0117  0.0338
  704POPI    C310523   4.602  14.768   5.508  0.0278 -0.1471  0.0380
  704POPI   PO410524   4.898  14.567   6.060 -0.2152 -0.1748 -0.2434
  704POPI   GL110525   4.871  14.492   6.479  0.2497  0.1410 -0.2128
  704POPI   GL210526   4.825  14.526   6.806 -0.2514  0.0833  0.0010
  704POPI   C1A10527   4.998  14.073   6.614 -0.0655  0.0419  0.1806
  704POPI   D2A10528   4.867  13.711   6.674  0.1115  0.1970 -0.1474
  704POPI   C3A10529   4.777  13.517   7.130  0.4452 -0.2029 -0.2212
  704POPI   C4A10530   5.097  13.551   7.446  0.0091  0.0441  0.1174
  704POPI   C1B10531   4.608  14.609   7.171  0.0971  0.1966 -0.0911
  704POPI   C2B10532   4.787  14.431   7.558  0.1035  0.0457 -0.1134
  704POPI   C3B10533   5.047  14.257   7.911  0.0432  0.1310 -0.3559
  704POPI   C4B10534   5.166  13.889   8.194  0.0241  0.3115  0.2744
  705POPI    C110535   6.150   8.481   5.175 -0.4213  0.2061 -0.0192
  705POPI    C210536   5.889   8.184   5.232 -0.0232 -0.1440  0.0340
  705POPI    C310537   6.011   8.274   4.862  0.0518 -0.2205  0.0400
  705POPI   PO410538   6.145   8.578   5.437 -0.1153 -0.0130 -0.1869
  705POPI   GL110539   6.119   8.894   5.778  0.0361  0.4378 -0.0779
  705POPI   GL210540   6.217   9.181   5.880 -0.3003 -0.3495  0.0717
  705POPI   C1A10541   6.083   8.618   6.112 -0.0671 -0.1271 -0.3377
  705POPI   D2A10542   5.944   8.744   6.553 -0.2461  0.0535 -0.0310
  705POPI   C3A10543   6.162   8.502   6.963 -0.1450  0.3419  0.2347
  705POPI   C4A10544   6.274   8.280   7.363  0.1565 -0.0684 -0.1835
  705POPI   C1B10545   6.283   9.306   6.261 -0.1643 -0.0882 -0.0666
  705POPI   C2B10546   6.383   9.453   6.686  0.0283 -0.0228  0.0617
  705POPI   C3B10547   6.680   9.397   6.995 -0.2163 -0.3782  0.0975
  705POPI   C4B10548   7.013   9.426   7.434 -0.4655 -0.0671  0.0102
  706POPI    C110549   3.252   5.194   5.749 -0.0156 -0.0732  0.1089
  706POPI    C210550   3.403   5.544   5.869 -0.1010 -0.0390  0.1176
  706POPI    C310551   3.484   5.406   5.502 -0.5270  0.2640 -0.0982
  706POPI   PO410552   3.184   5.052   6.022  0.0560  0.0797 -0.3898
  706POPI   GL110553   3.297   5.198   6.446  0.4339  0.0100  0.0819
  706POPI   GL210554   3.181   4.868   6.526 -0.1402 -0.1065  0.0067
  706POPI   C1A10555   2.991   5.218   6.786 -0.0570 -0.2697 -0.0449
  706POPI   D2A10556   2.930   5.229   7.317  0.2857 -0.0837  0.1141
  706POPI   C3A10557   3.160   5.033   7.491 -0.1499  0.1241  0.4447
  706POPI   C4A10558   3.566   4.941   7.493 -0.1316 -0.2451 -0.2809
  706POPI   C1B10559   2.754   4.625   6.572  0.0503  0.1765 -0.1583
  706POPI   C2B10560   2.650   4.215   6.735  0.4057  0.3101 -0.0531
  706POPI   C3B10561   2.493   4.067   7.099  0.1915  0.0652 -0.0328
  706POPI   C4B10562   2.480   4.245   7.413 -0.1751  0.1451  0.1957
  707POPI    C110563   1.101  11.418   5.637  0.0432 -0.1548 -0.0867
  707POPI    C210564   1.005  11.310   5.264  0.1439 -0.3580 -0.0555
  707POPI    C310565   1.303  11.571   5.327  0.0033 -0.1785 -0.1245
  707POPI   PO410566   1.078  11.188   5.740 -0.0659 -0.0467  0.0743
  707POPI   GL110567   1.166  11.044   6.166 -0.1722 -0.0987 -0.0405
  707POPI   GL210568   1.465  11.164   6.287 -0.0015  0.1037 -0.1365
  707POPI   C1A10569   1.221  10.778   6.499  0.0688  0.3344 -0.1430
  707POPI   D2A10570   1.006  10.400   6.792  0.1541 -0.1168  0.0697
  707POPI   C3A10571   1.080  10.437   7.239  0.1922  0.2175  0.0096
  707POPI   C4A10572   0.693  10.498   7.588 -0.0815  0.0848  0.1285
  707POPI   C1B10573   1.623  11.114   6.617 -0.1859  0.2097 -0.0734
  707POPI   C2B10574   2.046  11.205   6.830  0.3006 -0.0151 -0.1220
  707POPI   C3B10575   2.450  11.386   6.615  0.1842 -0.0954 -0.1369
  707POPI   C4B10576   2.545  11.482   6.170  0.1441  0.1330 -0.2967
  708POPI    C110577   6.217  13.031   5.045  0.1961 -0.0488  0.0793
  708POPI    C210578   6.363  12.673   4.941 -0.0470 -0.0831 -0.1542
  708POPI    C310579   6.022  12.805   4.778  0.0922  0.2993 -0.1466
  708POPI   PO410580   6.185  12.880   5.403 -0.1890  0.2886 -0.1221
  708POPI   GL110581   6.430  12.535   5.679 -0.1289 -0.0720  0.1537
  708POPI   GL210582   6.602  12.798   5.819 -0.0082  0.1554  0.1433
  708POPI   C1A10583   6.245  12.419   6.084  0.1940  0.1095 -0.2266
  708POPI   D2A10584   6.237  12.107   6.383  0.0997  0.1334  0.1494
  708POPI   C3A10585   6.505  12.279   6.781  0.0981  0.1554 -0.0313
  708POPI   C4A10586   6.709  12.254   7.248  0.2957  0.1608 -0.0265
  708POPI   C1B10587   6.456  12.794   6.303 -0.2327 -0.0951  0.2517
  708POPI   C2B10588   6.605  12.821   6.677  0.0574  0.1280  0.5330
  708POPI   C3B10589   6.541  12.702   7.127  0.0186 -0.0349  0.1342
  708POPI   C4B10590   6.487  12.641   7.594 -0.2604  0.3118  0.3782
  709POPI    C110591   6.682  15.088   5.863 -0.2115 -0.2229  0.1234
  709POPI    C210592   6.400  15.307   6.042 -0.0054  0.0364  0.1373
  709POPI    C310593   6.425  15.301   5.643 -0.0447 -0.0056  0.1354
  709POPI   PO410594   6.842  15.022   6.011 -0.2451  0.0230 -0.1374
  709POPI   GL110595   6.769  15.077   6.386 -0.0588  0.1003  0.0134
  709POPI   GL210596   6.492  15.117   6.631 -0.2949 -0.2497 -0.1671
  709POPI   C1A10597   7.034  14.805   6.719  0.4865  0.0098  0.0527
  709POPI   D2A10598   7.102  14.498   6.881 -0.1211  0.3577 -0.1482
  709POPI   C3A10599   7.048  14.373   7.279  0.0070  0.1725 -0.1718
  709POPI   C4A10600   6.751  14.346   7.518 -0.1756  0.2007  0.2059
  709POPI   C1B10601   6.571  15.230   6.990 -0.1195  0.0603 -0.0995
  709POPI   C2B10602   6.486  15.313   7.398 -0.2002  0.1860  0.3397
  709POPI   C3B10603   6.431  15.445   7.750 -0.0608  0.0327 -0.0373
  709POPI   C4B10604   6.436  15.600   8.068  0.0680 -0.1091 -0.0496
  710POPI    C110605   1.327  12.386   5.767  0.1764  0.0845  0.0672
  710POPI    C210606   1.267  12.354   5.373 -0.2530 -0.0207  0.1369
  710POPI    C310607   1.541  12.124   5.552  0.0234  0.1063 -0.1139
  710POPI   PO410608   1.368  12.620   5.830  0.2093  0.0955 -0.4093
  710POPI   GL110609   1.288  12.727   6.257  0.0924 -0.0388 -0.0278
  710POPI   GL210610   1.500  12.589   6.325  0.2335 -0.0922  0.1220
  710POPI   C1A10611   1.143  12.915   6.624  0.0089  0.3969  0.1207
  710POPI   D2A10612   0.868  12.751   6.980  0.1600  0.1284  0.3226
  710POPI   C3A10613   1.156  12.682   7.317  0.0267 -0.2658 -0.2385
  710POPI   C4A10614   1.279  12.405   7.572 -0.0801  0.0802  0.2295
  710POPI   C1B10615   1.240  12.484   6.693 -0.3089  0.0489  0.2650
  710POPI   C2B10616   1.151  12.191   7.098  0.1370  0.0687  0.1797
  710POPI   C3B10617   1.276  11.818   7.334 -0.0589  0.0237  0.0515
  710POPI   C4B10618   1.433  11.496   7.497 -0.0613 -0.1405  0.1023
  711POPI    C110619  12.182  18.103   6.090 -0.3133 -0.0818 -0.0857
  711POPI    C210620  12.215  17.954   5.721  0.0537  0.0046 -0.0915
  711POPI    C310621  12.078  18.326   5.775 -0.0509 -0.0270 -0.1351
  711POPI   PO410622  12.399  18.030   6.209  0.0656  0.2137  0.0261
  711POPI   GL110623  12.475  18.039   6.590 -0.0115  0.2275 -0.1799
  711POPI   GL210624  12.330  18.386   6.552  0.2356 -0.0837 -0.0858
  711POPI   C1A10625  12.239  18.158   6.927  0.0306 -0.2569  0.1196
  711POPI   D2A10626  11.864  18.105   7.125 -0.3611 -0.2219 -0.2095
  711POPI   C3A10627  11.812  17.716   7.403  0.1044 -0.1901 -0.1584
  711POPI   C4A10628  11.401  17.431   7.643  0.2409  0.2698 -0.0820
  711POPI   C1B10629  12.488  18.601   6.728  0.1020  0.1682  0.0425
  711POPI   C2B10630  12.522  18.680   7.088 -0.1540 -0.0882  0.1673
  711POPI   C3B10631  12.624  18.926   7.364 -0.0769 -0.3289  0.3308
  711POPI   C4B10632  12.894  18.987   7.601  0.2468  0.0350  0.1684
  712POPI    C110633  13.283   1.367   5.693  0.1332  0.1429  0.1736
  712POPI    C210634  13.615   1.574   5.609  0.0192  0.3081  0.1263
  712POPI    C310635  13.311   1.571   5.350  0.0451  0.0265  0.0967
  712POPI   PO410636  13.368   1.266   5.935 -0.2099 -0.3470 -0.2324
  712POPI   GL110637  13.312   1.384   6.354  0.1022 -0.1704 -0.0902
  712POPI   GL210638  13.651   1.595   6.240 -0.2490  0.0683  0.1690
  712POPI   C1A10639  13.205   1.257   6.652  0.0353 -0.2422  0.0783
  712POPI   D2A10640  13.257   1.065   6.984  0.0310 -0.0336  0.4248
  712POPI   C3A10641  13.091   1.159   7.289 -0.1350 -0.1883 -0.0059
  712POPI   C4A10642  13.335   1.116   7.620  0.1092 -0.0661 -0.2419
  712POPI   C1B10643  13.726   1.630   6.665  0.0108  0.1390 -0.1547
  712POPI   C2B10644  13.677   1.533   7.048 -0.1008 -0.1197  0.3064
  712POPI   C3B10645  13.380   1.556   7.460 -0.1545 -0.2039 -0.4890
  712POPI   C4B10646  13.269   1.659   7.955  0.0323 -0.2763  0.1210
  713POPI    C110647  10.323  16.935   5.582 -0.1033  0.2235  0.0855
  713POPI    C210648  10.543  17.264   5.521  0.0707  0.0534 -0.2302
  713POPI    C310649  10.315  17.118   5.227 -0.1273 -0.0226 -0.0426
  713POPI   PO410650  10.242  17.010   5.831  0.0407 -0.0930  0.4509
  713POPI   GL110651  10.063  16.697   6.111 -0.2475 -0.2363  0.0422
  713POPI   GL210652   9.931  16.729   6.380  0.1313 -0.1062 -0.1548
  713POPI   C1A10653  10.379  16.727   6.471  0.0974 -0.2514  0.0923
  713POPI   D2A10654  10.547  16.409   6.801 -0.3397  0.0023 -0.0306
  713POPI   C3A10655  10.561  16.498   7.286 -0.0442  0.0771  0.0322
  713POPI   C4A10656  10.550  16.389   7.738 -0.3409 -0.4178  0.1156
  713POPI   C1B10657   9.931  16.824   6.820  0.2060  0.0316  0.1601
  713POPI   C2B10658   9.636  16.930   7.075  0.2945  0.3355 -0.4665
  713POPI   C3B10659   9.635  16.852   7.498  0.1256  0.0645  0.0696
  713POPI   C4B10660   9.344  16.792   7.783  0.0698 -0.3219 -0.2196
  714POPI    C110661  10.322  17.989   5.911 -0.1850  0.3127 -0.0302
  714POPI    C210662  10.045  17.956   5.624  0.0939  0.6043 -0.3423
  714POPI    C310663  10.399  17.776   5.581 -0.1540 -0.0611  0.2123
  714POPI   PO410664  10.303  17.957   6.166  0.1017  0.0164  0.0393
  714POPI   GL110665  10.130  18.023   6.458  0.0148  0.1635  0.3753
  714POPI   GL210666   9.798  17.900   6.442  0.3505  0.0906  0.4760
  714POPI   C1A10667  10.111  17.992   6.878  0.1078 -0.2080 -0.0344
  714POPI   D2A10668   9.814  17.750   7.164  0.1376  0.2940  0.1180
  714POPI   C3A10669   9.857  17.616   7.658 -0.1191  0.1897  0.1445
  714POPI   C4A10670   9.677  17.178   7.856 -0.0270  0.0834 -0.0676
  714POPI   C1B10671   9.866  17.605   6.660 -0.2662 -0.3425  0.0624
  714POPI   C2B10672   9.933  17.301   6.979  0.2132 -0.0174 -0.2079
  714POPI   C3B10673   9.993  17.239   7.376 -0.0373 -0.0730  0.2383
  714POPI   C4B10674  10.129  17.211   7.703  0.0387  0.1121  0.0948
  715POPI    C110675  10.045  17.405   5.492 -0.1114  0.0854  0.1385
  715POPI    C210676   9.877  17.043   5.509 -0.0222  0.0343 -0.0422
  715POPI    C310677   9.834  17.268   5.181 -0.1428  0.2203  0.0994
  715POPI   PO410678   9.989  17.485   5.833  0.1828  0.4083 -0.0956
  715POPI   GL110679  10.054  17.223   6.294 -0.0275  0.1327  0.0481
  715POPI   GL210680  10.121  17.146   6.566  0.4267  0.1337  0.2424
  715POPI   C1A10681   9.597  17.104   6.602 -0.1282  0.1430  0.4664
  715POPI   D2A10682   9.441  17.423   6.913 -0.2409  0.0428 -0.3044
  715POPI   C3A10683   9.474  17.384   7.353 -0.1227 -0.1919 -0.1111
  715POPI   C4A10684   9.191  17.403   7.628 -0.2501 -0.2277  0.3110
  715POPI   C1B10685  10.378  16.981   6.960  0.0322 -0.0460  0.0451
  715POPI   C2B10686  10.439  17.030   7.343  0.0370 -0.0964  0.1810
  715POPI   C3B10687  10.570  16.905   7.713  0.0813  0.0897  0.0783
  715POPI   C4B10688  10.502  16.775   8.116 -0.1259 -0.0286  0.0661
  716POPI    C110689  16.865  18.075   6.271  0.0086 -0.2899  0.2761
  716POPI    C210690  16.542  18.126   6.040  0.3750 -0.1150 -0.2150
  716POPI    C310691  16.715  17.766   6.066  0.1996 -0.1876 -0.0248
  716POPI   PO410692  16.826  18.214   6.489 -0.0519  0.2526  0.0785
  716POPI   GL110693  16.573  18.379   6.784 -0.0483 -0.0134 -0.1674
  716POPI   GL210694  16.302  18.438   6.625  0.3539 -0.1894  0.2495
  716POPI   C1A10695  16.586  18.245   7.226 -0.2089 -0.2618  0.3763
  716POPI   D2A10696  16.694  18.423   7.563  0.0759 -0.3342  0.1745
  716POPI   C3A10697  16.391  18.306   7.859 -0.0622 -0.0400  0.1678
  716POPI   C4A10698  15.937  18.216   8.045 -0.0899 -0.1172 -0.4331
  716POPI   C1B10699  16.161  18.442   7.074  0.0292 -0.2416  0.0827
  716POPI   C2B10700  16.104  18.495   7.434  0.0291 -0.0772 -0.0747
  716POPI   C3B10701  15.850  18.709   7.836  0.4014 -0.0957  0.3038
  716POPI   C4B10702  15.384  18.543   7.945 -0.1618  0.1487 -0.1593
  717POPI    C110703  11.930   0.613   6.135  0.1984 -0.2132 -0.0211
  717POPI    C210704  11.993   0.621   5.740 -0.1102 -0.2406 -0.0733
  717POPI    C310705  11.660   0.782   5.893  0.1404  0.0244  0.2050
  717POPI   PO410706  11.931   0.358   6.230 -0.0436  0.0727  0.1280
  717POPI   GL110707  11.787   0.287   6.669 -0.3078  0.1362  0.0888
  717POPI   GL210708  11.713   0.626   6.611 -0.2023 -0.1667 -0.2689
  717POPI   C1A10709  12.009   0.426   6.965 -0.1193  0.1211 -0.1066
  717POPI   D2A10710  12.150   0.332   7.348 -0.0776 -0.0146  0.1462
  717POPI   C3A10711  12.533   0.237   7.584 -0.0008  0.2755 -0.1360
  717POPI   C4A10712  12.546  -0.016   7.882 -0.2885 -0.1192  0.2241
  717POPI   C1B10713  11.685   0.870   6.915  0.1061 -0.2891  0.2170
  717POPI   C2B10714  11.457   1.092   7.112  0.0001  0.2470 -0.0343
  717POPI   C3B10715  11.492   1.069   7.460  0.1954 -0.2017  0.0862
  717POPI   C4B10716  11.737   0.881   7.818 -0.0898  0.2111  0.1892
  718POPI    C110717   3.473  15.092   5.918 -0.2381  0.1018  0.0939
  718POPI    C210718   3.612  14.744   5.778 -0.1552  0.1862 -0.0355
  718POPI    C310719   3.320  14.937   5.583 -0.2065  0.1857  0.0403
  718POPI   PO410720   3.297  15.105   6.227 -0.4736  0.0436  0.0457
  718POPI   GL110721   3.172  14.898   6.491 -0.1245  0.0817  0.1045
  718POPI   GL210722   2.931  15.013   6.625 -0.1750  0.2079 -0.0022
  718POPI   C1A10723   3.161  14.566   6.795  0.4240  0.2846 -0.0506
  718POPI   D2A10724   2.889  14.455   7.153  0.1207  0.1903 -0.0043
  718POPI   C3A10725   2.764  14.801   7.443  0.1596  0.0061  0.1419
  718POPI   C4A10726   2.823  15.002   7.816  0.1320 -0.2511  0.0317
  718POPI   C1B10727   2.883  15.105   7.027  0.1940  0.2701  0.2483
  718POPI   C2B10728   2.872  15.325   7.419  0.0003 -0.0410 -0.3305
  718POPI   C3B10729   2.971  15.440   7.811  0.0222 -0.0816 -0.1165
  718POPI   C4B10730   3.153  15.231   8.280 -0.0098  0.2762 -0.0790
  719POPI    C110731  11.744  16.552   6.441  0.0517  0.0026 -0.0543
  719POPI    C210732  11.426  16.310   6.450  0.1788 -0.1647 -0.0162
  719POPI    C310733  11.447  16.603   6.178 -0.0879 -0.0407  0.0934
  719POPI   PO410734  11.971  16.378   6.508 -0.1065 -0.1892 -0.0807
  719POPI   GL110735  11.966  16.362   6.950 -0.1535 -0.0724 -0.0565
  719POPI   GL210736  11.755  16.144   6.931  0.2091  0.0102  0.3501
  719POPI   C1A10737  11.971  16.521   7.385  0.0180 -0.0455  0.0757
  719POPI   D2A10738  11.968  16.617   7.828 -0.1319 -0.1088  0.2411
  719POPI   C3A10739  12.050  16.395   8.131  0.1995 -0.0968  0.1274
  719POPI   C4A10740  11.774  16.279   8.429 -0.0372  0.1037  0.0217
  719POPI   C1B10741  11.696  15.770   7.088  0.2741 -0.0616  0.2591
  719POPI   C2B10742  11.632  15.682   7.549 -0.0310 -0.2320 -0.1353
  719POPI   C3B10743  11.454  15.766   7.997  0.0295 -0.0946 -0.2100
  719POPI   C4B10744  11.629  15.794   8.430 -0.1001  0.0886  0.1734
  720POPI    C110745   4.859   3.661   6.096 -0.0515  0.0343  0.0023
  720POPI    C210746   4.874   3.413   5.783  0.0244  0.1146 -0.0582
  720POPI    C310747   4.703   3.773   5.745 -0.0767  0.0760  0.0266
  720POPI   PO410748   5.191   3.642   6.138  0.0077  0.2361  0.2073
  720POPI   GL110749   5.474   3.337   6.371 -0.2896  0.0258  0.0161
  720POPI   GL210750   5.639   3.455   6.769  0.2075  0.1642  0.3257
  720POPI   C1A10751   5.177   3.399   6.750 -0.0030  0.1190  0.0934
  720POPI   D2A10752   5.186   3.357   7.135  0.0658 -0.0826  0.2110
  720POPI   C3A10753   5.397   3.659   7.397  0.0619 -0.0625 -0.1042
  720POPI   C4A10754   5.693   3.895   7.528  0.0730 -0.1131 -0.1145
  720POPI   C1B10755   5.984   3.679   7.143 -0.1000  0.0762  0.4250
  720POPI   C2B10756   6.223   3.911   7.375 -0.0266  0.1308  0.2235
  720POPI   C3B10757   6.463   4.151   7.675  0.4053  0.2251 -0.3127
  720POPI   C4B10758   6.571   4.155   8.065  0.0124 -0.0907  0.1989
  721POPI    C110759  12.309   9.713   5.220 -0.0549 -0.2434 -0.1050
  721POPI    C210760  12.638   9.652   5.000 -0.0646  0.0415 -0.2034
  721POPI    C310761  12.552  10.019   5.135 -0.3304 -0.0347 -0.1586
  721POPI   PO410762  12.316   9.593   5.412 -0.1468 -0.0323  0.0480
  721POPI   GL110763  12.281   9.762   5.751 -0.0082 -0.0210 -0.0315
  721POPI   GL210764  12.631   9.899   5.632  0.0654 -0.0273 -0.2291
  721POPI   C1A10765  12.344   9.480   6.121  0.0296 -0.4135 -0.1123
  721POPI   D2A10766  12.637   9.375   6.408  0.0061 -0.0741  0.2170
  721POPI   C3A10767  12.405   9.171   6.722 -0.2289  0.1297 -0.0050
  721POPI   C4A10768  12.213   9.010   7.111  0.4072  0.4267 -0.1340
  721POPI   C1B10769  12.824   9.584   5.962  0.0091  0.1796 -0.2403
  721POPI   C2B10770  13.064   9.637   6.308 -0.1663  0.1686  0.1496
  721POPI   C3B10771  13.046   9.444   6.681 -0.1393 -0.1723  0.0676
  721POPI   C4B10772  12.893   9.329   7.100  0.2801  0.2632  0.0867
  722POPI    C110773   3.367   1.614   5.844 -0.0994 -0.0707 -0.2914
  722POPI    C210774   3.065   1.381   5.962 -0.1118 -0.0566 -0.2952
  722POPI    C310775   3.002   1.666   5.688 -0.0611 -0.1555 -0.4110
  722POPI   PO410776   3.518   1.602   6.083  0.0850 -0.1269 -0.0246
  722POPI   GL110777   3.747   1.546   6.446 -0.1859 -0.2491  0.1317
  722POPI   GL210778   3.841   1.196   6.525  0.2220  0.3999  0.1233
  722POPI   C1A10779   3.548   1.514   6.816  0.1001  0.0556 -0.1372
  722POPI   D2A10780   3.300   1.724   7.142  0.1275  0.1061 -0.2195
  722POPI   C3A10781   3.364   1.887   7.622 -0.0338  0.0283  0.0250
  722POPI   C4A10782   3.493   2.250   7.927  0.1981 -0.3278  0.0040
  722POPI   C1B10783   3.464   1.025   6.574  0.0039  0.1906  0.0212
  722POPI   C2B10784   3.618   0.963   6.949  0.1149 -0.0436  0.1387
  722POPI   C3B10785   3.596   0.604   7.117  0.0078 -0.2783  0.1679
  722POPI   C4B10786   3.352   0.198   7.068 -0.0843 -0.3102 -0.1037
  723POPI    C110787  12.677  13.668   5.924 -0.2395  0.1194  0.0198
  723POPI    C210788  12.448  13.962   5.781 -0.1691  0.0005 -0.3487
  723POPI    C310789  12.503  13.629   5.566  0.0339 -0.1364 -0.0904
  723POPI   PO410790  12.686  13.737   6.153 -0.1891  0.0944  0.1150
  723POPI   GL110791  12.538  14.114   6.288  0.0517 -0.2096  0.0871
  723POPI   GL210792  12.563  14.302   6.470  0.0713 -0.1367 -0.0640
  723POPI   C1A10793  12.265  13.944   6.621 -0.2593 -0.0345  0.0591
  723POPI   D2A10794  11.874  13.728   6.738 -0.1303 -0.0895  0.0357
  723POPI   C3A10795  11.748  13.564   7.128 -0.2140  0.2469 -0.1899
  723POPI   C4A10796  11.654  13.312   7.564 -0.0947  0.1602 -0.1269
  723POPI   C1B10797  12.400  14.392   6.830  0.3088  0.1151 -0.5890
  723POPI   C2B10798  12.254  14.522   7.177 -0.2098 -0.0540 -0.0784
  723POPI   C3B10799  12.157  14.320   7.612 -0.1428  0.0126  0.1098
  723POPI   C4B10800  12.360  14.044   7.926  0.1650  0.2996  0.2691
  724POPI    C110801  13.609  14.812   6.374 -0.3021 -0.0753  0.1050
  724POPI    C210802  13.455  15.180   6.338 -0.1589 -0.0299 -0.0597
  724POPI    C310803  13.741  15.058   6.088  0.0630 -0.1189  0.2316
  724POPI   PO410804  13.640  14.753   6.716  0.0536 -0.0130 -0.0555
  724POPI   GL110805  13.326  14.696   6.982  0.0207  0.0744 -0.2607
  724POPI   GL210806  13.479  14.441   7.085 -0.0625 -0.1108  0.0304
  724POPI   C1A10807  12.890  14.635   7.288  0.2027 -0.1063 -0.1180
  724POPI   D2A10808  12.638  14.315   7.459  0.0073 -0.2219  0.0179
  724POPI   C3A10809  12.844  14.160   7.858 -0.2275  0.0059 -0.3167
  724POPI   C4A10810  12.877  14.350   8.311 -0.0657  0.2226  0.0367
  724POPI   C1B10811  13.703  14.618   7.461  0.2396 -0.1153  0.1124
  724POPI   C2B10812  14.016  14.478   7.725  0.1868  0.0222  0.1719
  724POPI   C3B10813  14.071  14.348   8.080 -0.1150 -0.1156  0.1158
  724POPI   C4B10814  13.838  14.498   8.472  0.0057 -0.2238  0.2003
  725POPI    C110815   2.445   4.980   5.821 -0.2582 -0.0750 -0.0911
  725POPI    C210816   2.470   4.924   5.426  0.1190  0.0216 -0.0856
  725POPI    C310817   2.794   5.033   5.633 -0.0206 -0.2495  0.2877
  725POPI   PO410818   2.317   4.732   5.902  0.1262  0.0849 -0.1416
  725POPI   GL110819   2.146   4.685   6.313 -0.0067 -0.1276  0.0874
  725POPI   GL210820   2.341   4.889   6.365  0.3436  0.0649  0.0314
  725POPI   C1A10821   2.245   4.605   6.725  0.2912  0.1360 -0.3050
  725POPI   D2A10822   2.502   4.602   7.054 -0.1560  0.1449 -0.1384
  725POPI   C3A10823   2.928   4.771   6.995  0.1420 -0.0667 -0.1494
  725POPI   C4A10824   3.348   5.026   7.038 -0.1602 -0.0355  0.1663
  725POPI   C1B10825   2.496   5.043   6.821 -0.1840  0.1027  0.0088
  725POPI   C2B10826   2.482   5.059   7.254  0.0368 -0.1485  0.1047
  725POPI   C3B10827   2.286   5.282   7.658 -0.1012 -0.1329  0.2150
  725POPI   C4B10828   2.104   5.173   8.217 -0.1023  0.2122  0.1647
  726POPI    C110829  10.918   8.503   5.137  0.1974  0.0218 -0.3278
  726POPI    C210830  10.683   8.180   5.127  0.3484 -0.0895 -0.3178
  726POPI    C310831  10.795   8.357   4.786  0.1937  0.0058 -0.3199
  726POPI   PO410832  10.950   8.549   5.430 -0.1460 -0.1249  0.0239
  726POPI   GL110833  10.777   8.568   5.781  0.2375  0.1024 -0.1774
  726POPI   GL210834  10.866   8.890   5.804 -0.1842  0.1962  0.3409
  726POPI   C1A10835  10.522   8.716   6.181  0.0534 -0.2622 -0.2193
  726POPI   D2A10836  10.449   9.004   6.496  0.0964 -0.0668 -0.0269
  726POPI   C3A10837  10.514   9.136   6.846 -0.1035 -0.1174  0.0528
  726POPI   C4A10838  10.469   9.412   7.221 -0.1422  0.1731  0.0712
  726POPI   C1B10839  10.929   9.152   6.156  0.2656  0.0607  0.1017
  726POPI   C2B10840  10.957   9.215   6.619  0.3866  0.0060 -0.0422
  726POPI   C3B10841  11.088   8.904   6.862  0.0551  0.0027  0.0524
  726POPI   C4B10842  11.285   8.597   6.844 -0.2104  0.2408 -0.2775
  727POPI    C110843   1.064   2.057   5.938  0.1142  0.1842 -0.1238
  727POPI    C210844   1.216   1.808   5.665  0.1399 -0.2658  0.2872
  727POPI    C310845   0.825   1.894   5.662  0.1607 -0.1721  0.0404
  727POPI   PO410846   1.192   2.013   6.156  0.2750 -0.0865 -0.0043
  727POPI   GL110847   1.428   2.179   6.418  0.3245  0.0980 -0.0580
  727POPI   GL210848   1.400   2.534   6.349  0.1323 -0.1754 -0.1660
  727POPI   C1A10849   1.584   2.120   6.780 -0.2260 -0.1428  0.0439
  727POPI   D2A10850   1.672   1.785   6.729 -0.1574  0.2107 -0.1135
  727POPI   C3A10851   1.658   1.469   7.080 -0.2575  0.0241 -0.2469
  727POPI   C4A10852   1.796   1.464   7.459  0.1786  0.0273  0.0019
  727POPI   C1B10853   1.595   2.590   6.743  0.0001  0.2847 -0.1505
  727POPI   C2B10854   1.740   2.854   7.025 -0.0254  0.0870 -0.0586
  727POPI   C3B10855   1.873   3.191   7.072 -0.2234 -0.0814  0.0837
  727POPI   C4B10856   2.020   3.479   6.662 -0.0912 -0.0418  0.5203
  728POPI    C110857  14.048   1.879   5.617 -0.0570  0.1623  0.0785
  728POPI    C210858  14.004   2.271   5.550 -0.1381  0.1257 -0.0877
  728POPI    C310859  14.227   2.050   5.302 -0.0847  0.0682  0.0111
  728POPI   PO410860  14.110   1.898   5.902 -0.0988 -0.0039  0.0215
  728POPI   GL110861  14.124   1.854   6.375  0.0664  0.0002 -0.1671
  728POPI   GL210862  14.234   1.679   6.534  0.0823 -0.0369 -0.0686
  728POPI   C1A10863  13.839   2.075   6.539  0.2322 -0.0103  0.1969
  728POPI   D2A10864  13.650   2.092   6.882 -0.0747  0.1238  0.1541
  728POPI   C3A10865  13.514   2.493   7.193  0.0650 -0.0444 -0.3634
  728POPI   C4A10866  13.681   2.592   7.681  0.0826 -0.1000 -0.2434
  728POPI   C1B10867  14.192   1.744   6.976  0.1054 -0.2592  0.1091
  728POPI   C2B10868  14.097   1.707   7.343 -0.3264 -0.3998 -0.3246
  728POPI   C3B10869  14.274   1.758   7.764 -0.1168 -0.1259 -0.0938
  728POPI   C4B10870  14.142   1.990   8.208 -0.1475  0.1413 -0.3141
  729POPI    C110871   3.986  10.705   5.630 -0.0185  0.0601  0.0926
  729POPI    C210872   3.814  10.526   5.316 -0.0626  0.0954  0.0965
  729POPI    C310873   4.117  10.347   5.508 -0.1054  0.0257  0.0994
  729POPI   PO410874   3.775  10.919   5.812  0.0408 -0.1978 -0.2555
  729POPI   GL110875   3.770  10.959   6.252 -0.2361  0.0404  0.4615
  729POPI   GL210876   3.442  10.763   6.214 -0.3603  0.0376 -0.0835
  729POPI   C1A10877   4.057  10.698   6.534  0.2608  0.0785 -0.0146
  729POPI   D2A10878   3.837  10.647   6.971  0.1511  0.2606 -0.1189
  729POPI   C3A10879   3.543  10.668   7.303 -0.0609 -0.1099 -0.2008
  729POPI   C4A10880   3.187  10.748   7.466  0.2181  0.1394 -0.0574
  729POPI   C1B10881   3.299  11.286   6.445 -0.1602 -0.2624 -0.1943
  729POPI   C2B10882   2.945  11.583   6.541  0.1174 -0.4657  0.1589
  729POPI   C3B10883   2.752  11.685   6.909  0.2178 -0.2422 -0.1221
  729POPI   C4B10884   2.849  11.783   7.324 -0.4871  0.1737 -0.1535
  730POPI    C110885  13.195  12.560   6.176 -0.3236 -0.2009  0.0532
  730POPI    C210886  13.301  12.182   6.096 -0.0288 -0.0910 -0.0907
  730POPI    C310887  13.373  12.471   5.829  0.0805  0.1261  0.1681
  730POPI   PO410888  12.918  12.568   6.309  0.1159  0.0303 -0.0873
  730POPI   GL110889  12.740  12.721   6.631  0.1545  0.0284 -0.0770
  730POPI   GL210890  12.485  12.394   6.623  0.0504  0.3572  0.0963
  730POPI   C1A10891  12.956  12.761   7.120  0.0493 -0.0177  0.2537
  730POPI   D2A10892  13.107  12.782   7.542  0.3099 -0.0970  0.1315
  730POPI   C3A10893  13.428  12.631   7.795  0.1930  0.1438 -0.2130
  730POPI   C4A10894  13.582  12.283   8.100  0.1894 -0.1567 -0.1604
  730POPI   C1B10895  12.807  12.306   6.962  0.2288  0.0420  0.0976
  730POPI   C2B10896  12.835  12.227   7.323  0.1261 -0.1582 -0.1128
  730POPI   C3B10897  13.013  12.151   7.701  0.0896  0.0250  0.1765
  730POPI   C4B10898  13.057  12.339   8.091  0.1705 -0.2192 -0.4842
  731POPI    C110899   8.422   8.987   5.284 -0.2316 -0.1667 -0.2521
  731POPI    C210900   8.533   9.166   4.945  0.1251  0.3631  0.1275
  731POPI    C310901   8.754   8.869   5.095 -0.0619  0.0922 -0.1230
  731POPI   PO410902   8.317   9.193   5.471 -0.0434 -0.2045  0.0225
  731POPI   GL110903   8.313   9.319   5.878 -0.2248 -0.0493  0.1409
  731POPI   GL210904   8.352   9.697   5.811 -0.0886  0.0108  0.1215
  731POPI   C1A10905   8.159   9.390   6.249 -0.1460  0.0499 -0.1676
  731POPI   D2A10906   8.150   9.448   6.617  0.1770  0.0604 -0.0284
  731POPI   C3A10907   8.158   9.763   6.925  0.0542  0.1763  0.1921
  731POPI   C4A10908   8.207  10.028   7.221 -0.1203  0.2616 -0.0965
  731POPI   C1B10909   7.956   9.757   5.988 -0.2098 -0.0100 -0.0907
  731POPI   C2B10910   7.714   9.532   6.295  0.2240 -0.1318 -0.0026
  731POPI   C3B10911   7.688   9.211   6.564 -0.1341 -0.1271 -0.1967
  731POPI   C4B10912   8.012   8.949   6.623 -0.1444 -0.0995  0.2810
  732POPI    C110913   6.945   9.233   4.875 -0.0835  0.0740 -0.1681
  732POPI    C210914   6.738   9.572   4.827  0.0659  0.2053  0.0920
  732POPI    C310915   7.129   9.563   4.743  0.0627  0.0973  0.0876
  732POPI   PO410916   6.903   9.109   5.152  0.1845 -0.0617  0.0493
  732POPI   GL110917   7.103   9.188   5.538 -0.0624 -0.2527  0.4930
  732POPI   GL210918   7.393   9.137   5.675 -0.0490 -0.0009  0.5223
  732POPI   C1A10919   7.146   9.154   6.065 -0.1261 -0.0484 -0.3170
  732POPI   D2A10920   7.287   9.455   6.468  0.0361  0.0477 -0.2738
  732POPI   C3A10921   7.368   9.448   6.953 -0.3105  0.3733  0.1157
  732POPI   C4A10922   7.608   9.342   7.227 -0.0049 -0.0817 -0.0041
  732POPI   C1B10923   7.788   9.169   5.965  0.0712  0.0225 -0.1162
  732POPI   C2B10924   8.114   8.936   6.071 -0.1363  0.1762 -0.1326
  732POPI   C3B10925   8.489   8.739   6.026  0.2689 -0.3862  0.0870
  732POPI   C4B10926   8.829   8.531   5.987  0.0314 -0.0496 -0.0471
  733POPI    C110927   9.343  11.360   5.262 -0.4668  0.1179  0.0270
  733POPI    C210928   9.532  11.686   5.127 -0.1690 -0.0231  0.0933
  733POPI    C310929   9.395  11.413   4.869 -0.0363 -0.0544  0.0555
  733POPI   PO410930   9.476  11.269   5.440  0.0937  0.1215 -0.0676
  733POPI   GL110931   9.666  11.070   5.889 -0.1482 -0.1952  0.4421
  733POPI   GL210932   9.465  11.247   5.951 -0.0015  0.0646  0.0709
  733POPI   C1A10933   9.901  10.944   6.409 -0.1478 -0.1229  0.0579
  733POPI   D2A10934  10.182  10.743   6.696 -0.0739  0.4932 -0.0779
  733POPI   C3A10935  10.326  10.822   7.179  0.2070  0.0822  0.0980
  733POPI   C4A10936  10.670  10.650   7.510 -0.0007  0.0523 -0.2006
  733POPI   C1B10937   9.386  11.147   6.449 -0.0293 -0.1150  0.0172
  733POPI   C2B10938   9.507  11.265   6.849  0.0882  0.1412  0.2511
  733POPI   C3B10939   9.406  11.073   7.142 -0.0926  0.1761  0.2056
  733POPI   C4B10940   9.198  10.884   7.475  0.2359  0.0086  0.0155
  734POPI    C110941  15.396   3.489   5.772  0.0006 -0.2189 -0.0228
  734POPI    C210942  15.334   3.107   5.673 -0.0613 -0.1194 -0.3791
  734POPI    C310943  15.696   3.269   5.623  0.1366 -0.2993  0.3578
  734POPI   PO410944  15.354   3.491   6.085 -0.0193  0.1719  0.2176
  734POPI   GL110945  15.124   3.696   6.436 -0.0393 -0.0340 -0.0036
  734POPI   GL210946  14.927   3.439   6.391 -0.0048 -0.0191 -0.2486
  734POPI   C1A10947  15.334   3.843   6.742 -0.0546 -0.0493  0.0740
  734POPI   D2A10948  15.441   3.731   7.097 -0.2755 -0.0247 -0.0399
  734POPI   C3A10949  15.327   3.648   7.455  0.1227  0.0228  0.0110
  734POPI   C4A10950  15.218   3.742   7.839  0.0123  0.0460 -0.1274
  734POPI   C1B10951  14.994   3.353   6.866  0.2642  0.2102  0.1362
  734POPI   C2B10952  14.958   3.416   7.213 -0.0885 -0.2331 -0.1672
  734POPI   C3B10953  14.821   3.383   7.693  0.3393 -0.3765 -0.0201
  734POPI   C4B10954  14.797   3.464   8.095 -0.0712 -0.0731  0.1911
  735POPI    C110955  17.222  15.041   6.515 -0.0692 -0.1059  0.0512
  735POPI    C210956  17.273  15.373   6.297 -0.0533 -0.1345  0.0112
  735POPI    C310957  16.918  15.296   6.467 -0.1077 -0.1833 -0.1235
  735POPI   PO410958  17.343  14.810   6.336  0.0458  0.0994  0.2222
  735POPI   GL110959  17.163  14.350   6.548 -0.0269  0.1349 -0.1384
  735POPI   GL210960  17.482  14.425   6.633  0.4337 -0.2009 -0.2817
  735POPI   C1A10961  17.289  14.132   6.998  0.3812  0.0675 -0.1058
  735POPI   D2A10962  17.274  14.385   7.357 -0.2722  0.1205  0.1682
  735POPI   C3A10963  17.179  14.296   7.831 -0.0902 -0.0939 -0.1121
  735POPI   C4A10964  16.706  14.408   8.055 -0.0729  0.1600 -0.1051
  735POPI   C1B10965  17.654  14.529   7.052  0.5154  0.3755  0.0667
  735POPI   C2B10966  17.749  14.553   7.475  0.1186 -0.0977  0.0004
  735POPI   C3B10967  18.098  14.780   7.763 -0.1491 -0.3413  0.1287
  735POPI   C4B10968  18.540  14.679   8.041 -0.1015  0.4600  0.2444
  736POPI    C110969   9.655  16.080   5.747 -0.1018 -0.2098 -0.0588
  736POPI    C210970   9.922  15.915   5.500 -0.0978 -0.0745 -0.1459
  736POPI    C310971   9.539  15.944   5.390 -0.0858  0.0368 -0.1601
  736POPI   PO410972   9.733  15.894   6.074 -0.0503  0.0528 -0.0605
  736POPI   GL110973   9.738  16.132   6.425  0.1527  0.0498 -0.1543
  736POPI   GL210974   9.835  15.814   6.574 -0.1982  0.3291  0.1389
  736POPI   C1A10975  10.049  16.350   6.650  0.1046  0.0778  0.0919
  736POPI   D2A10976  10.101  16.339   7.059 -0.0611 -0.1286 -0.1076
  736POPI   C3A10977  10.108  16.633   7.312 -0.2309  0.4790  0.0429
  736POPI   C4A10978  10.103  16.683   7.684  0.1260 -0.0202  0.0530
  736POPI   C1B10979   9.760  15.996   6.932 -0.2997  0.1119 -0.0459
  736POPI   C2B10980   9.787  15.905   7.278  0.3690  0.3341  0.0257
  736POPI   C3B10981   9.685  15.863   7.704 -0.1301  0.3534 -0.0151
  736POPI   C4B10982   9.705  15.858   8.178 -0.1050 -0.0442  0.1301
  737POPI    C110983  12.694   2.798   6.206  0.3116 -0.1247 -0.1452
  737POPI    C210984  12.694   2.472   5.974  0.2706 -0.0293 -0.2810
  737POPI    C310985  12.394   2.735   5.948  0.1099 -0.1685  0.0962
  737POPI   PO410986  12.669   2.699   6.488  0.2284  0.0211 -0.1431
  737POPI   GL110987  12.649   2.670   6.980  0.2897  0.0793 -0.1076
  737POPI   GL210988  12.662   2.916   6.961  0.1658 -0.1679 -0.1403
  737POPI   C1A10989  12.978   2.550   7.266 -0.1297 -0.3266 -0.0132
  737POPI   D2A10990  13.171   2.334   7.722  0.0350 -0.0820  0.4984
  737POPI   C3A10991  13.485   2.089   7.751 -0.2971  0.1330  0.0617
  737POPI   C4A10992  13.718   1.994   7.384  0.0275 -0.0458 -0.1607
  737POPI   C1B10993  12.681   3.005   7.340  0.0396 -0.0041  0.0110
  737POPI   C2B10994  12.933   3.287   7.615 -0.0886  0.1329 -0.0715
  737POPI   C3B10995  12.875   3.671   7.909 -0.1490 -0.0873  0.1550
  737POPI   C4B10996  12.682   3.979   8.113 -0.1409  0.2221 -0.0936
  738POPI    C110997  17.598   4.992   5.784 -0.0718 -0.0879 -0.1294
  738POPI    C210998  17.783   5.345   5.752 -0.1749 -0.0097  0.1169
  738POPI    C310999  17.781   5.092   5.443  0.1451  0.0841  0.0348
  738POPI   PO411000  17.596   5.040   6.064  0.0859 -0.0493 -0.0398
  738POPI   GL111001  17.976   4.838   6.258 -0.0637  0.2353  0.1254
  738POPI   GL211002  17.749   4.924   6.580 -0.0329  0.4470  0.1561
  738POPI   C1A11003  18.229   4.850   6.623  0.0692 -0.1705 -0.1099
  738POPI   D2A11004  18.602   4.769   6.622  0.2237  0.4516  0.0720
  738POPI   C3A11005  18.728   4.720   6.994  0.3785  0.0124  0.1127
  738POPI   C4A11006  18.978   4.855   7.396 -0.3598 -0.3674  0.2941
  738POPI   C1B11007  17.897   5.117   6.885  0.4016  0.0192 -0.2000
  738POPI   C2B11008  17.672   5.048   7.371 -0.2170 -0.2067  0.1058
  738POPI   C3B11009  17.427   4.677   7.581  0.2817 -0.2344  0.1110
  738POPI   C4B11010  17.199   4.633   7.965 -0.1787  0.1898  0.1600
  739POPI    C111011  11.047   0.265   6.021  0.1117  0.0754 -0.3310
  739POPI    C211012  10.847   0.610   6.061 -0.1758 -0.1445  0.2352
  739POPI    C311013  10.778   0.374   5.745 -0.3369  0.0860  0.0955
  739POPI   PO411014  11.003   0.130   6.323  0.3276 -0.0227 -0.1333
  739POPI   GL111015  10.924  -0.033   6.735  0.0422 -0.0129  0.3491
  739POPI   GL211016  10.577  -0.066   6.673  0.0339 -0.3466  0.1062
  739POPI   C1A11017  11.112  -0.038   7.174  0.3840 -0.1537  0.1899
  739POPI   D2A11018  11.435  -0.096   7.413 -0.2221  0.2268  0.0301
  739POPI   C3A11019  11.513   0.045   7.850 -0.0045  0.0709 -0.0405
  739POPI   C4A11020  11.718   0.240   8.246 -0.0402 -0.1586 -0.3652
  739POPI   C1B11021  10.526  -0.099   7.135 -0.2187  0.0885  0.0413
  739POPI   C2B11022  10.650  -0.080   7.593 -0.2381 -0.1702 -0.1117
  739POPI   C3B11023  10.749  -0.044   8.020  0.0474 -0.0656  0.2449
  739POPI   C4B11024  10.540  -0.094   8.495 -0.1676 -0.0198 -0.0700
  740POPI    C111025  10.448   8.513   5.372 -0.0580 -0.2778 -0.0450
  740POPI    C211026  10.177   8.772   5.232  0.0713 -0.0056  0.1979
  740POPI    C311027  10.341   8.503   4.986 -0.2057  0.0147 -0.0148
  740POPI   PO411028  10.298   8.380   5.547  0.2628  0.0775 -0.1599
  740POPI   GL111029  10.367   8.291   5.926  0.0818 -0.0891 -0.0594
  740POPI   GL211030  10.076   8.475   5.986 -0.0846 -0.0115 -0.4048
  740POPI   C1A11031  10.769   8.238   6.216 -0.4870 -0.0549  0.1107
  740POPI   D2A11032  11.092   8.127   6.592 -0.2288  0.0928  0.1053
  740POPI   C3A11033  11.294   7.741   6.911 -0.0844 -0.2661 -0.0250
  740POPI   C4A11034  11.345   7.415   7.238  0.1161 -0.0070 -0.1300
  740POPI   C1B11035  10.206   8.455   6.404 -0.1682 -0.2424  0.1301
  740POPI   C2B11036  10.264   8.639   6.789 -0.2258  0.1362 -0.1846
  740POPI   C3B11037  10.105   8.806   7.199 -0.2675 -0.0166  0.1365
  740POPI   C4B11038   9.973   8.638   7.546 -0.1238  0.0598 -0.1548
  741POPS   CNO11039   6.762  17.096   6.241 -0.2211  0.3722  0.0576
  741POPS   PO411040   7.090  17.172   5.854  0.1811  0.0219 -0.0315
  741POPS   GL111041   7.309  17.039   6.237 -0.1092  0.1450  0.0927
  741POPS   GL211042   7.590  17.213   6.210  0.1957  0.0790  0.0391
  741POPS   C1A11043   7.266  16.925   6.808 -0.0698  0.2493  0.0366
  741POPS   D2A11044   7.186  17.189   7.218 -0.2420  0.0548  0.1065
  741POPS   C3A11045   7.032  16.990   7.524 -0.0122  0.0154  0.0268
  741POPS   C4A11046   6.861  17.185   7.891 -0.3625  0.3330  0.0126
  741POPS   C1B11047   7.794  16.914   6.459  0.1488 -0.0834 -0.1185
  741POPS   C2B11048   7.816  16.620   6.609 -0.1261 -0.2427 -0.1306
  741POPS   C3B11049   7.793  16.655   7.020 -0.0643  0.0721  0.0252
  741POPS   C4B11050   7.923  16.326   7.354 -0.3335  0.0227  0.0795
  742POPS   CNO11051   3.336  18.159   5.932 -0.1087  0.1983  0.0210
  742POPS   PO411052   2.947  17.799   5.924  0.2448 -0.0378 -0.0282
  742POPS   GL111053   3.045  17.550   6.207 -0.2494 -0.3972 -0.1718
  742POPS   GL211054   3.371  17.595   6.316  0.0869  0.1950 -0.0079
  742POPS   C1A11055   3.064  17.562   6.710 -0.2891 -0.1817 -0.1366
  742POPS   D2A11056   3.115  17.422   7.209 -0.2557 -0.1063  0.0827
  742POPS   C3A11057   3.343  17.629   7.528 -0.0356 -0.0309 -0.0640
  742POPS   C4A11058   3.591  17.825   7.755  0.1618 -0.1170  0.1270
  742POPS   C1B11059   3.490  17.387   6.714 -0.1962  0.0953  0.1756
  742POPS   C2B11060   3.504  17.112   7.021 -0.1045  0.2273  0.0284
  742POPS   C3B11061   3.463  16.709   7.045  0.0800 -0.0709 -0.2809
  742POPS   C4B11062   3.405  16.586   7.465 -0.1435 -0.0007 -0.0597
  743POPS   CNO11063  18.032  15.020   5.668  0.0470  0.0613 -0.3584
  743POPS   PO411064  18.179  15.029   6.062  0.1436  0.0212 -0.0224
  743POPS   GL111065  18.029  14.921   6.521 -0.1041 -0.0773 -0.1559
  743POPS   GL211066  17.705  14.877   6.693  0.0765  0.3289  0.1092
  743POPS   C1A11067  18.192  15.171   6.885  0.2597  0.1062 -0.1490
  743POPS   D2A11068  18.251  15.349   7.307 -0.2329  0.0183  0.0265
  743POPS   C3A11069  17.994  15.261   7.665 -0.0154  0.2868  0.0033
  743POPS   C4A11070  18.117  15.125   8.095  0.0685 -0.0236 -0.4021
  743POPS   C1B11071  17.358  14.931   6.989 -0.0316  0.1346 -0.0143
  743POPS   C2B11072  17.017  14.695   6.971  0.0377 -0.0176 -0.2421
  743POPS   C3B11073  16.734  14.483   7.025 -0.0615 -0.0555 -0.2922
  743POPS   C4B11074  16.351  14.552   7.281 -0.0289  0.0623 -0.2058
  744POPS   CNO11075  17.852  12.591   6.072  0.0170  0.1776 -0.2425
  744POPS   PO411076  17.666  12.873   6.229  0.1396  0.0383  0.2542
  744POPS   GL111077  17.751  12.862   6.600 -0.1059  0.3814 -0.0698
  744POPS   GL211078  17.611  13.104   6.833  0.1839  0.2246 -0.3321
  744POPS   C1A11079  18.019  12.827   6.945  0.1877 -0.0043 -0.0623
  744POPS   D2A11080  17.920  12.776   7.286  0.0481  0.0481  0.0893
  744POPS   C3A11081  17.904  12.446   7.250 -0.1703 -0.0073  0.1343
  744POPS   C4A11082  18.313  12.179   7.218 -0.0422 -0.1309 -0.2260
  744POPS   C1B11083  17.559  13.136   7.211 -0.0643  0.1903 -0.0085
  744POPS   C2B11084  17.702  13.170   7.579 -0.1188  0.1497  0.0715
  744POPS   C3B11085  17.765  13.540   7.842  0.0377 -0.0374 -0.1223
  744POPS   C4B11086  18.042  13.834   8.023 -0.3514  0.2702  0.1370
  745POPS   CNO11087  16.626  10.501   5.412 -0.1709  0.0241  0.5442
  745POPS   PO411088  16.380  10.478   5.771 -0.0952 -0.1692 -0.0688
  745POPS   GL111089  16.465  10.444   6.231 -0.2533  0.0384  0.0761
  745POPS   GL211090  16.691  10.732   6.343  0.1628  0.0757  0.0966
  745POPS   C1A11091  16.366  10.128   6.501 -0.1061  0.0796  0.3690
  745POPS   D2A11092  16.457  10.004   6.889  0.2481 -0.1092  0.1983
  745POPS   C3A11093  16.552   9.948   7.331 -0.1604 -0.0554  0.0492
  745POPS   C4A11094  16.463   9.958   7.800  0.1748  0.3744  0.3262
  745POPS   C1B11095  16.453  10.556   6.703 -0.3244  0.1292  0.0531
  745POPS   C2B11096  16.265  10.534   7.067  0.1163 -0.0311 -0.1102
  745POPS   C3B11097  16.157  10.278   7.354  0.0397 -0.0903  0.1756
  745POPS   C4B11098  15.948  10.159   7.684  0.3466 -0.1389 -0.0227
  746POPS   CNO11099   2.193   7.900   5.900  0.1581 -0.0499 -0.1329
  746POPS   PO411100   2.313   7.558   5.599 -0.3414 -0.0508  0.2373
  746POPS   GL111101   2.478   7.380   5.954 -0.1468 -0.0298 -0.1475
  746POPS   GL211102   2.334   7.508   6.213 -0.2014  0.0791  0.0297
  746POPS   C1A11103   2.725   7.205   6.301 -0.1231 -0.1274 -0.1173
  746POPS   D2A11104   2.802   7.192   6.743 -0.0360 -0.3851  0.1726
  746POPS   C3A11105   2.576   6.785   6.775  0.0269 -0.2056  0.1408
  746POPS   C4A11106   2.439   6.377   6.764 -0.0584  0.1711 -0.4921
  746POPS   C1B11107   2.291   7.929   6.419 -0.0711  0.1430  0.1749
  746POPS   C2B11108   2.258   7.895   6.879  0.0348 -0.2227  0.1237
  746POPS   C3B11109   2.273   7.642   7.332  0.4134 -0.2752  0.0485
  746POPS   C4B11110   2.065   7.674   7.798  0.3998 -0.1207  0.3166
  747POPS   CNO11111   2.767  13.514   5.550 -0.0146  0.3203 -0.0759
  747POPS   PO411112   2.778  13.552   5.941 -0.0540  0.5162 -0.0827
  747POPS   GL111113   3.056  13.220   6.035 -0.0223 -0.1554 -0.2492
  747POPS   GL211114   2.902  13.190   6.315  0.0754 -0.0166 -0.0774
  747POPS   C1A11115   3.189  12.779   6.037 -0.0832 -0.0824  0.0107
  747POPS   D2A11116   3.187  12.474   6.430  0.1672  0.4406 -0.3133
  747POPS   C3A11117   3.304  12.524   6.838  0.0326 -0.2563 -0.0882
  747POPS   C4A11118   3.594  12.477   7.164  0.2380  0.7195 -0.1332
  747POPS   C1B11119   2.880  12.841   6.623 -0.0008  0.0204 -0.0726
  747POPS   C2B11120   2.930  12.741   7.075  0.0898  0.1185  0.1480
  747POPS   C3B11121   3.149  12.700   7.558  0.0709 -0.0857  0.0061
  747POPS   C4B11122   3.431  12.353   7.721  0.1823 -0.0501  0.0760
  748POPS   CNO11123  12.902   4.026   5.683  0.5217 -0.0349 -0.1263
  748POPS   PO411124  12.813   4.341   5.923  0.1220 -0.4133 -0.3838
  748POPS   GL111125  13.114   4.270   6.183 -0.0757  0.2875  0.1496
  748POPS   GL211126  12.933   4.121   6.411  0.2573  0.1605 -0.0965
  748POPS   C1A11127  13.524   4.274   6.414 -0.2275  0.2278  0.4192
  748POPS   D2A11128  13.826   4.490   6.566 -0.0465 -0.0285  0.1611
  748POPS   C3A11129  14.066   4.487   6.903 -0.2707 -0.1413 -0.0813
  748POPS   C4A11130  14.182   4.745   7.319  0.0628 -0.0900 -0.0005
  748POPS   C1B11131  13.149   4.346   6.699 -0.0918  0.3725 -0.1208
  748POPS   C2B11132  13.474   4.641   6.868  0.1551  0.0456  0.0017
  748POPS   C3B11133  13.654   4.532   7.202 -0.4891  0.0087  0.0037
  748POPS   C4B11134  13.637   4.128   7.524  0.0036  0.4060  0.2283
  749POPS   CNO11135   0.073  12.552   5.706 -0.3295  0.2188  0.1991
  749POPS   PO411136   0.232  12.372   6.088 -0.2014 -0.0997  0.0130
  749POPS   GL111137   0.468  12.568   6.364 -0.2356 -0.0300  0.1079
  749POPS   GL211138   0.754  12.330   6.446  0.0249  0.0744 -0.2028
  749POPS   C1A11139   0.554  12.878   6.624 -0.0015 -0.1442 -0.0089
  749POPS   D2A11140   0.774  13.246   6.634  0.0277  0.1251  0.1394
  749POPS   C3A11141   0.797  13.539   7.058  0.0920  0.4010 -0.2263
  749POPS   C4A11142   1.170  13.622   7.358 -0.0611 -0.0348  0.0611
  749POPS   C1B11143   0.788  12.267   6.789  0.1068  0.0891  0.0458
  749POPS   C2B11144   0.704  12.343   7.285 -0.0874  0.2974  0.3845
  749POPS   C3B11145   0.730  12.493   7.676 -0.1304  0.1003 -0.2614
  749POPS   C4B11146   0.612  12.490   8.129  0.0435  0.0143  0.1343
  750POPS   CNO11147   1.516  11.981   6.027 -0.1920 -0.0218  0.2377
  750POPS   PO411148   1.210  12.085   6.168 -0.0801 -0.3750 -0.2224
  750POPS   GL111149   1.273  11.898   6.536 -0.2652 -0.1237  0.0978
  750POPS   GL211150   1.622  11.683   6.479  0.5306 -0.0298  0.2131
  750POPS   C1A11151   1.289  11.732   6.887  0.0017  0.0118  0.0372
  750POPS   D2A11152   1.441  11.416   7.012 -0.1107 -0.1747 -0.1804
  750POPS   C3A11153   1.776  11.249   7.258 -0.3755 -0.0344 -0.0187
  750POPS   C4A11154   1.717  11.173   7.715  0.3159 -0.2190  0.1803
  750POPS   C1B11155   1.780  11.721   6.758 -0.0111  0.1081  0.2869
  750POPS   C2B11156   1.775  11.735   7.164 -0.3541 -0.2999 -0.1209
  750POPS   C3B11157   1.799  11.847   7.632  0.1510 -0.1959  0.2975
  750POPS   C4B11158   1.947  11.666   7.979 -0.2704  0.0478 -0.1697
  751POPS   CNO11159   3.724  14.218   5.679  0.2799 -0.3542 -0.3389
  751POPS   PO411160   3.916  14.430   6.061 -0.0036  0.1399 -0.0305
  751POPS   GL111161   3.825  14.360   6.444 -0.3470 -0.1904 -0.1628
  751POPS   GL211162   3.674  14.580   6.720 -0.1578 -0.2709  0.2450
  751POPS   C1A11163   3.858  14.126   6.856  0.0320 -0.1396  0.1208
  751POPS   D2A11164   3.803  14.100   7.391  0.1540 -0.0510  0.2667
  751POPS   C3A11165   3.971  13.845   7.793 -0.1852  0.0129  0.3509
  751POPS   C4A11166   4.163  13.697   8.027 -0.2317  0.0539 -0.2522
  751POPS   C1B11167   3.547  14.437   7.119 -0.3297 -0.1285  0.0771
  751POPS   C2B11168   3.313  14.273   7.400 -0.1092  0.1666 -0.2829
  751POPS   C3B11169   3.452  13.960   7.686 -0.0807 -0.0749  0.1463
  751POPS   C4B11170   3.556  13.691   8.039 -0.3116  0.3420 -0.2840
  752POPS   CNO11171  17.283   5.424   5.747 -0.1963  0.2943 -0.2536
  752POPS   PO411172  17.095   5.778   5.834 -0.0884 -0.0614 -0.0574
  752POPS   GL111173  17.043   5.880   6.218 -0.1185  0.0504  0.0008
  752POPS   GL211174  16.958   6.182   6.396  0.2799 -0.0251 -0.1907
  752POPS   C1A11175  17.126   5.729   6.591  0.0669  0.0201  0.2432
  752POPS   D2A11176  16.913   5.860   6.963  0.1416 -0.0419  0.2695
  752POPS   C3A11177  17.058   6.090   7.417  0.1088  0.1821  0.0345
  752POPS   C4A11178  16.993   6.376   7.800  0.1468 -0.0494 -0.1947
  752POPS   C1B11179  16.753   6.313   6.705  0.2285 -0.0297 -0.2385
  752POPS   C2B11180  16.800   6.603   7.019  0.0048 -0.0961  0.0985
  752POPS   C3B11181  16.659   6.853   7.318 -0.4705 -0.0596  0.1856
  752POPS   C4B11182  16.623   7.311   7.378  0.0173 -0.0154  0.0077
  753POPS   CNO11183   4.574  15.516   6.442 -0.4238  0.0305 -0.0037
  753POPS   PO411184   4.179  15.311   6.391 -0.2670 -0.1858  0.0173
  753POPS   GL111185   4.200  14.954   6.556  0.3691 -0.1316  0.0056
  753POPS   GL211186   4.014  15.068   6.761  0.0323 -0.0490 -0.2630
  753POPS   C1A11187   4.230  14.623   6.822 -0.0015  0.0079 -0.2103
  753POPS   D2A11188   4.105  14.450   7.211 -0.0786 -0.0308 -0.1872
  753POPS   C3A11189   4.295  14.183   7.564  0.0021  0.0094 -0.2248
  753POPS   C4A11190   4.399  14.202   7.964 -0.3811  0.4560  0.1652
  753POPS   C1B11191   3.852  14.870   7.269 -0.1236  0.4718 -0.0636
  753POPS   C2B11192   3.727  14.550   7.560 -0.1185  0.0945 -0.0328
  753POPS   C3B11193   3.850  14.410   7.947 -0.2138 -0.1939 -0.2667
  753POPS   C4B11194   3.959  14.165   8.253 -0.1229 -0.0062  0.4128
  754POPS   CNO11195  17.436   0.354   5.606  0.1834 -0.0989 -0.0783
  754POPS   PO411196  17.447   0.682   5.952  0.1335 -0.0153  0.1278
  754POPS   GL111197  17.526   0.724   6.496  0.0517 -0.0713  0.3315
  754POPS   GL211198  17.779   0.765   6.660 -0.2421 -0.0294  0.2574
  754POPS   C1A11199  17.375   0.762   6.948 -0.2620 -0.1454 -0.1847
  754POPS   D2A11200  17.393   0.820   7.362 -0.0983 -0.3538  0.3343
  754POPS   C3A11201  17.442   1.149   7.600 -0.2393  0.0197 -0.0784
  754POPS   C4A11202  17.378   1.244   8.003  0.2141 -0.2074  0.0140
  754POPS   C1B11203  17.842   0.782   7.107 -0.0139 -0.1313  0.2547
  754POPS   C2B11204  17.915   0.850   7.542 -0.0098  0.1087 -0.2960
  754POPS   C3B11205  17.960   1.083   7.945 -0.0181 -0.3088 -0.1292
  754POPS   C4B11206  18.012   1.160   8.433  0.1102 -0.0003 -0.3101
  755POPS   CNO11207   0.612   8.218   5.850 -0.0296 -0.2985  0.2373
  755POPS   PO411208   0.946   8.465   6.002 -0.0764 -0.2357 -0.2348
  755POPS   GL111209   0.988   8.240   6.510 -0.3115  0.2303 -0.1151
  755POPS   GL211210   1.189   8.556   6.521 -0.0387 -0.3841 -0.0109
  755POPS   C1A11211   0.866   8.203   6.949 -0.3849 -0.2703  0.0777
  755POPS   D2A11212   0.880   8.145   7.360 -0.3071  0.0694  0.1061
  755POPS   C3A11213   0.580   8.194   7.578 -0.1657 -0.1322 -0.1380
  755POPS   C4A11214   0.285   8.251   7.799  0.0311 -0.0577  0.0059
  755POPS   C1B11215   1.422   8.883   6.737 -0.2452 -0.2704 -0.0773
  755POPS   C2B11216   1.539   9.105   7.053 -0.1593 -0.0975  0.0476
  755POPS   C3B11217   1.443   9.057   7.476 -0.0851 -0.0266 -0.0772
  755POPS   C4B11218   1.572   8.699   7.800 -0.2012 -0.0889  0.0232
  756POPS   CNO11219   3.674  17.231   6.134  0.0688  0.3401 -0.0770
  756POPS   PO411220   3.242  17.137   6.038 -0.1596 -0.0955  0.0117
  756POPS   GL111221   3.027  17.082   6.456  0.2911 -0.0662 -0.0929
  756POPS   GL211222   2.702  17.210   6.415 -0.0222 -0.2992  0.0453
  756POPS   C1A11223   3.062  17.046   6.925  0.0948 -0.0574  0.1807
  756POPS   D2A11224   3.079  16.898   7.296 -0.0774 -0.1005 -0.1989
  756POPS   C3A11225   3.320  17.100   7.613  0.2489 -0.1190  0.0495
  756POPS   C4A11226   3.523  17.295   7.923  0.2351 -0.0333  0.0541
  756POPS   C1B11227   2.662  17.312   6.863  0.1148  0.2433  0.0749
  756POPS   C2B11228   2.660  17.278   7.231 -0.1657  0.2515  0.1359
  756POPS   C3B11229   2.867  17.233   7.652 -0.2138  0.0352  0.2841
  756POPS   C4B11230   3.011  17.515   7.910  0.0203  0.2617  0.1442
  757POPS   CNO11231   0.596  16.978   6.216  0.3648 -0.3069 -0.1862
  757POPS   PO411232   0.276  16.749   6.072  0.3489 -0.0871 -0.0382
  757POPS   GL111233   0.391  16.593   6.540  0.1056 -0.0762 -0.0854
  757POPS   GL211234   0.622  16.805   6.713  0.0469 -0.1457 -0.2521
  757POPS   C1A11235   0.249  16.644   6.939  0.3002  0.3029  0.1136
  757POPS   D2A11236   0.220  16.857   7.302  0.1417  0.0892  0.0013
  757POPS   C3A11237   0.298  16.788   7.793 -0.2348 -0.2355 -0.0585
  757POPS   C4A11238   0.615  16.922   8.136  0.1856 -0.1530  0.3715
  757POPS   C1B11239   0.448  17.172   6.811  0.1784  0.1713 -0.2106
  757POPS   C2B11240   0.383  17.520   6.850 -0.0205 -0.0873  0.3096
  757POPS   C3B11241   0.680  17.899   6.942  0.1271 -0.0415 -0.0131
  757POPS   C4B11242   0.940  17.915   7.358  0.0744  0.2130  0.0518
  758POPS   CNO11243  14.481   2.941   5.922  0.1342  0.1545 -0.1007
  758POPS   PO411244  14.521   3.306   5.793  0.1490  0.0001  0.2301
  758POPS   GL111245  14.488   3.351   6.253 -0.2555  0.2074  0.0556
  758POPS   GL211246  14.422   3.057   6.498  0.2009 -0.1571 -0.0602
  758POPS   C1A11247  14.507   3.533   6.606 -0.0789 -0.0080 -0.0592
  758POPS   D2A11248  14.413   3.570   6.982 -0.0581  0.1271 -0.0834
  758POPS   C3A11249  14.573   3.770   7.378  0.2468  0.3877 -0.1264
  758POPS   C4A11250  14.753   3.938   7.624 -0.3116  0.0040 -0.0393
  758POPS   C1B11251  14.579   2.863   6.895  0.0118  0.1601  0.1693
  758POPS   C2B11252  14.592   3.045   7.245 -0.0290  0.1315 -0.1535
  758POPS   C3B11253  14.310   3.331   7.455  0.0573  0.1470  0.2217
  758POPS   C4B11254  14.342   3.601   7.780  0.3416 -0.2066  0.0873
  759POPS   CNO11255   5.256   7.845   5.822 -0.0444 -0.1731 -0.0117
  759POPS   PO411256   4.837   7.772   5.618  0.0962  0.1267  0.1725
  759POPS   GL111257   4.672   8.070   5.891  0.2327  0.2623  0.0398
  759POPS   GL211258   4.963   8.246   6.048 -0.1140 -0.1639 -0.0334
  759POPS   C1A11259   4.425   8.356   6.197 -0.1698 -0.0531 -0.0406
  759POPS   D2A11260   4.178   8.604   6.431  0.1156  0.1378 -0.1352
  759POPS   C3A11261   4.107   8.421   6.872  0.0594 -0.2700  0.1127
  759POPS   C4A11262   3.879   8.225   7.156  0.0601 -0.1855 -0.1631
  759POPS   C1B11263   5.231   8.357   6.440  0.0234  0.0875  0.1385
  759POPS   C2B11264   5.546   8.444   6.749 -0.0707  0.1832 -0.3918
  759POPS   C3B11265   5.711   8.338   7.168  0.3690  0.1463 -0.0395
  759POPS   C4B11266   5.875   8.557   7.533 -0.0819 -0.0048  0.1418
  760POPS   CNO11267  14.957  16.948   6.697 -0.3560 -0.3429 -0.0057
  760POPS   PO411268  15.146  16.918   6.334  0.0176 -0.1874 -0.1758
  760POPS   GL111269  15.568  16.842   6.578  0.1790 -0.3298  0.0734
  760POPS   GL211270  15.537  16.706   6.863  0.1209 -0.0064 -0.0449
  760POPS   C1A11271  15.670  17.163   6.922 -0.0640 -0.2472 -0.2654
  760POPS   D2A11272  15.813  17.064   7.352  0.0171  0.2785  0.0591
  760POPS   C3A11273  15.670  16.737   7.618 -0.1915 -0.1546  0.1976
  760POPS   C4A11274  15.983  16.572   7.841 -0.2266 -0.0325 -0.2843
  760POPS   C1B11275  15.338  16.734   7.254 -0.3829  0.0348 -0.1376
  760POPS   C2B11276  15.237  16.670   7.798  0.2031  0.0974 -0.1623
  760POPS   C3B11277  15.203  16.666   8.271  0.2811  0.0130 -0.1338
  760POPS   C4B11278  15.470  16.820   8.610 -0.2448 -0.1697  0.0696
  761POPS   CNO11279  14.155  14.869   6.363  0.3892 -0.1619 -0.1483
  761POPS   PO411280  14.344  14.728   6.773  0.3053 -0.0925  0.0619
  761POPS   GL111281  14.171  14.891   7.171 -0.3060 -0.2047 -0.0981
  761POPS   GL211282  13.848  14.991   7.163 -0.0530 -0.1966 -0.1911
  761POPS   C1A11283  14.239  15.106   7.499 -0.2032 -0.0898  0.0257
  761POPS   D2A11284  14.444  14.919   7.945  0.0139 -0.2009  0.1243
  761POPS   C3A11285  14.058  14.860   8.112  0.0182  0.0459 -0.0880
  761POPS   C4A11286  13.679  14.846   7.956 -0.0468 -0.2472  0.1794
  761POPS   C1B11287  13.763  15.149   7.523 -0.0099 -0.1379 -0.1832
  761POPS   C2B11288  13.913  15.297   7.909 -0.0847 -0.0355 -0.0562
  761POPS   C3B11289  13.900  15.422   8.275 -0.1658 -0.1984  0.0592
  761POPS   C4B11290  14.118  15.622   8.607  0.1278  0.2630  0.0438
  762POPS   CNO11291  13.971   5.602   5.068  0.0180  0.6543 -0.0364
  762POPS   PO411292  13.744   5.661   5.370  0.2290  0.1033 -0.3746
  762POPS   GL111293  13.959   5.922   5.834  0.1268  0.1875 -0.0929
  762POPS   GL211294  14.016   5.600   6.105 -0.0729  0.1306  0.2069
  762POPS   C1A11295  14.226   6.121   6.101  0.0857  0.0816  0.0171
  762POPS   D2A11296  14.318   6.587   6.247 -0.0859  0.0361  0.0308
  762POPS   C3A11297  14.632   6.614   6.621  0.1716 -0.0217  0.2903
  762POPS   C4A11298  14.712   6.311   6.976 -0.0822  0.0137 -0.0652
  762POPS   C1B11299  14.093   5.824   6.573  0.2497  0.3349 -0.0008
  762POPS   C2B11300  14.162   6.183   6.858 -0.2383  0.0473  0.4173
  762POPS   C3B11301  14.271   6.612   7.032 -0.1392 -0.1972  0.1656
  762POPS   C4B11302  14.630   6.771   7.148  0.3939  0.0238  0.0902
  763POPS   CNO11303  17.579  17.657   6.550 -0.0225 -0.0968  0.0515
  763POPS   PO411304  17.367  18.060   6.338 -0.0075 -0.2950  0.0243
  763POPS   GL111305  17.250  18.079   6.722 -0.4698  0.1611 -0.0022
  763POPS   GL211306  17.069  18.310   6.908  0.1241  0.1862  0.1069
  763POPS   C1A11307  17.351  17.907   7.094 -0.2466 -0.2463  0.3775
  763POPS   D2A11308  17.385  17.856   7.605 -0.1398  0.2056 -0.2003
  763POPS   C3A11309  17.170  17.446   7.806  0.0854  0.0796 -0.1602
  763POPS   C4A11310  17.153  17.034   8.029 -0.1651 -0.1220  0.2421
  763POPS   C1B11311  17.153  18.273   7.421  0.1844 -0.0328  0.3262
  763POPS   C2B11312  17.148  18.220   7.840 -0.1776  0.0692 -0.0033
  763POPS   C3B11313  17.243  18.456   8.308  0.3356 -0.3338  0.1960
  763POPS   C4B11314  17.510  18.333   8.561 -0.1285 -0.1726  0.1046
  764POPS   CNO11315   6.223  17.005   6.071  0.2161 -0.0184  0.2192
  764POPS   PO411316   5.957  16.631   6.222 -0.1750  0.0327 -0.0110
  764POPS   GL111317   5.809  16.404   6.578 -0.0713 -0.0549 -0.1078
  764POPS   GL211318   6.022  16.224   6.478 -0.0190  0.2193  0.0246
  764POPS   C1A11319   5.585  16.212   6.904 -0.0419 -0.3149 -0.0564
  764POPS   D2A11320   5.274  15.990   7.055 -0.2933 -0.2178  0.0554
  764POPS   C3A11321   5.070  15.678   7.305 -0.0080 -0.0987  0.0601
  764POPS   C4A11322   5.086  15.300   7.457 -0.0295  0.1803 -0.1027
  764POPS   C1B11323   6.265  15.855   6.691 -0.3381  0.1963  0.0583
  764POPS   C2B11324   6.203  15.553   7.072 -0.1826 -0.1138 -0.1282
  764POPS   C3B11325   5.889  15.437   7.277  0.0234 -0.0723  0.1182
  764POPS   C4B11326   5.561  15.507   7.599  0.1486 -0.1921 -0.0346
  765POPS   CNO11327  11.143  17.365   6.181  0.3891 -0.2277  0.0314
  765POPS   PO411328  11.233  16.994   6.364  0.0723 -0.1113 -0.1015
  765POPS   GL111329  11.046  17.163   6.786  0.3738 -0.3334  0.2310
  765POPS   GL211330  11.037  17.525   6.641  0.0968  0.0444  0.3642
  765POPS   C1A11331  10.803  17.220   7.005  0.3049  0.1315  0.1820
  765POPS   D2A11332  10.811  17.289   7.473  0.0512 -0.1712  0.1800
  765POPS   C3A11333  11.041  17.122   7.803  0.1037 -0.4612 -0.0367
  765POPS   C4A11334  11.011  16.956   8.249  0.2208  0.2639  0.1239
  765POPS   C1B11335  11.053  17.677   6.992 -0.0255 -0.0473  0.1347
  765POPS   C2B11336  11.023  17.762   7.458 -0.0833  0.3902 -0.3126
  765POPS   C3B11337  11.201  17.857   7.883 -0.3529 -0.1345  0.2559
  765POPS   C4B11338  11.180  17.990   8.339 -0.0362  0.0621  0.0177
  766POPS   CNO11339   1.968  15.737   6.001 -0.0200  0.2017 -0.3089
  766POPS   PO411340   1.617  15.409   5.876  0.1018 -0.0179 -0.0935
  766POPS   GL111341   1.516  15.435   6.292 -0.1431 -0.2206  0.0289
  766POPS   GL211342   1.277  15.530   6.460  0.0793  0.0589  0.4406
  766POPS   C1A11343   1.560  15.228   6.736 -0.1942  0.0035  0.0175
  766POPS   D2A11344   1.468  15.048   7.132 -0.0360 -0.0082 -0.0941
  766POPS   C3A11345   1.526  15.313   7.460  0.0597  0.1366  0.1750
  766POPS   C4A11346   1.306  15.542   7.782  0.0505  0.0992  0.0202
  766POPS   C1B11347   1.094  15.469   6.899  0.0394 -0.0466  0.1351
  766POPS   C2B11348   1.274  15.663   7.270 -0.0071 -0.0785 -0.0313
  766POPS   C3B11349   1.148  15.912   7.480 -0.2048 -0.0155 -0.0194
  766POPS   C4B11350   0.848  16.144   7.689  0.1254  0.3895  0.1345
  767POPS   CNO11351   9.598   1.816   6.266 -0.0930 -0.0987 -0.0984
  767POPS   PO411352   9.879   1.487   6.302  0.0031  0.3591  0.2120
  767POPS   GL111353   9.472   1.529   6.644  0.1352  0.1284 -0.2896
  767POPS   GL211354   9.194   1.554   6.442 -0.0039  0.2071  0.2231
  767POPS   C1A11355   9.322   1.801   7.109  0.1237 -0.0451  0.1128
  767POPS   D2A11356   9.341   2.027   7.443  0.0128  0.2349  0.0649
  767POPS   C3A11357   9.114   2.371   7.510 -0.2784 -0.1261 -0.3168
  767POPS   C4A11358   9.223   2.640   7.931 -0.1471 -0.0576  0.3766
  767POPS   C1B11359   9.033   1.407   6.866  0.0363 -0.0093  0.2688
  767POPS   C2B11360   8.871   1.337   7.220 -0.3121 -0.1972 -0.1286
  767POPS   C3B11361   8.895   1.329   7.689 -0.1629 -0.1105 -0.2385
  767POPS   C4B11362   8.761   1.396   8.051 -0.1500 -0.1011 -0.1413
  768POPS   CNO11363   9.142   6.789   5.850 -0.2507 -0.0569 -0.1456
  768POPS   PO411364   8.950   7.087   5.579 -0.3623  0.0669 -0.0464
  768POPS   GL111365   8.880   7.240   5.964 -0.0146  0.0579 -0.0033
  768POPS   GL211366   9.135   7.247   6.082 -0.1464  0.0608 -0.0556
  768POPS   C1A11367   8.661   7.463   6.338  0.1846 -0.1979  0.4442
  768POPS   D2A11368   8.672   7.278   6.753 -0.6198  0.1345 -0.0024
  768POPS   C3A11369   8.819   7.268   7.250  0.0795 -0.0689  0.0276
  768POPS   C4A11370   8.949   7.510   7.562  0.1224  0.0060 -0.1093
  768POPS   C1B11371   9.172   7.220   6.576  0.5261 -0.1272  0.0713
  768POPS   C2B11372   9.100   7.572   6.944 -0.0888  0.1163  0.2926
  768POPS   C3B11373   8.798   7.808   7.223  0.1201 -0.0525  0.2289
  768POPS   C4B11374   8.608   7.921   7.611 -0.0025 -0.0758 -0.0794
  769POPS   CNO11375  15.400   6.762   5.636 -0.1862 -0.0748 -0.2322
  769POPS   PO411376  15.367   7.156   5.643 -0.2148 -0.1001 -0.0650
  769POPS   GL111377  15.340   7.044   6.097 -0.0327 -0.1087 -0.1608
  769POPS   GL211378  15.282   7.314   6.108  0.2268 -0.0805  0.2996
  769POPS   C1A11379  15.454   6.949   6.563  0.1516  0.0443  0.0689
  769POPS   D2A11380  15.583   6.942   6.980  0.1666 -0.1174 -0.0759
  769POPS   C3A11381  15.506   6.534   7.184  0.1038  0.2943  0.0857
  769POPS   C4A11382  15.381   6.406   7.588 -0.1288 -0.0058 -0.3374
  769POPS   C1B11383  15.289   7.417   6.487  0.0753  0.0992  0.1309
  769POPS   C2B11384  15.215   7.709   6.899 -0.0180  0.0494 -0.5586
  769POPS   C3B11385  15.017   7.693   7.276 -0.0899  0.0943 -0.0126
  769POPS   C4B11386  14.825   7.706   7.555 -0.1475  0.1059 -0.1420
  770POPS   CNO11387   8.258   1.214   6.360  0.0715 -0.0994  0.0598
  770POPS   PO411388   8.327   1.620   6.142 -0.0571  0.3240 -0.3135
  770POPS   GL111389   8.350   1.686   6.676  0.1361  0.1382  0.0587
  770POPS   GL211390   8.391   1.456   6.927  0.2557 -0.0484 -0.2324
  770POPS   C1A11391   8.288   1.986   6.993 -0.1669 -0.2250 -0.0691
  770POPS   D2A11392   8.292   2.008   7.393 -0.0373  0.0798  0.0157
  770POPS   C3A11393   8.517   2.353   7.592 -0.0187  0.3201  0.3009
  770POPS   C4A11394   8.661   2.717   7.853 -0.3431  0.1404  0.1413
  770POPS   C1B11395   8.417   1.490   7.397  0.1498 -0.0031 -0.1049
  770POPS   C2B11396   8.385   1.244   7.740 -0.0775 -0.1537 -0.1174
  770POPS   C3B11397   8.279   1.398   8.198  0.0019 -0.1782 -0.1207
  770POPS   C4B11398   7.807   1.336   8.424 -0.2091  0.1232  0.0560
  771POPS   CNO11399   9.443   0.626   6.302 -0.2228 -0.0626 -0.5194
  771POPS   PO411400   9.090   0.778   6.249 -0.1359 -0.0505 -0.1671
  771POPS   GL111401   9.146   0.842   6.705 -0.2224  0.0052  0.0236
  771POPS   GL211402   9.431   1.041   6.774 -0.1516 -0.0054  0.1520
  771POPS   C1A11403   9.067   0.897   7.206  0.1038  0.2458 -0.1084
  771POPS   D2A11404   9.276   0.964   7.581  0.2289  0.0107  0.2116
  771POPS   C3A11405   9.425   0.772   7.966  0.0966  0.0130  0.2287
  771POPS   C4A11406   9.164   0.488   8.250 -0.0480 -0.0036  0.0928
  771POPS   C1B11407   9.455   1.293   7.154  0.0497 -0.0521  0.2619
  771POPS   C2B11408   9.354   1.508   7.534 -0.2575 -0.1726  0.3049
  771POPS   C3B11409   9.208   1.732   7.840  0.1582 -0.2793  0.1572
  771POPS   C4B11410   8.982   2.090   7.947 -0.1515  0.1499  0.2874
  772POPS   CNO11411   8.564  11.927   5.397  0.1010 -0.0939 -0.0935
  772POPS   PO411412   8.347  12.307   5.626  0.1616 -0.1524 -0.1334
  772POPS   GL111413   8.259  12.192   6.027 -0.2097 -0.1140 -0.0070
  772POPS   GL211414   8.470  11.986   6.198  0.0947 -0.1866  0.1562
  772POPS   C1A11415   8.180  12.503   6.410  0.1031  0.2808 -0.1615
  772POPS   D2A11416   8.014  12.404   6.826 -0.4570 -0.1099 -0.0643
  772POPS   C3A11417   8.143  12.470   7.227  0.0729  0.0726 -0.5490
  772POPS   C4A11418   8.253  12.523   7.634  0.0939 -0.0974  0.3482
  772POPS   C1B11419   8.326  11.952   6.581 -0.0160  0.3315  0.0340
  772POPS   C2B11420   8.281  11.961   7.016  0.1616  0.1823 -0.3261
  772POPS   C3B11421   8.223  12.016   7.500 -0.0427 -0.0572 -0.1332
  772POPS   C4B11422   8.126  11.919   7.930  0.0111  0.0517 -0.0622
  773POPS   CNO11423   0.356   6.617   5.643  0.2132 -0.0488  0.0664
  773POPS   PO411424   0.582   6.887   5.355  0.2265 -0.1332  0.3695
  773POPS   GL111425   0.497   7.066   5.771 -0.2201  0.1437 -0.3642
  773POPS   GL211426   0.205   7.007   5.972 -0.1919  0.2487  0.0098
  773POPS   C1A11427   0.535   7.332   6.109 -0.1442 -0.3317 -0.1375
  773POPS   D2A11428   0.851   7.480   6.323 -0.1545 -0.1439 -0.0272
  773POPS   C3A11429   1.240   7.314   6.526 -0.0243 -0.0416 -0.1791
  773POPS   C4A11430   1.188   7.302   6.998  0.0063 -0.0109 -0.5559
  773POPS   C1B11431   0.696   6.907   6.330  0.0472 -0.1275 -0.2727
  773POPS   C2B11432   0.929   6.813   6.604  0.1650 -0.3501 -0.1757
  773POPS   C3B11433   1.039   6.844   7.059 -0.0859 -0.0387 -0.1595
  773POPS   C4B11434   1.258   6.982   7.437 -0.3938  0.0886  0.4675
  774POPS   CNO11435  17.910  12.203   5.751  0.0569  0.0206  0.0609
  774POPS   PO411436  17.613  12.107   6.031 -0.3231 -0.0427  0.1227
  774POPS   GL111437  17.535  12.239   6.426 -0.4870  0.1122 -0.1967
  774POPS   GL211438  17.614  11.899   6.508 -0.0047  0.0921  0.5057
  774POPS   C1A11439  17.696  12.375   6.780 -0.0747 -0.2626  0.1801
  774POPS   D2A11440  17.964  12.065   6.871  0.0887 -0.1234 -0.0451
  774POPS   C3A11441  17.987  11.881   7.283  0.1451  0.0491 -0.0008
  774POPS   C4A11442  18.139  11.972   7.769  0.1640 -0.3218  0.3652
  774POPS   C1B11443  17.587  11.705   6.940  0.0364 -0.1313  0.3783
  774POPS   C2B11444  17.717  11.482   7.285 -0.0091  0.2591 -0.2461
  774POPS   C3B11445  17.866  11.552   7.616 -0.0447  0.0327  0.0806
  774POPS   C4B11446  17.743  11.463   8.022  0.1236 -0.0900 -0.0532
  775POPS   CNO11447   6.497  14.273   5.796 -0.0506  0.0187 -0.1503
  775POPS   PO411448   6.242  14.244   6.116  0.1506  0.1344 -0.0204
  775POPS   GL111449   6.527  14.117   6.322  0.0521 -0.0633  0.1184
  775POPS   GL211450   6.855  14.327   6.490 -0.0402 -0.1002 -0.0219
  775POPS   C1A11451   6.647  13.720   6.466  0.2182  0.1880  0.1379
  775POPS   D2A11452   6.599  13.613   6.842  0.4067 -0.1513 -0.2162
  775POPS   C3A11453   6.599  13.226   7.172 -0.1560 -0.0934  0.3207
  775POPS   C4A11454   6.889  12.945   7.438 -0.1120 -0.1002 -0.0180
  775POPS   C1B11455   6.674  14.192   6.812  0.4210  0.1403 -0.1105
  775POPS   C2B11456   6.533  14.073   7.158  0.1582  0.2315 -0.1464
  775POPS   C3B11457   6.296  13.987   7.527 -0.0359 -0.1219  0.1026
  775POPS   C4B11458   6.238  13.840   7.982  0.0512  0.4189 -0.0096
  776POPS   CNO11459   1.513   0.327   6.364  0.1741  0.2773 -0.3285
  776POPS   PO411460   1.638  -0.127   6.254  0.2013 -0.2589  0.1245
  776POPS   GL111461   2.105  -0.023   6.487 -0.1037  0.0407 -0.0965
  776POPS   GL211462   2.093  -0.394   6.606 -0.0206 -0.1275  0.1175
  776POPS   C1A11463   2.413   0.136   6.759  0.1925 -0.0039  0.2170
  776POPS   D2A11464   2.667   0.266   7.060 -0.1554  0.0098  0.0104
  776POPS   C3A11465   2.790   0.185   7.502 -0.0913 -0.2495  0.2123
  776POPS   C4A11466   2.914   0.318   7.939  0.0086  0.3223  0.1100
  776POPS   C1B11467   2.259  -0.530   6.954  0.0888 -0.2561 -0.0459
  776POPS   C2B11468   2.219  -0.573   7.432  0.0726 -0.2044  0.1205
  776POPS   C3B11469   2.390  -0.752   7.808  0.1008 -0.0802  0.1947
  776POPS   C4B11470   2.695  -0.983   8.119 -0.1325  0.0165 -0.1033
  777POPS   CNO11471  12.600   0.167   5.732  0.1766 -0.2822  0.0821
  777POPS   PO411472  12.800   0.183   6.116  0.3136  0.2650  0.3561
  777POPS   GL111473  12.781   0.573   6.334  0.0974 -0.1009  0.1517
  777POPS   GL211474  12.935   0.519   6.562  0.1362  0.0667  0.2347
  777POPS   C1A11475  12.712   0.915   6.666 -0.1848 -0.1293  0.1731
  777POPS   D2A11476  12.672   1.236   6.830  0.0539  0.0919  0.0989
  777POPS   C3A11477  12.538   1.249   7.265  0.0724  0.1146  0.2058
  777POPS   C4A11478  12.462   1.212   7.682  0.0935  0.2775 -0.3023
  777POPS   C1B11479  13.002   0.658   6.982 -0.4823  0.0055  0.0005
  777POPS   C2B11480  13.314   0.709   7.298  0.2142 -0.3221  0.1144
  777POPS   C3B11481  13.653   0.697   7.565  0.0869 -0.0976  0.0350
  777POPS   C4B11482  13.954   0.392   7.825 -0.0630  0.2181 -0.0063
  778POPS   CNO11483  13.287  12.951   5.780 -0.0467 -0.1300 -0.1323
  778POPS   PO411484  13.033  13.059   6.109  0.0413 -0.3682  0.0277
  778POPS   GL111485  12.797  13.165   6.396 -0.2236 -0.2056 -0.0620
  778POPS   GL211486  12.999  13.380   6.591 -0.2044 -0.2571 -0.4583
  778POPS   C1A11487  12.675  13.194   6.925  0.1287 -0.3019  0.0080
  778POPS   D2A11488  12.672  13.241   7.368  0.1476  0.2175 -0.1066
  778POPS   C3A11489  12.640  13.221   7.867 -0.0610  0.5426  0.4553
  778POPS   C4A11490  12.690  13.440   8.171  0.1028  0.0987 -0.0164
  778POPS   C1B11491  13.409  13.286   6.876 -0.0709  0.1271 -0.1255
  778POPS   C2B11492  13.260  13.261   7.310  0.2345  0.3049  0.2674
  778POPS   C3B11493  13.222  13.235   7.647 -0.0544 -0.1551 -0.1522
  778POPS   C4B11494  13.160  13.386   8.054 -0.1110 -0.1042 -0.1216
  779POPS   CNO11495   6.203   7.638   5.726 -0.1855 -0.1856 -0.1949
  779POPS   PO411496   5.917   7.330   5.549 -0.1848 -0.4164 -0.0566
  779POPS   GL111497   5.935   7.400   6.045  0.2312  0.1749 -0.1832
  779POPS   GL211498   5.723   7.719   6.051  0.0147 -0.1025  0.1063
  779POPS   C1A11499   5.852   7.423   6.486 -0.2049  0.1458 -0.1030
  779POPS   D2A11500   6.127   7.454   6.876 -0.0866 -0.0937 -0.1465
  779POPS   C3A11501   6.215   7.799   7.136 -0.1803 -0.0562 -0.3289
  779POPS   C4A11502   6.358   7.847   7.607  0.0787  0.1701  0.0174
  779POPS   C1B11503   5.457   7.897   6.354  0.0350  0.2157 -0.1154
  779POPS   C2B11504   5.218   7.850   6.637 -0.1084 -0.1519 -0.2954
  779POPS   C3B11505   4.839   7.822   6.912 -0.0116  0.1276  0.0792
  779POPS   C4B11506   4.820   7.995   7.407 -0.0264  0.0660  0.0867
  780POPS   CNO11507   3.560  16.813   5.750 -0.1754 -0.0650  0.2810
  780POPS   PO411508   3.733  16.454   6.056 -0.0993  0.0860 -0.2324
  780POPS   GL111509   3.560  16.381   6.487 -0.4522 -0.0437 -0.1462
  780POPS   GL211510   3.754  16.465   6.680  0.0627 -0.2506 -0.0969
  780POPS   C1A11511   3.358  16.196   6.829 -0.2991 -0.0962  0.1709
  780POPS   D2A11512   3.398  16.117   7.237 -0.0957  0.4696 -0.2354
  780POPS   C3A11513   3.817  15.833   7.386  0.1124 -0.0319  0.1453
  780POPS   C4A11514   3.784  15.780   7.849 -0.1391  0.2363 -0.0312
  780POPS   C1B11515   3.865  16.441   7.128 -0.0339 -0.3377  0.1676
  780POPS   C2B11516   3.791  16.349   7.555 -0.1030  0.1481 -0.2830
  780POPS   C3B11517   3.470  16.218   7.795  0.1817  0.1467  0.2613
  780POPS   C4B11518   3.277  15.831   7.721  0.2499  0.0834  0.2250
  781POPS   CNO11519   8.299  14.862   5.619 -0.0940 -0.0206  0.1498
  781POPS   PO411520   8.206  15.321   5.763 -0.2042 -0.1868 -0.1222
  781POPS   GL111521   8.062  15.180   6.094 -0.3513  0.0948  0.1097
  781POPS   GL211522   8.116  14.849   6.160  0.0792  0.0268  0.0517
  781POPS   C1A11523   7.955  15.146   6.598  0.0718 -0.0201  0.1146
  781POPS   D2A11524   7.895  14.921   6.973  0.1772  0.0145  0.4055
  781POPS   C3A11525   8.066  14.965   7.311  0.3027  0.0276  0.0560
  781POPS   C4A11526   8.127  14.779   7.746 -0.1145  0.0828  0.0422
  781POPS   C1B11527   8.197  14.701   6.550 -0.4244  0.0112  0.3154
  781POPS   C2B11528   8.388  14.707   6.896 -0.2025  0.0206 -0.0356
  781POPS   C3B11529   8.512  14.706   7.301  0.2085  0.0702  0.4344
  781POPS   C4B11530   8.464  14.344   7.628 -0.2936 -0.0022  0.0410
  782POPS   CNO11531   2.285  14.405   5.607  0.0003 -0.2417  0.0140
  782POPS   PO411532   2.615  14.456   5.995 -0.1630 -0.2338 -0.2856
  782POPS   GL111533   2.774  14.542   6.379 -0.1564  0.1712 -0.0798
  782POPS   GL211534   2.564  14.648   6.578  0.2483  0.1436 -0.4590
  782POPS   C1A11535   2.823  14.170   6.740  0.2874 -0.0856 -0.2492
  782POPS   D2A11536   2.921  13.889   7.093 -0.4308 -0.3376 -0.2155
  782POPS   C3A11537   2.892  14.117   7.517  0.0072  0.2425 -0.0144
  782POPS   C4A11538   3.117  14.273   7.862  0.2481  0.1009 -0.1051
  782POPS   C1B11539   2.460  14.797   7.015 -0.0296 -0.2127 -0.1906
  782POPS   C2B11540   2.278  14.821   7.467  0.2472 -0.1426  0.4378
  782POPS   C3B11541   2.291  14.932   8.017 -0.2065  0.1291 -0.0036
  782POPS   C4B11542   2.170  15.089   8.419  0.3460 -0.1971 -0.0429
  783POPS   CNO11543  16.418   6.225   5.695  0.2616 -0.1722  0.0670
  783POPS   PO411544  16.669   6.205   6.017  0.2543  0.0463 -0.0018
  783POPS   GL111545  16.810   6.593   6.176 -0.0764  0.1929  0.1095
  783POPS   GL211546  17.108   6.622   6.079 -0.2266  0.0726  0.0329
  783POPS   C1A11547  16.820   6.785   6.497  0.3628 -0.3103 -0.2018
  783POPS   D2A11548  16.637   7.077   6.856  0.2420  0.2322 -0.2949
  783POPS   C3A11549  16.190   7.042   7.049  0.2936 -0.3645  0.0827
  783POPS   C4A11550  15.968   6.706   7.295  0.2098  0.1110 -0.0326
  783POPS   C1B11551  17.214   6.549   6.606  0.1518 -0.2190 -0.0955
  783POPS   C2B11552  17.210   6.232   6.940 -0.0312 -0.1306 -0.3174
  783POPS   C3B11553  17.452   5.907   7.127  0.3201 -0.1588  0.0068
  783POPS   C4B11554  17.729   5.571   7.340  0.0311 -0.1354  0.1112
  784POPS   CNO11555  13.628   7.001   5.424  0.2561  0.1341  0.1562
  784POPS   PO411556  13.317   7.186   5.355 -0.0923 -0.1082  0.0703
  784POPS   GL111557  13.409   7.360   5.743 -0.0893  0.0344 -0.3621
  784POPS   GL211558  13.520   7.111   5.997  0.1717 -0.0440 -0.1006
  784POPS   C1A11559  13.261   7.642   6.069  0.2378 -0.2834  0.1518
  784POPS   D2A11560  12.934   7.680   6.349 -0.1047  0.1743 -0.1792
  784POPS   C3A11561  12.926   8.111   6.301 -0.1157 -0.0368  0.0942
  784POPS   C4A11562  13.267   8.476   6.390 -0.0098  0.2038 -0.1042
  784POPS   C1B11563  13.589   7.049   6.407 -0.2030  0.0854  0.1377
  784POPS   C2B11564  13.552   7.111   6.862 -0.1913 -0.0823 -0.2574
  784POPS   C3B11565  13.381   6.956   7.235 -0.1764  0.1820 -0.0311
  784POPS   C4B11566  13.476   6.740   7.629 -0.2589  0.0035  0.3145
  785POPS   CNO11567  11.978  14.264   6.298  0.3880  0.2184 -0.3919
  785POPS   PO411568  11.684  14.026   6.387 -0.1077  0.0841 -0.1500
  785POPS   GL111569  11.616  14.240   6.723 -0.2811 -0.2891 -0.2704
  785POPS   GL211570  11.887  14.369   6.767 -0.1616  0.1457  0.0574
  785POPS   C1A11571  11.388  14.395   6.960  0.4505 -0.1062 -0.2184
  785POPS   D2A11572  11.107  14.153   7.313  0.1172 -0.3583 -0.1576
  785POPS   C3A11573  11.247  13.976   7.763 -0.1411  0.1762  0.3247
  785POPS   C4A11574  11.114  13.784   8.030  0.1703  0.0842 -0.4349
  785POPS   C1B11575  12.063  14.074   7.108 -0.3239  0.0972  0.1131
  785POPS   C2B11576  11.867  13.813   7.528  0.0051  0.0430  0.1458
  785POPS   C3B11577  11.669  13.615   7.960 -0.1741 -0.1974 -0.1802
  785POPS   C4B11578  11.620  13.850   8.370 -0.3513 -0.1587  0.0312
  786POPS   CNO11579  16.589  11.991   6.210 -0.0903 -0.1723  0.1010
  786POPS   PO411580  16.305  11.769   6.403  0.1908 -0.2478 -0.0043
  786POPS   GL111581  16.294  12.120   6.694  0.3568  0.0516 -0.1633
  786POPS   GL211582  16.588  12.093   6.781  0.1031 -0.3645 -0.5189
  786POPS   C1A11583  16.057  12.074   7.067  0.1133 -0.0958 -0.1052
  786POPS   D2A11584  15.751  12.089   7.195 -0.2327  0.1898 -0.2137
  786POPS   C3A11585  15.778  12.119   7.627  0.1380 -0.0284 -0.1462
  786POPS   C4A11586  16.024  12.140   7.981 -0.2559 -0.1671  0.3765
  786POPS   C1B11587  16.794  11.936   6.999 -0.0558 -0.0385  0.0261
  786POPS   C2B11588  16.553  11.718   7.362 -0.1286  0.2171  0.3374
  786POPS   C3B11589  16.359  11.425   7.602  0.3375 -0.0402  0.3280
  786POPS   C4B11590  15.982  11.162   7.488 -0.0091 -0.0760  0.1172
  787POPS   CNO11591   2.020  12.232   5.432  0.0086  0.3949 -0.0263
  787POPS   PO411592   1.934  11.921   5.754  0.1468 -0.0306  0.1688
  787POPS   GL111593   2.220  11.877   6.101 -0.3926  0.1575 -0.4563
  787POPS   GL211594   2.226  12.187   6.214  0.0453 -0.1308 -0.0818
  787POPS   C1A11595   2.360  11.832   6.495  0.0549  0.3612 -0.6051
  787POPS   D2A11596   2.286  11.924   6.962 -0.3493  0.1273  0.2160
  787POPS   C3A11597   2.289  11.759   7.352  0.1033 -0.1041 -0.4129
  787POPS   C4A11598   2.141  11.479   7.427 -0.2823 -0.1538  0.4633
  787POPS   C1B11599   2.187  12.341   6.608 -0.1863 -0.0057 -0.1749
  787POPS   C2B11600   2.251  12.455   6.989  0.1631 -0.0638  0.0759
  787POPS   C3B11601   2.262  12.217   7.403  0.0802 -0.2259 -0.2218
  787POPS   C4B11602   2.282  12.047   7.796  0.0046  0.2343  0.0993
  788POPS   CNO11603  16.816   9.248   5.786 -0.1932 -0.1231  0.0866
  788POPS   PO411604  16.969   8.917   5.505 -0.2120 -0.2021 -0.2246
  788POPS   GL111605  16.846   8.752   5.879  0.0580  0.2707 -0.0608
  788POPS   GL211606  17.142   8.627   6.000 -0.0559 -0.1810  0.0866
  788POPS   C1A11607  16.729   8.350   6.056  0.0585  0.1686  0.0780
  788POPS   D2A11608  16.661   8.221   6.505  0.0648  0.0782 -0.1363
  788POPS   C3A11609  16.898   8.393   6.817  0.1028 -0.3168 -0.1795
  788POPS   C4A11610  17.067   8.801   6.878 -0.0930 -0.0022  0.0751
  788POPS   C1B11611  17.104   8.458   6.337 -0.2702 -0.2156 -0.2807
  788POPS   C2B11612  17.347   8.409   6.615  0.0014 -0.0714 -0.1473
  788POPS   C3B11613  17.303   8.226   7.070  0.3040  0.1556 -0.0600
  788POPS   C4B11614  16.909   8.180   7.292  0.1504  0.1200  0.1554
  789POPS   CNO11615  14.382   5.258   5.136  0.0926 -0.1164 -0.3135
  789POPS   PO411616  14.713   5.496   5.239 -0.0381 -0.0192 -0.1123
  789POPS   GL111617  14.632   5.557   5.685  0.0565 -0.0825  0.1304
  789POPS   GL211618  14.848   5.323   5.862  0.1014  0.0852  0.2089
  789POPS   C1A11619  14.511   5.764   6.183 -0.2475 -0.1436 -0.4704
  789POPS   D2A11620  14.535   5.597   6.524  0.5441 -0.0570  0.1430
  789POPS   C3A11621  14.489   5.771   6.908  0.1213 -0.0970 -0.0623
  789POPS   C4A11622  14.540   5.993   7.327 -0.1268 -0.2135  0.2252
  789POPS   C1B11623  14.866   5.338   6.247  0.2808  0.0893 -0.1192
  789POPS   C2B11624  15.022   5.475   6.591  0.1987 -0.1544  0.2797
  789POPS   C3B11625  14.800   5.310   6.931  0.2632  0.2352 -0.0741
  789POPS   C4B11626  14.631   5.025   7.187 -0.2772 -0.3302 -0.2136
  790POPS   CNO11627  17.877  17.397   6.214  0.0735  0.1323 -0.1751
  790POPS   PO411628  18.124  17.693   6.156 -0.2176 -0.1196  0.0887
  790POPS   GL111629  18.147  17.699   6.577 -0.3633  0.0685 -0.1701
  790POPS   GL211630  17.998  17.537   6.804  0.0147 -0.1626 -0.2022
  790POPS   C1A11631  18.243  17.815   7.077  0.2527  0.0784 -0.1966
  790POPS   D2A11632  18.641  17.641   7.310  0.2550 -0.1012 -0.1650
  790POPS   C3A11633  19.056  17.429   7.159 -0.0568  0.2414  0.1545
  790POPS   C4A11634  19.449  17.253   7.398  0.0046  0.0489 -0.4054
  790POPS   C1B11635  18.210  17.294   7.108 -0.2836 -0.1298 -0.2945
  790POPS   C2B11636  18.318  17.303   7.621  0.0055  0.1015  0.0629
  790POPS   C3B11637  18.303  17.345   8.064 -0.1723  0.3108  0.0023
  790POPS   C4B11638  17.880  17.645   8.300 -0.2058  0.3554  0.2458
  791POPS   CNO11639   3.238   4.684   5.574  0.0341 -0.0859 -0.0265
  791POPS   PO411640   3.400   4.607   5.922 -0.2738  0.1184  0.0708
  791POPS   GL111641   3.521   4.483   6.398 -0.1792  0.0929 -0.2974
  791POPS   GL211642   3.581   4.705   6.639  0.2301 -0.0586 -0.3285
  791POPS   C1A11643   3.184   4.349   6.782 -0.1382  0.0566 -0.2245
  791POPS   D2A11644   2.919   4.278   7.131  0.4081 -0.1278 -0.0131
  791POPS   C3A11645   2.964   4.150   7.549  0.1536  0.0631 -0.1005
  791POPS   C4A11646   2.943   4.009   7.949  0.2239 -0.1376  0.1927
  791POPS   C1B11647   3.689   4.519   6.999  0.3003  0.1192 -0.0452
  791POPS   C2B11648   3.769   4.447   7.499 -0.0033  0.1872 -0.0391
  791POPS   C3B11649   3.650   4.708   7.937 -0.0515  0.0148  0.0763
  791POPS   C4B11650   3.938   4.843   8.235 -0.2907  0.3121 -0.3046
  792POPS   CNO11651  10.373   9.737   5.570  0.1403 -0.0617  0.1045
  792POPS   PO411652   9.961   9.711   5.422 -0.0236 -0.0537  0.0564
  792POPS   GL111653  10.011   9.681   5.894  0.0058 -0.2146  0.0128
  792POPS   GL211654  10.106   9.899   5.977  0.1804 -0.2174 -0.0430
  792POPS   C1A11655   9.667   9.779   6.236 -0.2867 -0.1248  0.0972
  792POPS   D2A11656   9.403   9.842   6.567  0.2226  0.2166  0.0416
  792POPS   C3A11657   9.194  10.213   6.721 -0.0613  0.1610  0.3270
  792POPS   C4A11658   8.834  10.389   6.872 -0.0556 -0.2539 -0.0614
  792POPS   C1B11659  10.283   9.852   6.321 -0.0364  0.1798  0.0195
  792POPS   C2B11660  10.199  10.131   6.672  0.1250 -0.3135  0.0906
  792POPS   C3B11661  10.396  10.289   7.078 -0.1025  0.0565 -0.0148
  792POPS   C4B11662  10.585  10.150   7.491 -0.1257 -0.1927  0.1329
  793POPS   CNO11663   3.185   7.155   5.381 -0.0448 -0.2133 -0.0482
  793POPS   PO411664   3.347   6.931   5.730 -0.0138 -0.0051 -0.1089
  793POPS   GL111665   3.439   6.923   6.173 -0.0114 -0.3620 -0.3040
  793POPS   GL211666   3.410   6.621   6.422  0.2040 -0.4149 -0.1747
  793POPS   C1A11667   3.272   7.237   6.552  0.2303  0.1500  0.1605
  793POPS   D2A11668   3.235   7.632   6.918  0.2063  0.3162  0.3802
  793POPS   C3A11669   3.264   8.098   6.913 -0.2677  0.2444  0.2480
  793POPS   C4A11670   3.118   8.427   6.785 -0.0328  0.0699  0.1024
  793POPS   C1B11671   3.212   6.854   6.855  0.1733  0.0448 -0.0108
  793POPS   C2B11672   2.953   6.977   7.197  0.1284 -0.3042 -0.0580
  793POPS   C3B11673   3.052   7.261   7.510  0.0957 -0.2857  0.0583
  793POPS   C4B11674   3.244   7.207   7.877 -0.0437 -0.1483  0.2577
  794POPS   CNO11675   8.228   7.270   4.871  0.2473 -0.1602  0.1782
  794POPS   PO411676   7.964   7.156   5.205  0.2666 -0.0612 -0.0515
  794POPS   GL111677   8.082   7.188   5.639 -0.1419 -0.0268 -0.0862
  794POPS   GL211678   8.361   7.269   5.815  0.3901  0.1584 -0.0390
  794POPS   C1A11679   7.944   7.391   6.065 -0.0680 -0.4833  0.3526
  794POPS   D2A11680   8.107   7.501   6.484 -0.4320 -0.4499 -0.0071
  794POPS   C3A11681   8.515   7.754   6.664 -0.2806 -0.0818  0.2925
  794POPS   C4A11682   8.414   8.054   7.055  0.3595 -0.1639 -0.3169
  794POPS   C1B11683   8.077   6.872   5.932 -0.0024  0.1818 -0.0098
  794POPS   C2B11684   8.358   6.617   6.250 -0.2022 -0.1288  0.0098
  794POPS   C3B11685   8.476   6.611   6.712  0.2078 -0.4492 -0.2373
  794POPS   C4B11686   8.456   6.949   7.026 -0.1847  0.3527  0.1120
  795POPS   CNO11687  12.747   6.459   5.425  0.1754 -0.0641  0.4470
  795POPS   PO411688  12.974   6.245   5.731 -0.0369 -0.1977  0.2590
  795POPS   GL111689  12.707   6.320   6.056  0.1062 -0.1080  0.2642
  795POPS   GL211690  12.746   6.097   6.266  0.2093 -0.0308 -0.2012
  795POPS   C1A11691  12.376   6.466   6.379 -0.1003  0.0319  0.2020
  795POPS   D2A11692  12.355   6.471   6.843 -0.0584  0.3089  0.3169
  795POPS   C3A11693  12.710   6.531   7.132 -0.2796 -0.2156 -0.0829
  795POPS   C4A11694  12.900   6.895   7.101 -0.0806  0.0259 -0.0775
  795POPS   C1B11695  12.799   6.263   6.684  0.1500 -0.3374 -0.0607
  795POPS   C2B11696  12.827   6.042   7.103  0.1161  0.3006 -0.0196
  795POPS   C3B11697  13.021   5.852   7.453 -0.2143  0.0379  0.0618
  795POPS   C4B11698  12.750   5.614   7.782  0.0318 -0.1341 -0.2116
  796POPS   CNO11699   3.108   9.512   5.693 -0.2913 -0.3426  0.0664
  796POPS   PO411700   2.751   9.762   5.636 -0.1401  0.1046  0.2160
  796POPS   GL111701   2.660   9.679   6.032 -0.0681 -0.2837  0.1260
  796POPS   GL211702   2.880  10.017   6.096  0.1250 -0.1430 -0.0294
  796POPS   C1A11703   2.597   9.809   6.425 -0.1574  0.0822  0.2256
  796POPS   D2A11704   2.268   9.784   6.737 -0.1891 -0.0795 -0.0660
  796POPS   C3A11705   2.316   9.741   7.150 -0.2845  0.2005  0.1353
  796POPS   C4A11706   2.323   9.942   7.498  0.1606 -0.4284 -0.1049
  796POPS   C1B11707   2.611  10.377   6.343  0.0653  0.1653 -0.4420
  796POPS   C2B11708   2.579  10.236   6.720  0.3082  0.0756 -0.1938
  796POPS   C3B11709   2.576  10.166   7.115  0.0006 -0.0504  0.5031
  796POPS   C4B11710   2.590  10.395   7.546 -0.2103  0.0781  0.0882
  797POPS   CNO11711   6.963   3.399   5.868 -0.2191 -0.4741  0.0097
  797POPS   PO411712   6.943   3.770   6.058 -0.0399  0.1852  0.1229
  797POPS   GL111713   6.974   3.435   6.383 -0.0675  0.0225  0.2062
  797POPS   GL211714   7.086   3.221   6.422 -0.3698 -0.0887  0.0813
  797POPS   C1A11715   6.803   3.580   6.795  0.1038 -0.0010  0.0969
  797POPS   D2A11716   6.765   3.848   7.050  0.2448  0.2117 -0.0050
  797POPS   C3A11717   6.882   3.873   7.500  0.0509 -0.1608 -0.1165
  797POPS   C4A11718   6.896   3.815   7.986  0.2877 -0.4280 -0.0381
  797POPS   C1B11719   7.040   3.162   6.853  0.0196  0.1406  0.0159
  797POPS   C2B11720   6.833   3.272   7.148  0.1417 -0.4110  0.0052
  797POPS   C3B11721   6.898   3.262   7.543  0.1520  0.0797  0.1050
  797POPS   C4B11722   6.750   3.118   7.910  0.0646 -0.1285 -0.0775
  798POPS   CNO11723  12.005  17.519   6.154 -0.0124 -0.1394 -0.0769
  798POPS   PO411724  12.250  17.283   6.372 -0.1045  0.2516 -0.2297
  798POPS   GL111725  11.932  17.466   6.748  0.1522 -0.1146 -0.1694
  798POPS   GL211726  11.980  17.654   6.917 -0.0599 -0.0236 -0.1800
  798POPS   C1A11727  11.453  17.385   6.999 -0.2154  0.3174 -0.2272
  798POPS   D2A11728  11.308  17.106   7.250 -0.2456  0.1067  0.1690
  798POPS   C3A11729  11.484  16.894   7.699 -0.1126  0.0171  0.2595
  798POPS   C4A11730  11.427  16.718   8.077  0.0270  0.0232 -0.1456
  798POPS   C1B11731  12.415  17.691   6.927 -0.1094  0.2953  0.1266
  798POPS   C2B11732  12.767  17.781   7.199  0.1801 -0.0226  0.0641
  798POPS   C3B11733  12.903  17.959   7.583 -0.0210  0.0152  0.1561
  798POPS   C4B11734  13.103  18.117   7.934  0.2554  0.0215  0.2109
  799POPS   CNO11735  14.418  10.365   5.424 -0.0150  0.1843  0.0413
  799POPS   PO411736  14.846  10.428   5.532  0.2946 -0.2295  0.2238
  799POPS   GL111737  14.554  10.585   5.913 -0.0465  0.1020 -0.1542
  799POPS   GL211738  14.193  10.537   5.893 -0.1493  0.1547 -0.1036
  799POPS   C1A11739  14.394  10.634   6.326  0.1883 -0.0654  0.0306
  799POPS   D2A11740  14.608  10.508   6.591 -0.0334  0.2424  0.1399
  799POPS   C3A11741  14.652  10.617   6.967  0.2021 -0.2087  0.1160
  799POPS   C4A11742  14.250  10.707   7.266 -0.0781  0.2481  0.2244
  799POPS   C1B11743  13.943  10.250   6.184  0.1919  0.0278 -0.2811
  799POPS   C2B11744  13.876  10.097   6.621 -0.1603 -0.1949  0.1130
  799POPS   C3B11745  13.973   9.897   6.990 -0.2652 -0.3351  0.1996
  799POPS   C4B11746  14.288   9.729   7.101  0.1271  0.2570  0.0810
  800POPS   CNO11747  11.160   7.477   5.704  0.4674 -0.1757  0.1146
  800POPS   PO411748  10.742   7.555   5.629  0.0535  0.1733 -0.1425
  800POPS   GL111749  10.745   7.632   6.031  0.1306  0.2052 -0.1493
  800POPS   GL211750  10.402   7.606   6.086 -0.3092  0.2807  0.0026
  800POPS   C1A11751  10.730   7.675   6.466 -0.1114 -0.1978  0.0123
  800POPS   D2A11752  10.777   7.768   6.850 -0.0606  0.3436  0.3893
  800POPS   C3A11753  10.455   7.702   7.091 -0.1952 -0.3099  0.0243
  800POPS   C4A11754  10.134   7.518   7.353 -0.0569  0.1327 -0.3081
  800POPS   C1B11755  10.332   7.925   6.367  0.3898  0.1155  0.0256
  800POPS   C2B11756  10.557   8.127   6.654  0.0896 -0.1410  0.1792
  800POPS   C3B11757  10.510   8.224   7.114  0.2556 -0.1227  0.2816
  800POPS   C4B11758  10.225   8.217   7.408 -0.0443 -0.0097 -0.0338
  801POPS   CNO11759  12.906  14.212   5.923  0.2236 -0.1333  0.0634
  801POPS   PO411760  13.060  14.157   6.230  0.5084  0.1427 -0.0832
  801POPS   GL111761  12.985  13.900   6.565  0.0679  0.1817 -0.1633
  801POPS   GL211762  13.306  13.851   6.756 -0.1257  0.0309  0.0351
  801POPS   C1A11763  12.686  13.683   6.853 -0.0296 -0.2551 -0.1912
  801POPS   D2A11764  12.305  13.576   6.986 -0.1002 -0.1287 -0.1206
  801POPS   C3A11765  12.378  13.781   7.385 -0.0393  0.1763  0.0765
  801POPS   C4A11766  12.715  13.693   7.729 -0.0551 -0.2848 -0.4098
  801POPS   C1B11767  13.116  14.155   7.022 -0.1747 -0.2221 -0.0983
  801POPS   C2B11768  13.184  14.210   7.438 -0.0825 -0.1333 -0.1790
  801POPS   C3B11769  13.507  14.240   7.724  0.4262  0.2872  0.2731
  801POPS   C4B11770  13.513  14.405   8.157 -0.2951  0.1377  0.2983
  802POPS   CNO11771   1.473   7.026   5.441 -0.0069  0.0765  0.0137
  802POPS   PO411772   1.403   7.356   5.776  0.2015  0.2179  0.2819
  802POPS   GL111773   1.380   7.670   6.117 -0.1627 -0.0825 -0.1954
  802POPS   GL211774   1.766   7.794   6.208 -0.3792 -0.5491  0.2975
  802POPS   C1A11775   1.351   7.841   6.526  0.2718 -0.0337  0.1625
  802POPS   D2A11776   1.384   7.868   6.934  0.2830 -0.1417 -0.3731
  802POPS   C3A11777   1.131   7.705   7.215  0.0520  0.2677 -0.1014
  802POPS   C4A11778   1.064   7.690   7.674  0.0145 -0.3529 -0.0329
  802POPS   C1B11779   1.810   8.028   6.682  0.0098  0.0082  0.0050
  802POPS   C2B11780   1.892   8.200   7.098  0.2909  0.1976 -0.0185
  802POPS   C3B11781   2.027   8.130   7.482 -0.1668 -0.0859 -0.2411
  802POPS   C4B11782   2.337   8.245   7.767 -0.0119 -0.0045 -0.3444
  803POPS   CNO11783   6.268  16.236   6.006 -0.1353  0.1704 -0.0771
  803POPS   PO411784   6.568  16.575   6.058 -0.1269 -0.0903 -0.0309
  803POPS   GL111785   6.456  16.667   6.527  0.1617  0.1832 -0.2896
  803POPS   GL211786   6.422  16.404   6.767  0.5438  0.2521 -0.1979
  803POPS   C1A11787   6.293  16.830   7.020 -0.2415 -0.1853 -0.0082
  803POPS   D2A11788   6.275  16.871   7.494 -0.0224 -0.0295  0.2685
  803POPS   C3A11789   6.562  16.660   7.786 -0.2218  0.1900 -0.0235
  803POPS   C4A11790   6.999  16.453   7.805  0.1441  0.0973 -0.1281
  803POPS   C1B11791   6.574  16.159   7.052  0.0593  0.0206  0.1744
  803POPS   C2B11792   6.815  16.125   7.414 -0.2201 -0.2162 -0.0289
  803POPS   C3B11793   6.622  16.096   7.866 -0.0184 -0.0273 -0.2932
  803POPS   C4B11794   6.239  16.057   7.983  0.3060  0.2518 -0.1665
  804POPS   CNO11795  14.362   2.392   5.972  0.4010 -0.1849 -0.2943
  804POPS   PO411796  14.628   2.644   6.278  0.1548 -0.0915  0.0243
  804POPS   GL111797  14.498   2.411   6.674 -0.0045  0.0383 -0.5008
  804POPS   GL211798  14.212   2.196   6.780 -0.0655  0.0078  0.0296
  804POPS   C1A11799  14.519   2.379   7.100  0.2618  0.0927  0.0734
  804POPS   D2A11800  14.212   2.237   7.236 -0.0969  0.1078 -0.3739
  804POPS   C3A11801  14.213   2.297   7.741  0.0256 -0.0898 -0.0057
  804POPS   C4A11802  14.523   2.391   8.088  0.2198  0.0365  0.1480
  804POPS   C1B11803  13.996   2.580   6.830  0.0818  0.0320  0.2234
  804POPS   C2B11804  14.098   3.050   6.881 -0.3430  0.1753 -0.0560
  804POPS   C3B11805  13.919   3.396   7.095  0.0750 -0.0724 -0.0419
  804POPS   C4B11806  13.932   3.656   7.417  0.0385 -0.0227  0.0125
  805POPS   CNO11807  11.594   7.228   4.961 -0.0885 -0.3004  0.2101
  805POPS   PO411808  11.904   7.289   5.201 -0.0694 -0.0056  0.0674
  805POPS   GL111809  11.903   7.376   5.675 -0.5088 -0.1769 -0.3215
  805POPS   GL211810  11.673   7.478   5.870  0.3357 -0.0505 -0.0142
  805POPS   C1A11811  12.043   7.153   5.989  0.1976  0.0997  0.0418
  805POPS   D2A11812  11.954   6.684   6.125 -0.0834  0.0741  0.2730
  805POPS   C3A11813  11.951   6.694   6.576 -0.1329 -0.1497  0.1176
  805POPS   C4A11814  11.934   6.748   6.990  0.0599 -0.2065 -0.1113
  805POPS   C1B11815  11.686   7.308   6.347  0.2793  0.1262 -0.0627
  805POPS   C2B11816  11.741   7.590   6.755  0.1269 -0.2224 -0.3012
  805POPS   C3B11817  11.727   7.753   7.187 -0.0683  0.2338  0.0282
  805POPS   C4B11818  11.802   8.046   7.543 -0.1917  0.1289  0.1776
  806POPS   CNO11819  15.691   8.111   5.243  0.0620  0.2166 -0.2577
  806POPS   PO411820  15.492   8.098   5.655  0.1429 -0.0295  0.1040
  806POPS   GL111821  15.731   8.316   6.120 -0.2011 -0.1704 -0.1038
  806POPS   GL211822  15.501   8.522   6.161  0.3329 -0.3688  0.1084
  806POPS   C1A11823  15.956   8.539   6.488  0.4070  0.5160  0.0760
  806POPS   D2A11824  16.142   8.446   6.877 -0.1325 -0.2217 -0.0391
  806POPS   C3A11825  16.476   8.082   6.956 -0.1555  0.0408  0.0670
  806POPS   C4A11826  16.406   7.543   6.956  0.2659  0.2552  0.2103
  806POPS   C1B11827  15.369   8.317   6.523 -0.0302  0.0836  0.0429
  806POPS   C2B11828  15.201   8.271   7.008 -0.5252 -0.0033 -0.0242
  806POPS   C3B11829  15.086   8.176   7.423  0.1271 -0.0084 -0.0076
  806POPS   C4B11830  15.153   8.266   7.771  0.4905  0.4602 -0.1091
  807POPS   CNO11831  15.478  15.198   6.535 -0.0826  0.1020 -0.1725
  807POPS   PO411832  15.127  15.389   6.685  0.1100 -0.0406  0.1560
  807POPS   GL111833  15.007  15.348   7.109  0.0584 -0.0997 -0.2774
  807POPS   GL211834  15.374  15.202   7.045  0.2125 -0.3012  0.1034
  807POPS   C1A11835  14.854  15.482   7.496 -0.0324 -0.1305  0.0767
  807POPS   D2A11836  14.734  15.644   7.817 -0.2334  0.0935 -0.0489
  807POPS   C3A11837  14.516  15.397   8.113  0.3260  0.0822 -0.0907
  807POPS   C4A11838  14.326  15.126   8.450 -0.0018 -0.0096  0.0385
  807POPS   C1B11839  15.411  15.219   7.395  0.1499  0.0351 -0.5806
  807POPS   C2B11840  15.389  15.186   7.807 -0.1242 -0.0960  0.1714
  807POPS   C3B11841  15.536  15.125   8.251 -0.1370 -0.1590  0.1132
  807POPS   C4B11842  15.606  15.067   8.623  0.2946  0.2350  0.2307
  808POPS   CNO11843   9.024   9.531   4.918 -0.0284  0.1445  0.0698
  808POPS   PO411844   9.118   9.215   5.220 -0.0494  0.0860 -0.1206
  808POPS   GL111845   9.469   9.261   5.598  0.1899 -0.0815 -0.1140
  808POPS   GL211846   9.477   9.616   5.754 -0.1426  0.1290  0.0104
  808POPS   C1A11847   9.648   9.179   5.962 -0.1635  0.2483  0.0458
  808POPS   D2A11848   9.991   8.939   6.268  0.1447 -0.1503  0.0960
  808POPS   C3A11849   9.977   9.010   6.674  0.0769  0.3896 -0.3464
  808POPS   C4A11850  10.015   9.325   6.991  0.0066  0.1948 -0.0861
  808POPS   C1B11851   9.280   9.497   6.207  0.2119  0.1197  0.0153
  808POPS   C2B11852   8.996   9.465   6.596  0.0998  0.1585  0.0644
  808POPS   C3B11853   8.969   9.786   6.842 -0.1546  0.1864  0.1044
  808POPS   C4B11854   8.676   9.960   7.125 -0.0245  0.0516  0.0533
  809POPS   CNO11855   8.741  15.321   5.596 -0.0150 -0.0481  0.1970
  809POPS   PO411856   9.118  15.164   5.807 -0.1134  0.1216  0.0745
  809POPS   GL111857   8.927  14.946   6.053  0.1717 -0.1522 -0.0243
  809POPS   GL211858   8.608  15.127   6.029 -0.3353  0.1579  0.3510
  809POPS   C1A11859   8.779  14.750   6.358  0.4840  0.0661 -0.2152
  809POPS   D2A11860   8.550  14.329   6.506  0.1535 -0.1146 -0.1526
  809POPS   C3A11861   8.860  14.035   6.546 -0.2427  0.0511  0.0162
  809POPS   C4A11862   9.053  13.767   6.456 -0.2703 -0.0992 -0.1571
  809POPS   C1B11863   8.501  15.183   6.431  0.0179 -0.0637 -0.0037
  809POPS   C2B11864   8.415  15.205   6.903 -0.1150  0.0035  0.0324
  809POPS   C3B11865   8.185  15.451   7.254 -0.3903  0.0183  0.2956
  809POPS   C4B11866   8.081  15.838   7.507 -0.0726  0.0626  0.0779
  810POPS   CNO11867  13.807  11.869   5.489 -0.0972  0.0790 -0.1619
  810POPS   PO411868  13.646  11.873   5.944  0.1111  0.0480 -0.3096
  810POPS   GL111869  13.502  11.775   6.342 -0.0159 -0.0328 -0.1844
  810POPS   GL211870  13.568  11.900   6.673  0.0999 -0.0461  0.0956
  810POPS   C1A11871  13.360  11.482   6.764 -0.0305 -0.0694  0.0499
  810POPS   D2A11872  13.159  11.174   6.997  0.1347  0.0332  0.1285
  810POPS   C3A11873  13.102  11.138   7.393  0.0880 -0.1299 -0.2445
  810POPS   C4A11874  13.370  11.174   7.763  0.1674  0.1416 -0.1098
  810POPS   C1B11875  13.716  11.787   7.012  0.2985 -0.2094  0.0397
  810POPS   C2B11876  13.647  11.842   7.455 -0.1527 -0.1063  0.0846
  810POPS   C3B11877  13.507  12.162   7.581 -0.1437 -0.1470 -0.1125
  810POPS   C4B11878  13.329  12.413   7.238  0.1893 -0.2790  0.1259
  811YOPS   CNO11879  14.119   6.476   5.606  0.0726  0.2098 -0.0463
  811YOPS   PO411880  13.791   6.357   5.654 -0.2761  0.3039  0.1074
  811YOPS   GL111881  13.494   6.308   5.976 -0.1490  0.2206  0.1669
  811YOPS   GL211882  13.237   6.136   6.166 -0.1373  0.1756  0.1081
  811YOPS   C1A11883  13.482   6.401   6.503  0.0732  0.0570  0.0381
  811YOPS   D2A11884  13.676   6.572   6.880  0.1314 -0.3360  0.2778
  811YOPS   C3A11885  13.894   6.756   7.296 -0.3562  0.0338  0.0963
  811YOPS   C4A11886  13.810   7.112   7.428  0.0528 -0.1450 -0.2299
  811YOPS   C1B11887  13.215   5.949   6.464 -0.3340  0.0314  0.2913
  811YOPS   C2B11888  13.073   5.711   6.776 -0.2936  0.1181  0.0713
  811YOPS   D3B11889  12.808   5.301   6.876  0.1055 -0.2279 -0.0386
  811YOPS   C4B11890  12.814   5.321   7.316  0.1057 -0.1606 -0.1640
  812YOPS   CNO11891   4.990   6.046   5.388 -0.2432  0.0178 -0.3368
  812YOPS   PO411892   4.761   6.276   5.628 -0.1726 -0.2046  0.3242
  812YOPS   GL111893   4.789   6.290   6.091  0.0084  0.1627 -0.1090
  812YOPS   GL211894   5.045   6.215   6.252  0.0871 -0.0787  0.1799
  812YOPS   C1A11895   4.738   6.552   6.467  0.0673  0.2702 -0.1026
  812YOPS   D2A11896   4.340   6.733   6.667 -0.0051  0.2048 -0.2485
  812YOPS   C3A11897   4.213   7.018   6.975  0.1202 -0.0351  0.0376
  812YOPS   C4A11898   4.424   7.084   7.227  0.0745  0.0871 -0.0655
  812YOPS   C1B11899   4.800   6.077   6.617 -0.2187  0.1378  0.0086
  812YOPS   C2B11900   4.595   6.260   7.009 -0.0443 -0.2166 -0.0584
  812YOPS   D3B11901   4.411   6.559   7.214 -0.0368  0.0084 -0.3437
  812YOPS   C4B11902   4.106   6.610   7.233 -0.1009 -0.0357 -0.1319
  813YOPS   CNO11903   6.364   2.256   5.750  0.1023 -0.2146 -0.2825
  813YOPS   PO411904   6.722   2.345   5.991  0.3848  0.1175  0.1488
  813YOPS   GL111905   6.743   2.160   6.321 -0.0319  0.2100  0.4248
  813YOPS   GL211906   6.458   2.157   6.615 -0.1387  0.0674  0.2641
  813YOPS   C1A11907   6.986   2.249   6.734 -0.0558  0.1956 -0.0623
  813YOPS   D2A11908   6.895   2.215   7.093 -0.4300 -0.0119 -0.5193
  813YOPS   C3A11909   6.820   1.951   7.407  0.3603  0.0606 -0.0357
  813YOPS   C4A11910   7.144   1.954   7.700  0.1258 -0.0238 -0.2041
  813YOPS   C1B11911   6.387   2.393   6.968  0.1691  0.1378  0.2035
  813YOPS   C2B11912   6.507   2.410   7.438  0.4410 -0.1686  0.1159
  813YOPS   D3B11913   6.694   2.273   7.806 -0.2254 -0.0872 -0.3105
  813YOPS   C4B11914   6.488   2.075   8.159  0.3772  0.4394  0.0369
  814YOPS   CNO11915  18.078   3.597   5.600  0.2452 -0.1799 -0.3060
  814YOPS   PO411916  18.003   3.220   5.887  0.0164 -0.2147  0.1934
  814YOPS   GL111917  18.036   3.156   6.346 -0.0406 -0.2359 -0.2758
  814YOPS   GL211918  18.365   3.165   6.324  0.1580  0.1863  0.0668
  814YOPS   C1A11919  18.184   3.063   6.807  0.0793 -0.1437  0.0931
  814YOPS   D2A11920  18.230   3.258   7.270  0.2327 -0.0511 -0.3728
  814YOPS   C3A11921  18.127   3.337   7.714  0.1279  0.3625 -0.1661
  814YOPS   C4A11922  17.865   3.164   8.050  0.2067 -0.1637 -0.0955
  814YOPS   C1B11923  18.304   3.521   6.587 -0.1507  0.0829 -0.0222
  814YOPS   C2B11924  18.132   3.863   6.890 -0.0253  0.1651 -0.2434
  814YOPS   D3B11925  18.002   3.709   7.278 -0.1012 -0.1400 -0.0117
  814YOPS   C4B11926  17.999   3.790   7.673 -0.1742  0.1357  0.0175
  815YOPS   CNO11927   5.021   3.154   6.215  0.1806 -0.0206  0.1465
  815YOPS   PO411928   4.732   2.960   6.007 -0.0234 -0.1654  0.1003
  815YOPS   GL111929   4.663   2.818   6.371 -0.1716  0.3672 -0.0306
  815YOPS   GL211930   4.755   2.490   6.375  0.1714 -0.0832 -0.1385
  815YOPS   C1A11931   4.706   3.130   6.738 -0.0898  0.0030  0.1517
  815YOPS   D2A11932   4.663   3.360   7.075 -0.1873  0.2377  0.1273
  815YOPS   C3A11933   4.784   3.428   7.486 -0.0370  0.0645 -0.3140
  815YOPS   C4A11934   4.446   3.480   7.837 -0.1208  0.3619 -0.2747
  815YOPS   C1B11935   4.808   2.307   6.741 -0.0602 -0.0338 -0.0245
  815YOPS   C2B11936   4.810   2.356   7.107  0.2498 -0.1138 -0.0221
  815YOPS   D3B11937   4.700   2.500   7.549 -0.1562  0.3427 -0.2645
  815YOPS   C4B11938   4.539   2.208   8.036  0.0852  0.0224  0.1488
  816YOPS   CNO11939   9.916   4.820   5.866  0.3283 -0.1303  0.1006
  816YOPS   PO411940  10.243   4.960   6.152  0.2334 -0.0957  0.1785
  816YOPS   GL111941   9.928   5.152   6.305  0.1266 -0.3393 -0.2106
  816YOPS   GL211942  10.142   5.105   6.626  0.3140  0.0722  0.0627
  816YOPS   C1A11943   9.577   5.180   6.654 -0.1075 -0.2402  0.0067
  816YOPS   D2A11944   9.316   5.306   7.023  0.0660 -0.1448 -0.3443
  816YOPS   C3A11945   9.275   5.097   7.375  0.1137  0.0236  0.1210
  816YOPS   C4A11946   9.586   5.039   7.759  0.0146  0.0772 -0.0662
  816YOPS   C1B11947  10.317   5.061   7.044 -0.0173 -0.3687 -0.1323
  816YOPS   C2B11948  10.375   4.907   7.453  0.0038 -0.0610  0.1150
  816YOPS   D3B11949  10.464   4.545   7.447  0.0815  0.0509  0.2079
  816YOPS   C4B11950  10.694   4.316   7.841  0.0788 -0.0517 -0.2514
  817YOPS   CNO11951   1.068  15.354   5.937 -0.2612 -0.0592  0.3653
  817YOPS   PO411952   0.769  15.077   6.031  0.1737  0.2849  0.1242
  817YOPS   GL111953   1.027  15.131   6.398  0.0447 -0.0318 -0.0850
  817YOPS   GL211954   1.310  15.007   6.406 -0.0971 -0.0224 -0.0056
  817YOPS   C1A11955   0.852  14.974   6.770  0.0829 -0.0627 -0.3111
  817YOPS   D2A11956   0.957  15.067   7.198  0.1699  0.0896  0.2205
  817YOPS   C3A11957   1.064  15.042   7.601  0.2104 -0.1645  0.1424
  817YOPS   C4A11958   1.413  14.778   7.897  0.2855  0.0609 -0.0782
  817YOPS   C1B11959   1.253  14.742   6.668 -0.0470  0.0493  0.1088
  817YOPS   C2B11960   0.991  14.569   7.041 -0.0701 -0.1126  0.3194
  817YOPS   D3B11961   0.729  14.430   7.371 -0.2064  0.0675 -0.0328
  817YOPS   C4B11962   0.631  14.724   7.634  0.1695  0.2352  0.1044
  818YOPS   CNO11963   5.233  16.388   6.511 -0.0519 -0.5252  0.3225
  818YOPS   PO411964   5.029  16.129   6.133 -0.1726 -0.0990  0.0085
  818YOPS   GL111965   4.827  15.955   6.443  0.2620 -0.2138 -0.4071
  818YOPS   GL211966   4.547  16.039   6.550 -0.1802 -0.2349  0.1283
  818YOPS   C1A11967   4.691  15.949   7.029 -0.1124 -0.0157 -0.2544
  818YOPS   D2A11968   4.801  16.139   7.360 -0.0503  0.0861 -0.2837
  818YOPS   C3A11969   5.174  16.145   7.489 -0.2096 -0.2048  0.1111
  818YOPS   C4A11970   5.289  15.906   7.774  0.0584  0.0763 -0.1444
  818YOPS   C1B11971   4.711  16.409   6.768  0.0071  0.2419  0.2067
  818YOPS   C2B11972   4.900  16.570   7.125 -0.0687  0.1552 -0.2386
  818YOPS   D3B11973   4.948  16.595   7.556  0.1859 -0.3698  0.0808
  818YOPS   C4B11974   4.698  16.310   7.843  0.1565 -0.0519 -0.1006
  819YOPS   CNO11975   6.643   6.293   6.082  0.1906  0.4093 -0.5231
  819YOPS   PO411976   7.000   5.907   6.072 -0.0145 -0.2882  0.0505
  819YOPS   GL111977   6.902   5.936   6.440 -0.3262  0.3164  0.1646
  819YOPS   GL211978   6.846   5.598   6.578 -0.0302  0.2799 -0.1928
  819YOPS   C1A11979   6.775   5.987   6.903  0.1929  0.4908  0.1688
  819YOPS   D2A11980   6.557   5.576   7.054 -0.1818 -0.0086 -0.6454
  819YOPS   C3A11981   6.620   5.461   7.564  0.0984 -0.1005 -0.0324
  819YOPS   C4A11982   6.992   5.273   7.701  0.3160  0.1353  0.3483
  819YOPS   C1B11983   6.721   5.125   6.776 -0.2450 -0.1060  0.0462
  819YOPS   C2B11984   6.297   5.110   6.877 -0.1354  0.0232 -0.2305
  819YOPS   D3B11985   5.871   5.081   6.892  0.0703 -0.0003  0.0108
  819YOPS   C4B11986   5.705   4.798   6.515  0.0847 -0.0528  0.1782
  820YOPS   CNO11987  12.863  11.794   5.463 -0.2510 -0.1407 -0.1514
  820YOPS   PO411988  13.102  11.753   5.952  0.4280 -0.0997  0.0853
  820YOPS   GL111989  12.950  11.561   6.321 -0.3659 -0.2307 -0.0253
  820YOPS   GL211990  12.595  11.506   6.044  0.3023  0.3444  0.0638
  820YOPS   C1A11991  12.861  11.456   6.750 -0.0376 -0.2026 -0.0091
  820YOPS   D2A11992  12.661  11.345   7.133  0.0469 -0.1015  0.3399
  820YOPS   C3A11993  12.411  11.243   7.601 -0.3065  0.0425 -0.1015
  820YOPS   C4A11994  11.978  11.202   7.709 -0.0564  0.1159 -0.0681
  820YOPS   C1B11995  12.472  11.375   6.401 -0.1990  0.3731  0.2748
  820YOPS   C2B11996  12.401  11.182   6.769  0.0996  0.2632 -0.0759
  820YOPS   D3B11997  12.496  10.843   7.187  0.3165 -0.2202  0.0017
  820YOPS   C4B11998  12.279  10.759   7.578 -0.0995  0.1870 -0.2598
  821YOPS   CNO11999   9.254  10.612   5.687 -0.4005 -0.0130 -0.1926
  821YOPS   PO412000   9.634  10.615   5.589  0.0115 -0.2583  0.0038
  821YOPS   GL112001   9.625  10.572   6.057  0.2204  0.0987  0.0118
  821YOPS   GL212002   9.553  10.255   6.241  0.1552  0.0423  0.3761
  821YOPS   C1A12003  10.059  10.443   6.276 -0.1112 -0.0158 -0.0104
  821YOPS   D2A12004  10.363  10.821   6.182  0.2552  0.1996 -0.0538
  821YOPS   C3A12005  10.733  11.133   6.164 -0.1642 -0.0940 -0.0145
  821YOPS   C4A12006  10.867  11.474   6.391 -0.1321 -0.3814  0.1255
  821YOPS   C1B12007   9.739  10.302   6.620  0.2006 -0.1250 -0.0745
  821YOPS   C2B12008   9.944  10.386   7.105  0.0113 -0.1139  0.0623
  821YOPS   D3B12009  10.029  10.055   7.427  0.3354  0.0027  0.0908
  821YOPS   C4B12010   9.671   9.795   7.537  0.0352 -0.4334 -0.0250
  822YOPS   CNO12011  10.820  14.969   6.388 -0.0052 -0.0589  0.0940
  822YOPS   PO412012  10.959  14.641   6.275 -0.2227 -0.2328 -0.1667
  822YOPS   GL112013  10.963  14.620   6.741 -0.1400  0.0174  0.1090
  822YOPS   GL212014  10.619  14.716   6.871 -0.0709 -0.1566 -0.2678
  822YOPS   C1A12015  11.014  14.633   7.216  0.1118  0.0501 -0.1739
  822YOPS   D2A12016  11.113  14.504   7.707  0.0868  0.2013  0.0486
  822YOPS   C3A12017  11.073  14.416   8.145  0.4583 -0.1030  0.0029
  822YOPS   C4A12018  10.658  14.611   8.314 -0.0817 -0.0639  0.0607
  822YOPS   C1B12019  10.102  14.815   6.921 -0.1781  0.0141  0.2411
  822YOPS   C2B12020   9.761  14.827   7.251 -0.3206 -0.0247  0.1676
  822YOPS   D3B12021   9.500  15.010   7.536  0.0152  0.0941  0.0595
  822YOPS   C4B12022   9.342  14.738   7.936  0.0501 -0.0105 -0.0470
  823YOPS   CNO12023   3.878  11.999   5.538 -0.0039  0.0899  0.2118
  823YOPS   PO412024   3.777  12.331   5.798  0.0543  0.2261 -0.2683
  823YOPS   GL112025   3.668  12.493   6.122 -0.1590  0.2119 -0.1797
  823YOPS   GL212026   3.714  12.158   6.395  0.1543 -0.0153  0.0475
  823YOPS   C1A12027   3.641  12.828   6.490 -0.0876 -0.1085  0.0109
  823YOPS   D2A12028   3.718  13.013   6.943 -0.3835  0.1259 -0.1157
  823YOPS   C3A12029   3.931  13.340   7.079  0.2948 -0.0308 -0.1083
  823YOPS   C4A12030   4.312  13.349   7.132 -0.0731  0.0873  0.0931
  823YOPS   C1B12031   3.805  12.010   6.823 -0.2758 -0.1463  0.0301
  823YOPS   C2B12032   4.155  11.797   7.166  0.1327 -0.0578  0.0018
  823YOPS   D3B12033   4.389  11.934   7.629 -0.1224 -0.0406  0.1588
  823YOPS   C4B12034   4.654  11.634   7.923  0.0061 -0.0471 -0.0125
  824YOPS   CNO12035  16.952   2.586   6.002  0.0426 -0.2696  0.0962
  824YOPS   PO412036  17.103   3.058   5.936 -0.1164  0.1146  0.2386
  824YOPS   GL112037  17.092   3.078   6.368  0.0453 -0.0198  0.2481
  824YOPS   GL212038  16.819   3.188   6.537 -0.0733 -0.0132  0.0105
  824YOPS   C1A12039  17.293   3.036   6.730  0.1386  0.0242  0.2999
  824YOPS   D2A12040  17.558   2.973   6.826  0.0412  0.1094 -0.1108
  824YOPS   C3A12041  17.726   2.565   7.083 -0.2833 -0.1149 -0.1882
  824YOPS   C4A12042  18.135   2.675   7.215 -0.1119 -0.1295  0.1378
  824YOPS   C1B12043  16.618   3.042   6.859  0.2637  0.0124  0.1220
  824YOPS   C2B12044  16.486   3.030   7.352  0.0430  0.0199 -0.0136
  824YOPS   D3B12045  16.547   3.281   7.813 -0.1318  0.0687  0.2313
  824YOPS   C4B12046  16.886   3.145   8.088  0.0529  0.2514 -0.1605
  825YOPS   CNO12047  11.728  10.277   5.616  0.2553 -0.0340  0.0453
  825YOPS   PO412048  11.369  10.568   5.657 -0.0030  0.2507  0.2919
  825YOPS   GL112049  11.437  10.486   6.070  0.0768  0.3533 -0.1295
  825YOPS   GL212050  11.534  10.145   6.151  0.0740  0.0230 -0.1549
  825YOPS   C1A12051  11.475  10.452   6.540 -0.2201 -0.1876 -0.0341
  825YOPS   D2A12052  11.568  10.352   7.007  0.0657  0.0076 -0.3909
  825YOPS   C3A12053  12.041  10.443   7.235 -0.0643 -0.2083 -0.1146
  825YOPS   C4A12054  12.197  10.103   7.478  0.1569 -0.0865  0.1759
  825YOPS   C1B12055  11.588   9.952   6.657  0.0329 -0.0119 -0.0748
  825YOPS   C2B12056  11.465   9.794   7.021  0.0180 -0.1579  0.0528
  825YOPS   D3B12057  11.237   9.625   7.357 -0.2624 -0.0243  0.1174
  825YOPS   C4B12058  10.915   9.219   7.192  0.2038 -0.0347 -0.1316
  826YOPS   CNO12059   3.468   2.446   5.602 -0.2162  0.0351  0.0063
  826YOPS   PO412060   3.251   2.157   5.970 -0.1830 -0.1259  0.0871
  826YOPS   GL112061   3.183   2.311   6.315  0.2477  0.3619 -0.1222
  826YOPS   GL212062   3.269   2.565   6.414  0.2508 -0.4606 -0.0262
  826YOPS   C1A12063   2.950   2.334   6.702  0.1816 -0.0116 -0.1093
  826YOPS   D2A12064   3.135   2.211   7.125 -0.0889 -0.0599  0.1571
  826YOPS   C3A12065   2.944   2.100   7.336 -0.0644 -0.1665 -0.1236
  826YOPS   C4A12066   3.045   2.311   7.796  0.1001 -0.0871 -0.0486
  826YOPS   C1B12067   3.213   2.760   6.920  0.3098 -0.0163  0.0003
  826YOPS   C2B12068   3.168   2.611   7.377  0.1047 -0.1818  0.4968
  826YOPS   D3B12069   3.231   2.756   7.716 -0.0666  0.1537 -0.0738
  826YOPS   C4B12070   3.311   2.745   8.163 -0.0263 -0.0023  0.1338
  827YOPS   CNO12071   4.180   7.087   5.184  0.0223  0.1269  0.3170
  827YOPS   PO412072   4.042   6.869   5.547 -0.1332  0.0796  0.1491
  827YOPS   GL112073   3.914   6.932   5.931 -0.1125 -0.0494  0.2275
  827YOPS   GL212074   3.884   6.597   6.074  0.0976  0.3551 -0.0922
  827YOPS   C1A12075   3.849   7.386   6.207  0.3516  0.0126 -0.0953
  827YOPS   D2A12076   3.933   7.372   6.661 -0.3635 -0.4295 -0.0372
  827YOPS   C3A12077   4.122   7.540   7.007  0.0068  0.1995  0.1045
  827YOPS   C4A12078   4.041   7.438   7.462  0.0562  0.3355 -0.0003
  827YOPS   C1B12079   3.899   6.885   6.451 -0.1690  0.0615  0.1048
  827YOPS   C2B12080   3.705   6.918   6.810  0.2627  0.1921  0.0623
  827YOPS   D3B12081   3.459   7.219   7.116  0.0771  0.1122 -0.1015
  827YOPS   C4B12082   3.507   7.483   7.492  0.1657 -0.0152 -0.0431
  828YOPS   CNO12083  11.112   7.878   5.331 -0.3660 -0.2016  0.3918
  828YOPS   PO412084  11.334   8.181   5.292  0.1112 -0.1803 -0.0929
  828YOPS   GL112085  11.416   8.008   5.765  0.0260 -0.1190 -0.2286
  828YOPS   GL212086  11.129   7.944   5.899 -0.3293 -0.1113 -0.0754
  828YOPS   C1A12087  11.753   7.892   6.064  0.3009  0.1858 -0.0064
  828YOPS   D2A12088  12.074   7.580   6.308  0.0470 -0.1601 -0.0643
  828YOPS   C3A12089  12.183   7.883   6.725  0.4234 -0.1152  0.1605
  828YOPS   C4A12090  12.036   8.195   6.882  0.2350  0.0591 -0.3943
  828YOPS   C1B12091  11.291   8.227   6.191 -0.0636  0.1212  0.1144
  828YOPS   C2B12092  11.583   8.504   6.253  0.2486 -0.0156  0.1464
  828YOPS   D3B12093  11.724   8.539   6.572 -0.1728  0.1456 -0.1770
  828YOPS   C4B12094  12.123   8.691   6.762  0.3034  0.1548 -0.1228
  829YOPS   CNO12095  12.379  12.542   5.767  0.2850 -0.0018  0.3820
  829YOPS   PO412096  12.301  12.310   6.132 -0.2072  0.0937 -0.2781
  829YOPS   GL112097  12.175  12.008   6.381 -0.0718 -0.1441  0.0828
  829YOPS   GL212098  12.489  11.852   6.370  0.0748 -0.0010 -0.1237
  829YOPS   C1A12099  12.042  11.731   6.755 -0.3052 -0.1539 -0.0521
  829YOPS   D2A12100  12.159  11.491   7.061  0.2075  0.3748 -0.0831
  829YOPS   C3A12101  12.108  11.132   7.193 -0.3660  0.1004  0.1292
  829YOPS   C4A12102  11.814  10.944   7.081  0.0254 -0.0523  0.1411
  829YOPS   C1B12103  12.507  11.836   6.848  0.0501 -0.1026 -0.4451
  829YOPS   C2B12104  12.386  12.083   7.195  0.2831  0.2928  0.0626
  829YOPS   D3B12105  12.314  12.050   7.625  0.1891 -0.0383  0.0198
  829YOPS   C4B12106  12.118  12.429   7.741 -0.0707 -0.4074  0.0301
  830YOPS   CNO12107  13.516  10.074   5.556  0.0158 -0.0405 -0.0328
  830YOPS   PO412108  13.041  10.239   5.547  0.2436 -0.1714 -0.1266
  830YOPS   GL112109  13.196  10.184   5.921  0.0554 -0.1332  0.0941
  830YOPS   GL212110  13.471  10.353   5.996 -0.0315 -0.0415  0.2469
  830YOPS   C1A12111  13.053  10.368   6.418  0.1366  0.0192  0.1875
  830YOPS   D2A12112  12.957  10.281   6.778 -0.1265  0.1796 -0.0531
  830YOPS   C3A12113  12.602  10.383   7.027  0.0238 -0.0193  0.2248
  830YOPS   C4A12114  12.620  10.336   7.418  0.0821  0.1225 -0.1502
  830YOPS   C1B12115  13.516  10.415   6.507  0.1310 -0.0162  0.1416
  830YOPS   C2B12116  13.391  10.302   6.979  0.3265 -0.0024 -0.0166
  830YOPS   D3B12117  13.229  10.072   7.386 -0.0562  0.1838  0.1411
  830YOPS   C4B12118  13.406   9.699   7.555 -0.2209  0.0255 -0.0128
  831YOPS   CNO12119  14.892  17.834   6.369 -0.1612 -0.0178 -0.0762
  831YOPS   PO412120  14.669  17.762   5.970  0.2317 -0.0587  0.0570
  831YOPS   GL112121  14.455  18.007   6.400  0.0235 -0.1107 -0.0287
  831YOPS   GL212122  14.616  18.273   6.476 -0.0393  0.0028 -0.1235
  831YOPS   C1A12123  14.484  17.968   6.783  0.1015 -0.1521 -0.1148
  831YOPS   D2A12124  14.658  18.008   7.293  0.1909 -0.0846  0.1004
  831YOPS   C3A12125  14.633  18.043   7.776  0.2400 -0.0638  0.0406
  831YOPS   C4A12126  14.418  18.287   8.021  0.3806  0.0972 -0.0269
  831YOPS   C1B12127  14.914  18.568   6.706 -0.0270  0.0425  0.1898
  831YOPS   C2B12128  15.343  18.576   6.891 -0.0269  0.1107 -0.1325
  831YOPS   D3B12129  15.691  18.687   7.174 -0.0719 -0.1272 -0.0608
  831YOPS   C4B12130  15.997  18.976   7.129 -0.1561  0.0239  0.1495
  832YOPS   CNO12131  15.861  16.441   6.267  0.0984  0.1045 -0.0577
  832YOPS   PO412132  16.106  16.735   6.337  0.4772  0.2089  0.1088
  832YOPS   GL112133  16.094  16.891   6.762  0.2111  0.2225 -0.2322
  832YOPS   GL212134  16.184  17.196   6.917  0.4968 -0.4285 -0.2116
  832YOPS   C1A12135  15.906  16.614   7.132 -0.1630 -0.1442  0.0699
  832YOPS   D2A12136  16.014  16.252   7.491 -0.1302 -0.0571  0.0473
  832YOPS   C3A12137  16.099  16.099   7.846 -0.3371  0.1035  0.2447
  832YOPS   C4A12138  16.081  15.897   8.242 -0.2967  0.1064 -0.0125
  832YOPS   C1B12139  16.350  16.927   7.242 -0.0053  0.1630  0.3166
  832YOPS   C2B12140  16.282  16.984   7.670  0.0280 -0.0248 -0.2106
  832YOPS   D3B12141  15.978  17.097   8.066  0.0982  0.2417 -0.3185
  832YOPS   C4B12142  15.661  16.779   8.149  0.1651 -0.1714  0.0954
  833YOPS   CNO12143   7.793  10.422   5.304 -0.2335  0.2722 -0.0498
  833YOPS   PO412144   8.094  10.754   5.177 -0.0755 -0.1474  0.3791
  833YOPS   GL112145   8.233  10.638   5.627 -0.0126  0.0947 -0.0805
  833YOPS   GL212146   8.351  10.819   5.777 -0.0334 -0.2056  0.0541
  833YOPS   C1A12147   7.949  10.409   5.930 -0.0296  0.0206  0.1830
  833YOPS   D2A12148   7.718  10.118   6.246  0.1950 -0.1301  0.1305
  833YOPS   C3A12149   7.409  10.233   6.659 -0.0981 -0.0713  0.1134
  833YOPS   C4A12150   7.160   9.915   6.816 -0.2777 -0.0230 -0.0185
  833YOPS   C1B12151   8.385  10.666   6.167  0.0301  0.0680 -0.1484
  833YOPS   C2B12152   8.164  10.426   6.378 -0.2954 -0.0470  0.0144
  833YOPS   D3B12153   7.950  10.297   6.817 -0.2065 -0.1154  0.1737
  833YOPS   C4B12154   8.029  10.517   7.065  0.2379 -0.0907  0.3136
  834YOPS   CNO12155   7.795   4.669   6.062 -0.0263  0.0221 -0.0267
  834YOPS   PO412156   8.188   4.723   5.842  0.1475 -0.1930  0.4178
  834YOPS   GL112157   8.453   4.778   6.208 -0.0084 -0.0134  0.1239
  834YOPS   GL212158   8.404   5.097   6.303  0.0630 -0.3159  0.0483
  834YOPS   C1A12159   8.426   4.625   6.664 -0.0560  0.3515 -0.1878
  834YOPS   D2A12160   8.437   4.534   7.093 -0.3529 -0.1062  0.0942
  834YOPS   C3A12161   8.290   4.079   7.321 -0.2788 -0.4614  0.1108
  834YOPS   C4A12162   8.192   3.577   7.391  0.2039 -0.1344 -0.2986
  834YOPS   C1B12163   8.234   5.355   6.684 -0.0106 -0.2414  0.0516
  834YOPS   C2B12164   8.360   5.506   7.136  0.1379 -0.2606 -0.1297
  834YOPS   D3B12165   8.460   5.645   7.534  0.0708  0.0367  0.0939
  834YOPS   C4B12166   8.257   5.713   7.918  0.2149 -0.3257 -0.0254
  835YOPS   CNO12167  15.596   2.322   5.877 -0.0517 -0.2216  0.0497
  835YOPS   PO412168  15.302   1.926   6.076  0.1765 -0.0159  0.1926
  835YOPS   GL112169  15.305   1.783   6.570 -0.0537 -0.0181 -0.0065
  835YOPS   GL212170  15.684   1.696   6.718 -0.0698 -0.0076 -0.0186
  835YOPS   C1A12171  15.168   1.594   6.757  0.0494 -0.0951 -0.1561
  835YOPS   D2A12172  15.083   1.536   7.217 -0.1093 -0.0745 -0.0102
  835YOPS   C3A12173  14.999   1.215   7.456 -0.0720  0.0812  0.4436
  835YOPS   C4A12174  15.236   1.362   7.728 -0.2116 -0.0040 -0.1990
  835YOPS   C1B12175  15.550   1.656   7.084 -0.1006 -0.1718 -0.1222
  835YOPS   C2B12176  15.657   1.673   7.496 -0.0423 -0.1599 -0.0867
  835YOPS   D3B12177  15.725   1.310   7.887 -0.1073 -0.0075  0.2413
  835YOPS   C4B12178  15.480   0.895   7.921 -0.0380 -0.1584 -0.1835
  836YOPS   CNO12179   1.507  16.716   6.115  0.1368 -0.1440  0.1177
  836YOPS   PO412180   1.910  16.608   6.177 -0.0339 -0.0492  0.1208
  836YOPS   GL112181   1.907  16.428   6.647  0.3089 -0.0940  0.0047
  836YOPS   GL212182   1.850  16.729   6.650 -0.3508 -0.1132  0.1182
  836YOPS   C1A12183   1.842  16.193   6.949  0.0120 -0.0955 -0.3299
  836YOPS   D2A12184   1.882  16.089   7.301 -0.0515 -0.0887 -0.1280
  836YOPS   C3A12185   1.693  15.855   7.574  0.0470 -0.0963 -0.0785
  836YOPS   C4A12186   1.885  15.515   7.853 -0.1543  0.2114  0.0867
  836YOPS   C1B12187   2.027  16.668   7.117  0.2644 -0.3518  0.0226
  836YOPS   C2B12188   1.949  16.565   7.526 -0.0005 -0.0509  0.2664
  836YOPS   D3B12189   1.843  16.580   8.000  0.0469 -0.1088  0.0326
  836YOPS   C4B12190   2.119  16.335   8.294 -0.1397 -0.0104  0.1218
  837YOPS   CNO12191   2.233   0.902   5.798 -0.0241 -0.1520  0.1174
  837YOPS   PO412192   2.531   1.021   5.991 -0.4467  0.0677 -0.1020
  837YOPS   GL112193   2.521   1.172   6.341 -0.0618 -0.0127  0.0242
  837YOPS   GL212194   2.635   1.520   6.452  0.0070 -0.2041 -0.1603
  837YOPS   C1A12195   2.495   1.095   6.661  0.1270  0.0202 -0.0572
  837YOPS   D2A12196   2.632   1.078   7.032  0.2455 -0.2664  0.0091
  837YOPS   C3A12197   2.650   1.085   7.552 -0.1840 -0.0864 -0.0648
  837YOPS   C4A12198   2.678   0.656   7.721  0.1545  0.1037  0.4111
  837YOPS   C1B12199   2.537   1.595   6.884  0.2445 -0.0034 -0.0771
  837YOPS   C2B12200   2.833   1.598   7.189  0.0786 -0.0337  0.0794
  837YOPS   D3B12201   2.982   1.640   7.549  0.0812  0.3967 -0.0636
  837YOPS   C4B12202   2.757   1.341   7.956  0.0422 -0.1213  0.1767
  838YOPS   CNO12203  17.963   9.956   5.240 -0.1909  0.2686  0.0763
  838YOPS   PO412204  17.923   9.853   5.678 -0.2001  0.2090 -0.1726
  838YOPS   GL112205  17.646   9.706   6.095 -0.2727  0.1242 -0.3508
  838YOPS   GL212206  17.414   9.975   6.203  0.0170 -0.3805 -0.0850
  838YOPS   C1A12207  17.705   9.294   6.308 -0.3156 -0.0684 -0.1807
  838YOPS   D2A12208  17.626   9.241   6.631 -0.1721 -0.0049  0.1789
  838YOPS   C3A12209  17.268   9.320   6.883 -0.0410  0.0894  0.3298
  838YOPS   C4A12210  17.126   9.141   7.241  0.1817 -0.0034  0.0422
  838YOPS   C1B12211  17.486   9.742   6.621  0.0528 -0.0690 -0.2080
  838YOPS   C2B12212  17.617   9.682   7.034  0.2319  0.0564  0.0440
  838YOPS   D3B12213  17.632   9.290   7.262  0.1019 -0.2769 -0.0081
  838YOPS   C4B12214  17.721   8.904   6.995 -0.1019  0.1742  0.2599
  839YOPS   CNO12215  12.108  16.589   6.028 -0.5990 -0.0366  0.2374
  839YOPS   PO412216  12.207  16.819   6.262 -0.0405 -0.0629 -0.5487
  839YOPS   GL112217  12.176  16.790   6.646  0.1782 -0.2091  0.1956
  839YOPS   GL212218  11.942  16.942   6.722 -0.0327  0.1865  0.1744
  839YOPS   C1A12219  12.327  16.757   7.080 -0.1876  0.0522  0.3986
  839YOPS   D2A12220  12.313  16.839   7.531 -0.3175 -0.0737 -0.2156
  839YOPS   C3A12221  12.261  17.109   7.976  0.3226 -0.0300 -0.3494
  839YOPS   C4A12222  11.893  16.953   8.204 -0.1802  0.0527  0.2855
  839YOPS   C1B12223  11.887  17.004   7.079 -0.2368 -0.1042 -0.0248
  839YOPS   C2B12224  11.824  17.212   7.387  0.1262  0.2115 -0.2860
  839YOPS   D3B12225  11.791  17.285   7.838 -0.0831 -0.1722  0.3728
  839YOPS   C4B12226  12.028  17.510   8.241  0.1116  0.2044  0.0215
  840YOPS   CNO12227  14.769  12.674   6.125  0.0477 -0.1648 -0.1041
  840YOPS   PO412228  15.124  12.835   6.307 -0.1077 -0.0292  0.1770
  840YOPS   GL112229  14.722  12.883   6.579  0.1004  0.1274 -0.3506
  840YOPS   GL212230  14.511  12.926   6.472 -0.0194  0.0745 -0.2901
  840YOPS   C1A12231  14.661  12.835   6.962  0.0684  0.1438  0.1940
  840YOPS   D2A12232  14.638  12.814   7.342  0.0615 -0.2949  0.1733
  840YOPS   C3A12233  14.554  12.876   7.802 -0.1677  0.1821 -0.1947
  840YOPS   C4A12234  14.640  13.169   8.074 -0.1338  0.0689  0.1703
  840YOPS   C1B12235  14.235  12.711   6.756 -0.0295 -0.0291  0.3065
  840YOPS   C2B12236  14.181  12.606   7.110  0.1057 -0.1699 -0.1546
  840YOPS   D3B12237  14.357  12.444   7.502  0.0381 -0.2796 -0.1663
  840YOPS   C4B12238  14.568  12.016   7.519 -0.0435  0.1141 -0.1326
  841POPE   NH312239  14.942   3.059   6.092  0.3349 -0.1097  0.0889
  841POPE   PO412240  15.228   2.702   5.928 -0.0663  0.0954  0.2238
  841POPE   GL112241  15.163   2.738   6.393 -0.1974 -0.0881 -0.0484
  841POPE   GL212242  15.125   2.913   6.569 -0.0542  0.1177  0.0602
  841POPE   C1A12243  14.963   2.466   6.814 -0.1876  0.0086  0.0633
  841POPE   D2A12244  14.919   2.365   7.371  0.3549  0.1835  0.1513
  841POPE   C3A12245  14.592   2.605   7.551  0.1937 -0.1071 -0.0187
  841POPE   C4A12246  14.249   2.655   7.427  0.3359 -0.0641  0.0560
  841POPE   C1B12247  15.048   2.890   7.050 -0.0307  0.2358 -0.2917
  841POPE   C2B12248  15.019   2.865   7.408 -0.0083  0.3735  0.2797
  841POPE   C3B12249  14.941   2.927   7.804 -0.0027  0.1959  0.1554
  841POPE   C4B12250  15.044   2.680   8.102  0.2360  0.1329  0.0011
  842POPE   NH312251   3.259   9.995   5.683 -0.0087 -0.3148 -0.0653
  842POPE   PO412252   3.718  10.091   5.628 -0.2293  0.0699  0.0199
  842POPE   GL112253   3.593  10.076   6.109  0.0723 -0.2103  0.2165
  842POPE   GL212254   3.346  10.280   6.225 -0.0549  0.0973 -0.0077
  842POPE   C1A12255   3.741  10.276   6.468 -0.1450  0.0734 -0.0995
  842POPE   D2A12256   3.447  10.528   6.653 -0.1099 -0.0380 -0.1746
  842POPE   C3A12257   3.362  10.911   6.903  0.0374  0.3586 -0.2550
  842POPE   C4A12258   3.296  11.174   7.244  0.2381  0.2060  0.0851
  842POPE   C1B12259   3.083  10.118   6.515  0.2670  0.0745  0.0232
  842POPE   C2B12260   2.957   9.840   6.936 -0.0509 -0.1293 -0.1153
  842POPE   C3B12261   2.786   9.733   7.365  0.0368  0.3138 -0.1058
  842POPE   C4B12262   2.488   9.346   7.506 -0.1302  0.1132 -0.2068
  843POPE   NH312263   7.636  13.796   5.219  0.1865  0.1831  0.2525
  843POPE   PO412264   7.863  13.497   5.491  0.2324 -0.1172 -0.0764
  843POPE   GL112265   7.915  13.310   5.964  0.0756  0.1222 -0.1167
  843POPE   GL212266   7.805  13.033   6.108 -0.2438  0.1522  0.3551
  843POPE   C1A12267   8.157  13.490   6.314  0.0296  0.0454 -0.0725
  843POPE   D2A12268   8.378  13.887   6.485  0.1970 -0.0387 -0.0487
  843POPE   C3A12269   8.706  13.719   6.911  0.0414 -0.1313  0.3038
  843POPE   C4A12270   8.614  13.518   7.319  0.3371 -0.2905  0.2167
  843POPE   C1B12271   7.574  13.239   6.419 -0.2732 -0.0710  0.1692
  843POPE   C2B12272   7.667  13.399   6.778 -0.0250 -0.1878 -0.1040
  843POPE   C3B12273   7.554  13.378   7.214  0.1175  0.2707 -0.0889
  843POPE   C4B12274   7.496  13.590   7.404  0.3817 -0.2092 -0.1402
  844POPE   NH312275   6.388   3.605   6.190  0.0957  0.1339 -0.1674
  844POPE   PO412276   6.012   3.465   6.374  0.1048  0.0115  0.3203
  844POPE   GL112277   6.314   3.430   6.689  0.1727 -0.0444 -0.0674
  844POPE   GL212278   6.540   3.173   6.662 -0.2840  0.2241  0.2226
  844POPE   C1A12279   6.390   3.458   7.245  0.0019  0.7379  0.0401
  844POPE   D2A12280   6.408   3.120   7.503  0.1256 -0.0326 -0.4834
  844POPE   C3A12281   6.178   3.165   7.969 -0.1437  0.0157 -0.0897
  844POPE   C4A12282   5.981   3.325   8.409 -0.0713 -0.1116 -0.0731
  844POPE   C1B12283   6.398   2.997   7.010  0.2566  0.1054 -0.0986
  844POPE   C2B12284   6.159   2.734   7.362  0.1232 -0.2933 -0.0595
  844POPE   C3B12285   5.941   2.848   7.649 -0.1150 -0.0355  0.1339
  844POPE   C4B12286   5.841   2.888   8.157  0.3266  0.2292  0.0892
  845POPE   NH312287   0.136  14.522   6.370 -0.1543  0.0050  0.2666
  845POPE   PO412288  -0.265  14.250   6.517 -0.1423  0.1929  0.0183
  845POPE   GL112289  -0.400  14.051   6.906  0.2677  0.0621  0.1211
  845POPE   GL212290  -0.515  13.683   6.914  0.1403 -0.1516 -0.1619
  845POPE   C1A12291  -0.393  14.109   7.296  0.1106  0.1612  0.1016
  845POPE   D2A12292  -0.601  14.140   7.604 -0.2957  0.3300  0.1219
  845POPE   C3A12293  -0.416  14.336   7.974  0.0704  0.1649 -0.1494
  845POPE   C4A12294  -0.654  14.237   8.302 -0.2509 -0.0932 -0.1763
  845POPE   C1B12295  -0.551  13.611   7.406  0.1084 -0.3416  0.0656
  845POPE   C2B12296  -0.115  13.739   7.543  0.1355  0.5052 -0.1366
  845POPE   C3B12297   0.335  13.819   7.784  0.0890 -0.0328 -0.1005
  845POPE   C4B12298   0.630  14.264   7.886 -0.3190  0.0476  0.0598
  846POPE   NH312299  14.634  13.803   6.205 -0.1884  0.2883  0.2274
  846POPE   PO412300  15.056  13.694   6.209  0.2216  0.1470  0.1083
  846POPE   GL112301  14.994  13.658   6.659 -0.0654 -0.1198  0.0675
  846POPE   GL212302  15.098  13.267   6.696  0.1528 -0.0976 -0.2959
  846POPE   C1A12303  15.132  13.561   7.092  0.4961  0.2087 -0.1967
  846POPE   D2A12304  15.130  13.392   7.407 -0.1572  0.2670 -0.2031
  846POPE   C3A12305  15.548  13.394   7.529 -0.1032  0.0319  0.0123
  846POPE   C4A12306  15.819  13.536   7.901 -0.0557 -0.1746 -0.0223
  846POPE   C1B12307  15.169  12.975   7.047 -0.2367 -0.0552 -0.1710
  846POPE   C2B12308  15.172  12.897   7.417  0.2865 -0.1308 -0.1587
  846POPE   C3B12309  15.144  12.782   7.781 -0.1128 -0.2942  0.0557
  846POPE   C4B12310  15.094  12.577   8.144 -0.2503 -0.1719 -0.0251
  847POPE   NH312311  14.904  14.963   6.674  0.0748  0.0579  0.2932
  847POPE   PO412312  15.219  14.807   6.702 -0.1169 -0.3043 -0.0451
  847POPE   GL112313  15.075  14.802   7.144 -0.1227 -0.3073  0.1933
  847POPE   GL212314  14.813  14.836   7.131  0.0271 -0.0393  0.0290
  847POPE   C1A12315  15.215  14.743   7.529 -0.4231 -0.0263  0.0940
  847POPE   D2A12316  15.427  14.734   7.961 -0.0945  0.2102 -0.1473
  847POPE   C3A12317  15.247  14.711   8.376  0.1741  0.2932  0.1561
  847POPE   C4A12318  15.364  14.622   8.783 -0.1117 -0.0633  0.3925
  847POPE   C1B12319  14.720  14.953   7.519 -0.2071 -0.2687  0.2250
  847POPE   C2B12320  14.908  15.154   7.899  0.4930 -0.2894  0.0047
  847POPE   C3B12321  15.055  15.212   8.255  0.0553  0.1997  0.2001
  847POPE   C4B12322  15.104  15.079   8.700 -0.0309 -0.0851 -0.1545
  848POPE   NH312323  14.128   0.135   6.128  0.0029  0.2656  0.2269
  848POPE   PO412324  14.253   0.458   6.088  0.2116 -0.3011  0.2215
  848POPE   GL112325  14.358   0.706   6.403 -0.2095  0.1456 -0.0911
  848POPE   GL212326  13.994   0.758   6.608  0.0136 -0.0509 -0.1400
  848POPE   C1A12327  14.556   0.790   6.748 -0.0815  0.1394 -0.2270
  848POPE   D2A12328  14.678   0.984   7.062  0.0087 -0.1526 -0.0921
  848POPE   C3A12329  14.671   0.755   7.519  0.1892  0.2972 -0.2719
  848POPE   C4A12330  14.447   0.393   7.646  0.1194  0.0471  0.1534
  848POPE   C1B12331  14.153   0.760   7.035 -0.1649  0.1469  0.0516
  848POPE   C2B12332  14.154   0.829   7.524  0.1392 -0.1089 -0.2133
  848POPE   C3B12333  14.388   1.161   7.775 -0.0296  0.1413  0.0359
  848POPE   C4B12334  14.132   1.478   8.118 -0.1782 -0.0526 -0.5075
  849POPE   NH312335  15.483   4.005   6.051  0.0643  0.1497 -0.0744
  849POPE   PO412336  15.855   4.213   6.048 -0.3201 -0.0364  0.1706
  849POPE   GL112337  15.543   4.351   6.451  0.4131  0.4628 -0.0502
  849POPE   GL212338  15.219   4.243   6.431 -0.2304  0.0376 -0.1670
  849POPE   C1A12339  15.391   4.432   6.882  0.0849 -0.1273  0.0507
  849POPE   D2A12340  14.991   4.677   7.081 -0.0500 -0.2943  0.1069
  849POPE   C3A12341  14.935   4.835   7.545  0.1586 -0.0639  0.0435
  849POPE   C4A12342  15.008   5.328   7.661  0.2690 -0.1340 -0.1556
  849POPE   C1B12343  15.147   4.653   6.541 -0.1799 -0.0145 -0.2310
  849POPE   C2B12344  15.256   5.003   6.771  0.0172 -0.3462  0.3881
  849POPE   C3B12345  15.166   5.136   7.268 -0.2045  0.2296  0.1017
  849POPE   C4B12346  15.427   5.059   7.701  0.2039  0.1234  0.1406
  850POPE   NH312347  15.312  10.182   5.532  0.1431 -0.1327 -0.1433
  850POPE   PO412348  15.370  10.626   5.669  0.3193  0.0016 -0.0836
  850POPE   GL112349  15.148  10.391   5.998  0.1907 -0.0190 -0.3763
  850POPE   GL212350  15.535  10.291   6.042  0.1708 -0.0920 -0.1708
  850POPE   C1A12351  14.783  10.185   6.250 -0.2441  0.0121 -0.2253
  850POPE   D2A12352  14.400  10.084   6.395 -0.0597  0.2001  0.2061
  850POPE   C3A12353  14.402  10.155   6.864 -0.1180 -0.1572  0.2039
  850POPE   C4A12354  14.751  10.086   7.245 -0.1729  0.0425  0.0679
  850POPE   C1B12355  15.874  10.354   6.430 -0.2643 -0.0366 -0.0434
  850POPE   C2B12356  15.975  10.153   6.831  0.0669  0.3229 -0.3434
  850POPE   C3B12357  15.797   9.839   7.006  0.3589  0.0259  0.0619
  850POPE   C4B12358  15.805   9.365   7.289 -0.1691  0.1577  0.3287
  851POPE   NH312359   4.474  16.009   5.945 -0.0757  0.2461 -0.0604
  851POPE   PO412360   4.228  15.804   6.145  0.0233  0.1412 -0.3176
  851POPE   GL112361   4.131  15.764   6.529 -0.0536 -0.0291 -0.0139
  851POPE   GL212362   3.879  15.932   6.647  0.1932  0.1362 -0.1026
  851POPE   C1A12363   4.276  15.657   6.972 -0.0005  0.0904 -0.0874
  851POPE   D2A12364   4.472  15.681   7.395  0.1641 -0.1493 -0.0385
  851POPE   C3A12365   4.635  15.437   7.659 -0.1445  0.2913  0.0901
  851POPE   C4A12366   4.491  15.094   7.969  0.2650  0.1221  0.0480
  851POPE   C1B12367   3.766  15.632   6.875  0.0096  0.0623 -0.0105
  851POPE   C2B12368   3.916  15.384   7.143 -0.0357  0.1832  0.1308
  851POPE   C3B12369   4.108  15.288   7.628  0.0234 -0.0273  0.3152
  851POPE   C4B12370   3.993  14.911   7.828  0.2956  0.3444 -0.2834
  852POPE   NH312371  12.551  16.389   6.649 -0.0254 -0.2678  0.1861
  852POPE   PO412372  12.828  15.958   6.506  0.0178 -0.3814 -0.2924
  852POPE   GL112373  12.672  15.832   6.900 -0.1485  0.1109 -0.0878
  852POPE   GL212374  12.624  16.019   7.158  0.1209 -0.0422  0.1402
  852POPE   C1A12375  12.697  15.495   7.242 -0.3134 -0.0562  0.1616
  852POPE   D2A12376  12.675  15.299   7.601 -0.2897 -0.1893  0.1219
  852POPE   C3A12377  12.335  15.436   7.918 -0.3036 -0.5171  0.1026
  852POPE   C4A12378  11.965  15.692   7.982 -0.0449 -0.0231 -0.4247
  852POPE   C1B12379  12.211  16.105   7.258  0.1685  0.2576 -0.5158
  852POPE   C2B12380  11.945  16.076   7.708 -0.0929 -0.3691  0.0209
  852POPE   C3B12381  11.595  16.290   7.963 -0.2061 -0.2009  0.0983
  852POPE   C4B12382  11.206  16.144   8.160 -0.3416  0.1623 -0.0019
  853POPE   NH312383  17.952   8.715   5.590 -0.1146  0.2497  0.0027
  853POPE   PO412384  17.940   8.978   5.840  0.2267  0.0382  0.0235
  853POPE   GL112385  18.125   8.878   6.265 -0.0559  0.2252 -0.0511
  853POPE   GL212386  18.350   8.643   6.409 -0.0625 -0.0699 -0.1155
  853POPE   C1A12387  18.112   8.971   6.648 -0.1432 -0.0817 -0.1372
  853POPE   D2A12388  18.185   8.734   6.928  0.2325 -0.0891 -0.0370
  853POPE   C3A12389  18.071   8.753   7.317  0.2003 -0.0339  0.0260
  853POPE   C4A12390  18.050   8.631   7.759  0.1675 -0.2163 -0.2375
  853POPE   C1B12391  18.402   8.318   6.751 -0.1990  0.0761  0.0473
  853POPE   C2B12392  18.616   8.041   7.082  0.0818 -0.3522  0.0023
  853POPE   C3B12393  18.836   7.622   7.323 -0.0597 -0.0345 -0.0405
  853POPE   C4B12394  19.004   7.267   7.296  0.0788  0.1820 -0.4162
  854POPE   NH312395  14.100  17.219   6.382  0.3568 -0.1175  0.1867
  854POPE   PO412396  13.611  17.292   6.403  0.0770  0.0106 -0.4405
  854POPE   GL112397  13.626  17.180   6.743  0.1925 -0.0540 -0.0267
  854POPE   GL212398  13.335  16.959   6.882  0.3720 -0.3332  0.1380
  854POPE   C1A12399  13.805  16.929   7.083 -0.1424 -0.0659 -0.2175
  854POPE   D2A12400  13.884  16.922   7.465 -0.1037  0.4430  0.0453
  854POPE   C3A12401  13.594  16.997   7.716 -0.3824 -0.0100 -0.1153
  854POPE   C4A12402  13.214  17.095   7.941 -0.3585  0.3144 -0.3147
  854POPE   C1B12403  13.325  17.196   7.202  0.0197 -0.2923  0.0569
  854POPE   C2B12404  13.139  17.457   7.476 -0.1211  0.0137 -0.0767
  854POPE   C3B12405  13.029  17.557   7.888 -0.2428  0.1820  0.2403
  854POPE   C4B12406  12.555  17.467   8.127 -0.0870 -0.1224  0.3265
  855POPE   NH312407  16.422  17.947   6.540  0.1638 -0.2870  0.2675
  855POPE   PO412408  16.647  17.606   6.529 -0.0230 -0.2160  0.0213
  855POPE   GL112409  16.641  17.398   6.874  0.1352 -0.2588 -0.4301
  855POPE   GL212410  16.688  17.056   6.861 -0.2737  0.0586 -0.1759
  855POPE   C1A12411  16.619  17.304   7.381 -0.1315  0.2824 -0.0117
  855POPE   D2A12412  16.816  17.024   7.685  0.0228 -0.1043  0.1324
  855POPE   C3A12413  16.616  16.830   8.002  0.0333 -0.1233  0.1715
  855POPE   C4A12414  16.293  16.668   8.239  0.0292 -0.1090  0.2697
  855POPE   C1B12415  16.976  16.920   7.223  0.0025  0.0643  0.0886
  855POPE   C2B12416  16.964  16.565   7.436 -0.0459  0.1003 -0.3224
  855POPE   C3B12417  17.078  16.521   7.810  0.0274  0.1069 -0.1253
  855POPE   C4B12418  17.501  16.638   7.845 -0.0874  0.0582  0.3426
  856POPE   NH312419   8.301  18.014   5.603  0.0549 -0.3757  0.2622
  856POPE   PO412420   8.285  17.682   5.860  0.2708  0.1931 -0.2017
  856POPE   GL112421   8.277  17.426   6.196  0.1049 -0.0467  0.0382
  856POPE   GL212422   8.602  17.409   6.177 -0.0925 -0.1556 -0.2967
  856POPE   C1A12423   8.086  17.325   6.590  0.0121  0.0093 -0.1049
  856POPE   D2A12424   8.280  17.510   6.975 -0.2137  0.1196  0.1542
  856POPE   C3A12425   8.470  17.819   7.401  0.1472 -0.3339 -0.0523
  856POPE   C4A12426   8.444  17.765   7.809 -0.0433 -0.1301 -0.0127
  856POPE   C1B12427   8.587  17.229   6.664 -0.1247 -0.0220  0.0164
  856POPE   C2B12428   8.674  16.960   7.073 -0.0324 -0.1360  0.2022
  856POPE   C3B12429   8.855  16.637   7.228 -0.0446 -0.3210 -0.2242
  856POPE   C4B12430   8.951  16.438   7.609 -0.0907 -0.2416 -0.2904
  857POPE   NH312431   9.936   0.536   6.240 -0.1553  0.0836 -0.0177
  857POPE   PO412432  10.018   0.198   5.962 -0.0398 -0.0412  0.1181
  857POPE   GL112433   9.626   0.148   6.206 -0.1847  0.1122 -0.0693
  857POPE   GL212434   9.399   0.053   6.270  0.2742 -0.0842  0.0950
  857POPE   C1A12435   9.754   0.132   6.684  0.1253 -0.3451  0.0426
  857POPE   D2A12436   9.641   0.173   7.072  0.2604  0.0775 -0.0647
  857POPE   C3A12437   9.721   0.030   7.357 -0.0613 -0.1767  0.2648
  857POPE   C4A12438  10.156  -0.138   7.419  0.3499 -0.1506  0.1264
  857POPE   C1B12439   9.270   0.308   6.670  0.1129 -0.2968 -0.1115
  857POPE   C2B12440   9.203   0.423   7.060 -0.0229  0.0455 -0.0332
  857POPE   C3B12441   9.226   0.210   7.475  0.0639  0.1329 -0.0760
  857POPE   C4B12442   9.115   0.090   7.895 -0.0744  0.0504  0.2459
  858POPE   NH312443  12.520   1.684   5.675 -0.0761 -0.6399  0.2006
  858POPE   PO412444  12.764   1.971   6.004 -0.2268  0.1357 -0.1816
  858POPE   GL112445  12.802   2.176   6.379  0.0838  0.0389  0.0545
  858POPE   GL212446  13.005   2.388   6.584  0.1594 -0.0817  0.0081
  858POPE   C1A12447  12.689   2.142   6.857 -0.0022 -0.3481 -0.3424
  858POPE   D2A12448  12.703   2.095   7.288  0.0658  0.2395  0.1388
  858POPE   C3A12449  12.581   2.470   7.481 -0.0656  0.2692  0.2407
  858POPE   C4A12450  12.631   2.718   7.786  0.0801  0.0919 -0.0077
  858POPE   C1B12451  13.216   2.287   6.887  0.0939 -0.1547 -0.0072
  858POPE   C2B12452  13.188   2.095   7.282  0.2797 -0.2318  0.2756
  858POPE   C3B12453  12.900   1.982   7.701  0.0342  0.2917 -0.0176
  858POPE   C4B12454  12.745   1.758   8.065  0.2835  0.2068  0.1947
  859POPE   NH312455  15.696  12.255   5.828  0.0392  0.3136 -0.2605
  859POPE   PO412456  15.347  11.981   5.945  0.0286  0.0833 -0.0740
  859POPE   GL112457  15.072  11.760   6.102 -0.0957 -0.0324  0.1122
  859POPE   GL212458  14.991  11.431   6.038 -0.2567  0.0464 -0.1668
  859POPE   C1A12459  14.894  11.678   6.543 -0.2576  0.2408  0.0826
  859POPE   D2A12460  14.760  11.520   6.976 -0.0465  0.0410  0.2112
  859POPE   C3A12461  14.683  11.498   7.412 -0.0970 -0.2238 -0.0521
  859POPE   C4A12462  14.337  11.621   7.707  0.0367  0.1461 -0.0529
  859POPE   C1B12463  15.087  11.100   6.363  0.5027 -0.2560  0.0640
  859POPE   C2B12464  14.999  10.775   6.385 -0.0191  0.0232  0.1750
  859POPE   C3B12465  15.135  10.461   6.525 -0.0810 -0.3923 -0.3962
  859POPE   C4B12466  15.501  10.415   6.716  0.1465  0.0166 -0.2102
  860POPE   NH312467  14.864  17.318   6.197  0.0201  0.4184  0.0516
  860POPE   PO412468  14.505  17.487   6.387  0.1548  0.1472  0.0797
  860POPE   GL112469  14.317  17.510   6.823  0.1493 -0.1511 -0.0898
  860POPE   GL212470  14.094  17.214   6.873 -0.2883  0.2254 -0.2380
  860POPE   C1A12471  14.336  17.652   7.233  0.0452 -0.0219  0.0833
  860POPE   D2A12472  14.410  17.586   7.566  0.2648  0.3017  0.0684
  860POPE   C3A12473  14.252  17.780   7.974 -0.0904 -0.2626 -0.0380
  860POPE   C4A12474  14.345  17.894   8.465  0.0228 -0.3557  0.1026
  860POPE   C1B12475  14.300  17.171   7.268  0.0536 -0.0546 -0.1026
  860POPE   C2B12476  14.390  17.096   7.692  0.0258  0.0997 -0.0828
  860POPE   C3B12477  14.664  17.343   7.895 -0.1216  0.2557 -0.0268
  860POPE   C4B12478  14.749  17.663   8.136 -0.0241  0.1877  0.0456
  861POPE   NH312479  18.004   5.388   6.212  0.0504 -0.2829  0.1332
  861POPE   PO412480  18.388   5.622   6.174 -0.0755  0.0567 -0.3252
  861POPE   GL112481  18.450   5.677   6.483 -0.0946  0.0017 -0.0993
  861POPE   GL212482  18.324   5.378   6.629 -0.2424  0.2048  0.1309
  861POPE   C1A12483  18.848   5.702   6.672 -0.1024 -0.1632 -0.1177
  861POPE   D2A12484  18.821   6.090   6.827 -0.3315  0.0608 -0.2366
  861POPE   C3A12485  18.826   6.158   7.294  0.4547  0.1585 -0.2533
  861POPE   C4A12486  19.053   6.514   7.421  0.0624  0.0469  0.1382
  861POPE   C1B12487  18.630   5.271   6.843 -0.1496 -0.1269 -0.0993
  861POPE   C2B12488  18.606   5.185   7.372  0.0819  0.2992  0.2909
  861POPE   C3B12489  18.615   5.191   7.855  0.1617 -0.3078  0.1805
  861POPE   C4B12490  18.570   4.765   7.959  0.0768 -0.1875 -0.0372
  862POPE   NH312491   9.146  15.636   5.587 -0.0317  0.0562  0.0727
  862POPE   PO412492   9.538  15.540   5.777  0.0102 -0.1624 -0.2262
  862POPE   GL112493   9.379  15.505   6.167  0.0800 -0.0106 -0.0142
  862POPE   GL212494   9.474  15.235   6.316  0.0661 -0.1066  0.2560
  862POPE   C1A12495   9.384  15.533   6.753  0.0354  0.0883  0.0839
  862POPE   D2A12496   9.229  15.576   7.108 -0.1279  0.0846  0.2637
  862POPE   C3A12497   9.382  15.494   7.565 -0.1248  0.0968 -0.2565
  862POPE   C4A12498   9.505  15.332   8.009 -0.2554 -0.3095 -0.0134
  862POPE   C1B12499   9.068  15.201   6.539  0.0927  0.2445 -0.1644
  862POPE   C2B12500   8.878  15.165   6.883 -0.0133  0.0003  0.0404
  862POPE   C3B12501   8.704  15.150   7.321 -0.0513 -0.1012  0.3982
  862POPE   C4B12502   8.364  15.148   7.606  0.1885  0.0701  0.2731
  863POPE   NH312503   5.216  11.119   5.574  0.0595  0.0835  0.2968
  863POPE   PO412504   5.354  11.548   5.506  0.0289 -0.0742  0.3348
  863POPE   GL112505   5.564  11.522   5.892  0.0584  0.0619  0.0900
  863POPE   GL212506   5.565  11.177   6.053  0.0495  0.3176 -0.3927
  863POPE   C1A12507   5.864  11.667   6.133 -0.0198  0.1124 -0.0283
  863POPE   D2A12508   6.081  11.671   6.530 -0.1809 -0.0105  0.3148
  863POPE   C3A12509   5.945  11.264   6.815  0.0021 -0.0035 -0.3157
  863POPE   C4A12510   6.013  11.005   7.223  0.0558  0.0373  0.1075
  863POPE   C1B12511   5.578  11.410   6.482  0.1397  0.1345 -0.0971
  863POPE   C2B12512   5.579  11.612   6.909 -0.0638 -0.4030 -0.0023
  863POPE   C3B12513   5.761  11.952   7.276 -0.2584 -0.0012 -0.2995
  863POPE   C4B12514   5.471  12.052   7.559 -0.0153  0.1556 -0.0565
  864POPE   NH312515   6.983  14.490   6.027 -0.0971  0.0505 -0.3670
  864POPE   PO412516   7.357  14.316   5.894  0.1053 -0.0144  0.0488
  864POPE   GL112517   7.538  14.148   6.209  0.0188  0.1935  0.0990
  864POPE   GL212518   7.719  13.748   6.135  0.2231  0.0158  0.1798
  864POPE   C1A12519   7.601  14.318   6.607 -0.0146 -0.1995 -0.4532
  864POPE   D2A12520   7.547  14.359   7.074 -0.4283 -0.1665 -0.5615
  864POPE   C3A12521   7.574  14.140   7.467  0.0086  0.1111 -0.1210
  864POPE   C4A12522   7.658  13.965   7.787 -0.0515  0.0862 -0.2814
  864POPE   C1B12523   7.889  13.879   6.567 -0.0242  0.1606  0.0756
  864POPE   C2B12524   7.719  13.831   7.021 -0.0234  0.1828  0.0050
  864POPE   C3B12525   7.950  13.839   7.415  0.0437  0.2216  0.0771
  864POPE   C4B12526   8.313  13.760   7.633 -0.0306 -0.0737  0.4066
  865POPE   NH312527   0.306   3.282   5.850 -0.4159 -0.4621  0.2541
  865POPE   PO412528   0.637   3.600   5.863  0.1575 -0.0347 -0.2467
  865POPE   GL112529   0.691   3.383   6.216 -0.1215  0.1402  0.3238
  865POPE   GL212530   0.677   3.041   6.238  0.1790 -0.1482 -0.0322
  865POPE   C1A12531   0.620   3.532   6.618  0.0460  0.0791  0.2895
  865POPE   D2A12532   0.430   3.879   6.728 -0.0876 -0.1678 -0.3038
  865POPE   C3A12533   0.372   4.032   7.145  0.3355  0.3086  0.1168
  865POPE   C4A12534   0.043   4.178   7.429  0.0930 -0.0200 -0.1186
  865POPE   C1B12535   0.476   2.995   6.633 -0.0731  0.0357  0.0160
  865POPE   C2B12536   0.439   2.933   7.096 -0.3668  0.3221 -0.1458
  865POPE   C3B12537   0.389   2.500   7.374 -0.0730  0.0895  0.2865
  865POPE   C4B12538   0.377   2.177   7.616 -0.2010  0.0528 -0.0392
  866POPE   NH312539   1.634   1.818   6.036  0.1891 -0.0393  0.0186
  866POPE   PO412540   1.471   1.443   6.023  0.3341 -0.1636  0.1594
  866POPE   GL112541   1.667   1.410   6.375 -0.3282 -0.0171  0.2771
  866POPE   GL212542   1.422   1.348   6.598 -0.1436  0.0332 -0.2211
  866POPE   C1A12543   2.076   1.462   6.673  0.2062 -0.2436  0.0656
  866POPE   D2A12544   2.127   1.303   6.975 -0.2488  0.0524 -0.0065
  866POPE   C3A12545   2.343   1.449   7.286  0.2306 -0.0098 -0.0245
  866POPE   C4A12546   2.410   1.557   7.720  0.0595 -0.2061  0.0284
  866POPE   C1B12547   1.098   1.169   6.976  0.0209  0.1329 -0.0040
  866POPE   C2B12548   1.279   1.205   7.403  0.3212  0.1116  0.2373
  866POPE   C3B12549   1.076   1.368   7.811  0.2148  0.2542 -0.0535
  866POPE   C4B12550   0.924   1.155   8.225 -0.0262 -0.0450 -0.0944
  867POPE   NH312551   1.819  12.385   5.937 -0.2442 -0.3161 -0.0966
  867POPE   PO412552   2.133  12.617   5.882 -0.4236 -0.1846 -0.0387
  867POPE   GL112553   2.059  12.702   6.225 -0.0973  0.1224 -0.0246
  867POPE   GL212554   2.355  12.841   6.345  0.2214 -0.1640 -0.1717
  867POPE   C1A12555   1.863  12.777   6.662 -0.0860  0.1532 -0.1657
  867POPE   D2A12556   1.522  12.821   6.973 -0.0879  0.4125  0.1772
  867POPE   C3A12557   1.550  13.190   7.120 -0.1079 -0.2284  0.0028
  867POPE   C4A12558   1.650  13.434   7.466  0.0096 -0.2491 -0.1213
  867POPE   C1B12559   2.395  12.875   6.755  0.1290  0.1879  0.0340
  867POPE   C2B12560   2.492  12.858   7.163 -0.0237 -0.2246  0.2385
  867POPE   C3B12561   2.442  12.666   7.509 -0.2329 -0.0659  0.2848
  867POPE   C4B12562   2.489  12.490   7.909 -0.1318 -0.1026 -0.3185
  868POPE   NH312563  12.015  11.201   5.446 -0.1298 -0.1730 -0.0967
  868POPE   PO412564  12.290  11.449   5.611 -0.1282  0.0648  0.1619
  868POPE   GL112565  12.301  11.117   5.918 -0.1007 -0.1213  0.2759
  868POPE   GL212566  12.431  10.908   5.816  0.0800 -0.0600 -0.0252
  868POPE   C1A12567  12.252  10.944   6.291  0.0082  0.3641  0.2485
  868POPE   D2A12568  11.707  10.935   6.267  0.2573  0.0016 -0.0266
  868POPE   C3A12569  11.488  10.968   6.672 -0.1126 -0.0911  0.2441
  868POPE   C4A12570  11.332  11.101   7.052 -0.2378  0.0934 -0.1559
  868POPE   C1B12571  12.788  10.998   6.206 -0.1181 -0.0069  0.0874
  868POPE   C2B12572  13.050  10.900   6.445  0.0675  0.0713 -0.1233
  868POPE   C3B12573  12.815  10.851   6.831 -0.2887  0.1766 -0.1802
  868POPE   C4B12574  12.995  10.633   7.151 -0.1612  0.0661  0.0709
  869POPE   NH312575   7.394   4.619   5.753 -0.0727 -0.2486  0.0039
  869POPE   PO412576   7.428   5.017   5.960 -0.0046  0.0875 -0.0404
  869POPE   GL112577   7.470   5.279   6.271 -0.0158 -0.1103  0.0575
  869POPE   GL212578   7.272   5.505   6.264 -0.0300 -0.1637  0.2344
  869POPE   C1A12579   7.212   5.256   6.754  0.1681 -0.1463  0.1133
  869POPE   D2A12580   7.141   5.124   7.223  0.1464  0.2622  0.0760
  869POPE   C3A12581   7.055   4.688   7.301  0.1045  0.0703 -0.0295
  869POPE   C4A12582   7.083   4.241   7.255 -0.1280  0.2682  0.0296
  869POPE   C1B12583   7.383   5.752   6.608  0.1842  0.1987 -0.0021
  869POPE   C2B12584   7.307   5.793   6.967  0.3176  0.2412 -0.2493
  869POPE   C3B12585   7.017   5.687   7.254 -0.2699 -0.3157 -0.0130
  869POPE   C4B12586   6.947   5.778   7.744 -0.0140 -0.0088 -0.1510
  870POPE   NH312587  14.266   7.917   5.535 -0.0078 -0.2249  0.1238
  870POPE   PO412588  14.124   8.302   5.432  0.3721 -0.3205 -0.1682
  870POPE   GL112589  14.030   8.280   5.863  0.3554  0.2363  0.3380
  870POPE   GL212590  13.822   8.050   5.937  0.2350 -0.1051 -0.1458
  870POPE   C1A12591  14.241   8.411   6.190 -0.1001  0.0770  0.1898
  870POPE   D2A12592  14.562   8.612   6.373  0.0433  0.2446 -0.0047
  870POPE   C3A12593  14.836   8.310   6.502  0.0618  0.3728 -0.0894
  870POPE   C4A12594  15.042   7.917   6.482  0.3510  0.1843  0.4584
  870POPE   C1B12595  14.042   7.953   6.408 -0.0006 -0.1118  0.4712
  870POPE   C2B12596  14.152   8.279   6.746  0.1897  0.0497  0.0602
  870POPE   C3B12597  13.916   8.377   7.087  0.0265 -0.0436  0.0156
  870POPE   C4B12598  13.794   8.822   7.249 -0.0078 -0.3146  0.0800
  871YOPE   NH312599  11.901   1.565   6.298 -0.0570  0.3987 -0.1313
  871YOPE   PO412600  11.890   2.014   6.234 -0.1333  0.2158 -0.1182
  871YOPE   GL112601  11.607   1.888   6.518  0.0828 -0.2839 -0.1606
  871YOPE   GL212602  11.847   1.829   6.732 -0.1209 -0.1133 -0.0244
  871YOPE   C1A12603  11.519   2.119   6.982  0.0001  0.2441 -0.0293
  871YOPE   D2A12604  11.433   2.144   7.427 -0.2554 -0.0793  0.0710
  871YOPE   C3A12605  11.451   2.301   7.816 -0.1921  0.0744  0.1471
  871YOPE   C4A12606  11.389   2.214   8.281  0.2895 -0.0316  0.0266
  871YOPE   C1B12607  11.876   1.779   7.066  0.0173  0.1705 -0.1030
  871YOPE   C2B12608  11.886   1.786   7.533 -0.5366 -0.1131 -0.0933
  871YOPE   D3B12609  11.866   2.013   7.872  0.0335  0.0197 -0.1263
  871YOPE   C4B12610  11.854   1.961   8.338 -0.0687  0.2222  0.0882
  872YOPE   NH312611  15.572   3.036   6.084  0.2710 -0.1874 -0.1943
  872YOPE   PO412612  15.649   2.686   6.251 -0.1344 -0.1887 -0.3444
  872YOPE   GL112613  15.745   2.655   6.629  0.0433 -0.3081 -0.2545
  872YOPE   GL212614  15.465   2.358   6.640 -0.1250 -0.4451  0.3039
  872YOPE   C1A12615  15.643   2.722   7.003 -0.1968 -0.1771  0.1265
  872YOPE   D2A12616  15.378   2.496   7.276  0.0382  0.0772  0.0518
  872YOPE   C3A12617  15.358   2.496   7.635 -0.1173  0.0727 -0.0530
  872YOPE   C4A12618  15.356   2.300   7.969 -0.2162 -0.3106 -0.1107
  872YOPE   C1B12619  15.329   2.125   6.906 -0.0449 -0.2361 -0.0500
  872YOPE   C2B12620  15.253   1.970   7.274  0.4942 -0.1036  0.1581
  872YOPE   D3B12621  15.118   1.959   7.652 -0.1280  0.1545  0.1389
  872YOPE   C4B12622  14.780   1.897   8.035 -0.0665  0.1257 -0.0635
  873YOPE   NH312623   7.299  10.470   5.503 -0.4179 -0.0171  0.0430
  873YOPE   PO412624   7.002  10.178   5.323 -0.0277  0.0506 -0.0206
  873YOPE   GL112625   6.909  10.321   5.772  0.0602  0.0038 -0.0940
  873YOPE   GL212626   6.823  10.040   6.006  0.0311 -0.0720 -0.3108
  873YOPE   C1A12627   6.810  10.564   6.142  0.1372  0.0395  0.2874
  873YOPE   D2A12628   6.679  10.654   6.651  0.2114  0.1291  0.2499
  873YOPE   C3A12629   6.844  10.962   6.929 -0.1034 -0.0226 -0.2607
  873YOPE   C4A12630   6.843  11.226   7.315  0.0784 -0.0010 -0.1332
  873YOPE   C1B12631   6.877  10.180   6.498  0.1844  0.0562 -0.2989
  873YOPE   C2B12632   7.011  10.336   6.952 -0.0729 -0.2936 -0.1891
  873YOPE   D3B12633   7.113  10.227   7.298  0.4017  0.0683 -0.4331
  873YOPE   C4B12634   7.063  10.394   7.802 -0.0788  0.0572  0.0195
  874YOPE   NH312635   4.677  10.586   5.292  0.2139 -0.0883  0.1718
  874YOPE   PO412636   4.755  10.937   5.450 -0.1082 -0.2178 -0.3580
  874YOPE   GL112637   4.751  11.114   5.830 -0.5241 -0.0763  0.2186
  874YOPE   GL212638   4.984  11.034   6.036  0.3902  0.1725 -0.0162
  874YOPE   C1A12639   4.623  11.327   6.277  0.0060 -0.2898 -0.0725
  874YOPE   D2A12640   4.554  11.384   6.742 -0.1990 -0.0349  0.2008
  874YOPE   C3A12641   4.798  11.121   6.979 -0.0564  0.4592 -0.0499
  874YOPE   C4A12642   4.807  10.740   7.285  0.2480  0.0501 -0.1109
  874YOPE   C1B12643   4.844  10.757   6.243 -0.1628 -0.0768  0.1020
  874YOPE   C2B12644   4.629  10.837   6.533  0.1515 -0.1695 -0.4447
  874YOPE   D3B12645   4.365  10.868   6.916 -0.0961  0.2115  0.0025
  874YOPE   C4B12646   4.267  11.323   7.133  0.2728 -0.1299 -0.1553
  875YOPE   NH312647   2.689   7.214   5.442 -0.0370  0.0603  0.0849
  875YOPE   PO412648   3.070   7.550   5.598 -0.1264 -0.0330  0.3986
  875YOPE   GL112649   3.160   7.757   5.985  0.2216 -0.2593  0.1732
  875YOPE   GL212650   3.406   8.039   5.984  0.2069  0.0308  0.2289
  875YOPE   C1A12651   2.999   7.687   6.414  0.0835  0.0189  0.0527
  875YOPE   D2A12652   2.610   7.629   6.658 -0.2968  0.0405 -0.0447
  875YOPE   C3A12653   2.747   7.636   7.182  0.2153 -0.0235 -0.3640
  875YOPE   C4A12654   2.646   7.882   7.608  0.0610 -0.4851 -0.2455
  875YOPE   C1B12655   3.296   8.261   6.333  0.0317  0.0061  0.0592
  875YOPE   C2B12656   3.330   8.799   6.450 -0.0415  0.1535  0.0046
  875YOPE   D3B12657   3.383   9.281   6.567  0.1164 -0.1719  0.2043
  875YOPE   C4B12658   3.229   9.644   6.290 -0.4464  0.1102 -0.2099
  876YOPE   NH312659   1.393   0.747   6.051  0.1648 -0.3422 -0.0989
  876YOPE   PO412660   1.005   0.570   6.257  0.2835  0.0707  0.1879
  876YOPE   GL112661   1.041   0.693   6.659 -0.1756 -0.0670  0.0352
  876YOPE   GL212662   1.381   0.766   6.602 -0.0224 -0.0026  0.0533
  876YOPE   C1A12663   1.382   0.506   6.997 -0.0289  0.0223  0.0667
  876YOPE   D2A12664   1.399   0.579   7.454 -0.0426  0.0140  0.5065
  876YOPE   C3A12665   1.620   0.980   7.671 -0.2625 -0.0103 -0.2245
  876YOPE   C4A12666   1.519   1.272   7.958 -0.0980  0.0213  0.0806
  876YOPE   C1B12667   1.709   0.968   6.793 -0.0771 -0.0789 -0.0723
  876YOPE   C2B12668   1.861   1.000   7.247  0.0027  0.0432 -0.0002
  876YOPE   D3B12669   2.166   1.082   7.647  0.0505  0.0398 -0.1337
  876YOPE   C4B12670   2.311   0.881   7.975 -0.2323 -0.2407 -0.0874
  877YOPE   NH312671  13.739  16.885   6.110 -0.1827  0.1914  0.0563
  877YOPE   PO412672  13.999  16.748   6.470 -0.3605  0.0535 -0.1101
  877YOPE   GL112673  14.235  16.727   6.888 -0.5568  0.2518  0.2509
  877YOPE   GL212674  14.498  16.812   6.774  0.3324  0.3073 -0.1485
  877YOPE   C1A12675  14.188  16.548   7.313  0.0778 -0.0609  0.0431
  877YOPE   D2A12676  14.185  16.457   7.779 -0.4242 -0.1702 -0.2498
  877YOPE   C3A12677  14.044  16.849   7.980 -0.1243  0.4132  0.0917
  877YOPE   C4A12678  13.981  16.949   8.429  0.1181 -0.2674 -0.0954
  877YOPE   C1B12679  14.630  16.851   7.191  0.0820 -0.0061 -0.1692
  877YOPE   C2B12680  14.909  16.952   7.535  0.1489 -0.0734 -0.0822
  877YOPE   D3B12681  15.079  17.149   8.025  0.0450 -0.3336 -0.1202
  877YOPE   C4B12682  14.916  17.258   8.367 -0.0028 -0.3031 -0.0614
  878YOPE   NH312683   0.642  11.018   5.838  0.0898  0.1314  0.2392
  878YOPE   PO412684   0.486  10.479   5.742  0.2305 -0.2989 -0.0002
  878YOPE   GL112685   0.530  10.380   6.065 -0.1894 -0.4321  0.1255
  878YOPE   GL212686   0.752  10.580   6.192 -0.1343  0.1787 -0.1336
  878YOPE   C1A12687   0.658  10.075   6.387  0.0528  0.1836 -0.1346
  878YOPE   D2A12688   0.682  10.010   6.805  0.0285 -0.1028 -0.1607
  878YOPE   C3A12689   0.643  10.195   7.168 -0.0806  0.0331 -0.0593
  878YOPE   C4A12690   0.491  10.050   7.552 -0.0233  0.0261  0.0220
  878YOPE   C1B12691   0.738  10.919   6.529 -0.3130  0.4493  0.2895
  878YOPE   C2B12692   0.724  10.800   6.921 -0.0915 -0.0281 -0.3096
  878YOPE   D3B12693   0.379  10.628   7.144 -0.2475  0.2302 -0.1693
  878YOPE   C4B12694   0.221  10.689   7.527 -0.1843 -0.0063 -0.0142
  879YOPE   NH312695   1.550  11.417   5.801 -0.0482 -0.0518  0.0280
  879YOPE   PO412696   1.644  11.043   5.786 -0.0719  0.1648  0.1698
  879YOPE   GL112697   1.872  10.886   6.157 -0.1959 -0.0486  0.0649
  879YOPE   GL212698   2.082  10.567   6.069 -0.0803  0.1289  0.1615
  879YOPE   C1A12699   1.813  10.666   6.484  0.0975  0.0762 -0.0122
  879YOPE   D2A12700   1.920  10.744   6.889  0.0155  0.2117  0.1920
  879YOPE   C3A12701   1.469  10.784   6.974 -0.1979 -0.1745  0.1578
  879YOPE   C4A12702   1.127  10.914   7.253 -0.2917 -0.2182  0.0294
  879YOPE   C1B12703   2.115  10.237   6.493  0.0037  0.1662  0.0942
  879YOPE   C2B12704   2.085  10.226   6.947 -0.0357 -0.0312  0.0966
  879YOPE   D3B12705   2.176  10.450   7.295 -0.0937 -0.0087  0.1781
  879YOPE   C4B12706   1.875  10.767   7.486  0.1141  0.2241  0.3139
  880YOPE   NH312707   5.326  17.014   5.617  0.2321  0.4759 -0.4453
  880YOPE   PO412708   5.165  17.171   6.019 -0.1094 -0.0255 -0.2921
  880YOPE   GL112709   5.383  17.010   6.347 -0.2376 -0.1217 -0.2490
  880YOPE   GL212710   5.646  16.886   6.511 -0.0337  0.1882 -0.1908
  880YOPE   C1A12711   5.258  16.840   6.809 -0.0182 -0.0209 -0.1498
  880YOPE   D2A12712   5.376  16.747   7.244  0.0093  0.0001  0.1029
  880YOPE   C3A12713   5.385  16.874   7.604  0.0478 -0.2839  0.0197
  880YOPE   C4A12714   5.311  17.009   8.085  0.1800 -0.1075 -0.1818
  880YOPE   C1B12715   5.741  16.975   6.923  0.0848  0.3911 -0.0780
  880YOPE   C2B12716   5.818  17.011   7.323  0.0951  0.0374  0.1957
  880YOPE   D3B12717   5.792  17.194   7.717  0.1245 -0.2569 -0.1196
  880YOPE   C4B12718   5.802  17.152   8.193  0.0404  0.2552 -0.2360
  881YOPE   NH312719   4.117  10.150   5.019  0.0826 -0.1064  0.1407
  881YOPE   PO412720   4.510  10.142   5.291  0.1682 -0.2100 -0.0413
  881YOPE   GL112721   4.580  10.264   5.720 -0.2162 -0.3579 -0.0583
  881YOPE   GL212722   4.530  10.602   5.756  0.1170  0.0005  0.1591
  881YOPE   C1A12723   4.917  10.287   6.080  0.1949  0.0786  0.4876
  881YOPE   D2A12724   5.296  10.285   6.373 -0.0678 -0.0157  0.1483
  881YOPE   C3A12725   5.244  10.434   6.729 -0.3685  0.1433  0.0671
  881YOPE   C4A12726   4.925  10.628   6.826 -0.1798  0.2092  0.1856
  881YOPE   C1B12727   4.449  10.403   6.146 -0.1396 -0.0698 -0.0308
  881YOPE   C2B12728   4.659  10.324   6.472 -0.2846  0.1088  0.0788
  881YOPE   D3B12729   4.472  10.410   6.849 -0.0502  0.1583 -0.0832
  881YOPE   C4B12730   4.359  10.585   7.338  0.1751  0.0322 -0.0119
  882YOPE   NH312731   6.590  18.128   6.475 -0.0587 -0.0119 -0.1255
  882YOPE   PO412732   6.266  17.806   6.365 -0.2529  0.4479 -0.6026
  882YOPE   GL112733   6.425  17.363   6.448  0.1907  0.1077  0.0931
  882YOPE   GL212734   6.214  17.110   6.611 -0.0011  0.1216 -0.1558
  882YOPE   C1A12735   6.640  17.222   6.861  0.1672  0.1223  0.1263
  882YOPE   D2A12736   6.658  17.238   7.320 -0.2810 -0.0348  0.1379
  882YOPE   C3A12737   6.986  17.533   7.463  0.0236 -0.1957  0.0809
  882YOPE   C4A12738   7.143  17.827   7.639  0.0723 -0.1940 -0.2157
  882YOPE   C1B12739   6.148  17.330   6.982 -0.1042  0.0246  0.0300
  882YOPE   C2B12740   6.203  17.377   7.410  0.0218 -0.2042 -0.3184
  882YOPE   D3B12741   6.350  17.304   7.774 -0.1560  0.3005 -0.0819
  882YOPE   C4B12742   6.486  17.433   8.177 -0.2232 -0.2743  0.2729
  883YOPE   NH312743  17.542   5.752   6.105  0.2959 -0.1474 -0.1625
  883YOPE   PO412744  17.445   6.254   5.922 -0.2632 -0.2662 -0.0377
  883YOPE   GL112745  17.471   6.172   6.445  0.2479 -0.2690  0.1040
  883YOPE   GL212746  17.604   5.865   6.642  0.0293 -0.0728 -0.1253
  883YOPE   C1A12747  17.778   6.238   6.964  0.0088 -0.1978  0.0991
  883YOPE   D2A12748  18.042   6.057   7.327  0.0272  0.0702  0.1440
  883YOPE   C3A12749  18.339   5.798   7.523 -0.0793  0.3092 -0.0646
  883YOPE   C4A12750  18.360   5.667   7.930  0.3196  0.1964 -0.0018
  883YOPE   C1B12751  17.844   5.676   6.843  0.1490  0.1455  0.0092
  883YOPE   C2B12752  18.157   5.461   7.088 -0.0363  0.0022 -0.0052
  883YOPE   D3B12753  18.115   5.307   7.558  0.1150 -0.0238  0.2280
  883YOPE   C4B12754  18.126   4.958   7.829 -0.2259  0.2902 -0.3905
  884YOPE   NH312755  17.114  17.610   6.305 -0.1116  0.1645 -0.0031
  884YOPE   PO412756  17.367  17.301   6.254  0.2566  0.0182  0.0005
  884YOPE   GL112757  17.502  16.959   6.574 -0.0317  0.0168 -0.0334
  884YOPE   GL212758  17.687  17.199   6.647 -0.0174  0.1188 -0.1922
  884YOPE   C1A12759  17.429  16.778   6.916 -0.1768 -0.1582  0.0348
  884YOPE   D2A12760  17.472  16.625   7.302 -0.1535 -0.0947 -0.0986
  884YOPE   C3A12761  17.382  16.290   7.486  0.0041  0.1902  0.5516
  884YOPE   C4A12762  17.434  15.998   7.770 -0.0523 -0.2523  0.2024
  884YOPE   C1B12763  17.801  17.005   7.143  0.1943  0.0710 -0.0631
  884YOPE   C2B12764  17.892  17.092   7.434  0.2265 -0.0307 -0.0770
  884YOPE   D3B12765  18.006  16.960   7.934  0.3137 -0.1549  0.0872
  884YOPE   C4B12766  18.317  16.868   8.285  0.4854  0.3412 -0.0330
  885YOPE   NH312767  18.171   6.996   5.528 -0.0406 -0.3704 -0.0014
  885YOPE   PO412768  17.950   7.356   5.629 -0.1525 -0.0084 -0.1119
  885YOPE   GL112769  17.886   7.151   6.033 -0.1162  0.0392 -0.1181
  885YOPE   GL212770  17.734   7.362   6.069  0.0668  0.2444  0.1651
  885YOPE   C1A12771  17.858   7.026   6.496  0.0923  0.0537  0.1728
  885YOPE   D2A12772  17.641   6.732   6.743  0.1721  0.0131  0.2818
  885YOPE   C3A12773  17.461   6.635   7.121 -0.1111  0.4629 -0.1114
  885YOPE   C4A12774  17.134   6.590   7.376 -0.1804  0.2453 -0.1236
  885YOPE   C1B12775  17.802   7.556   6.525  0.0475 -0.0875 -0.3262
  885YOPE   C2B12776  17.868   7.532   7.012  0.3164 -0.0379  0.1670
  885YOPE   D3B12777  17.812   7.161   7.205 -0.0610 -0.0765 -0.2423
  885YOPE   C4B12778  17.587   6.993   7.518  0.0590  0.1906 -0.0895
  886YOPE   NH312779  18.019  11.192   6.047  0.1451  0.2479 -0.0725
  886YOPE   PO412780  17.790  10.766   5.947  0.2037 -0.0671 -0.0478
  886YOPE   GL112781  17.592  11.021   6.382 -0.1272  0.2070  0.0376
  886YOPE   GL212782  17.292  11.281   6.378 -0.0048  0.3022  0.0476
  886YOPE   C1A12783  17.400  10.851   6.817 -0.0441  0.2830  0.4031
  886YOPE   D2A12784  17.243  10.651   7.149  0.0377  0.0298 -0.0376
  886YOPE   C3A12785  16.837  10.665   7.449 -0.1240 -0.1909  0.0056
  886YOPE   C4A12786  16.598  10.446   7.550  0.1944  0.2186 -0.0329
  886YOPE   C1B12787  17.226  11.348   6.857  0.1452 -0.2274 -0.1749
  886YOPE   C2B12788  17.160  11.646   7.228 -0.2090  0.1952  0.1575
  886YOPE   D3B12789  16.978  11.812   7.692 -0.2437  0.1789 -0.1519
  886YOPE   C4B12790  16.943  12.024   8.045 -0.2711  0.1908  0.1005
  887YOPE   NH312791  10.404  14.689   6.264  0.0735 -0.3335 -0.1487
  887YOPE   PO412792  10.224  14.381   6.027 -0.1787  0.3124 -0.2104
  887YOPE   GL112793  10.314  14.253   6.457  0.1540  0.1724 -0.2425
  887YOPE   GL212794  10.647  14.305   6.612  0.2223  0.2208 -0.0726
  887YOPE   C1A12795  10.199  14.313   6.884 -0.2586 -0.0103  0.1283
  887YOPE   D2A12796  10.024  14.270   7.262  0.0753  0.0408  0.2688
  887YOPE   C3A12797  10.185  14.219   7.743  0.1712  0.0865 -0.1437
  887YOPE   C4A12798  10.236  14.380   8.118  0.0646 -0.1005 -0.1997
  887YOPE   C1B12799  10.729  14.212   6.967  0.0930  0.4049  0.2536
  887YOPE   C2B12800  10.623  14.316   7.279  0.0298  0.3596 -0.3487
  887YOPE   D3B12801  10.307  14.675   7.393 -0.1885 -0.0595  0.1651
  887YOPE   C4B12802  10.075  14.838   7.743 -0.0581 -0.0238  0.1249
  888YOPE   NH312803   3.278  13.335   5.597  0.1595 -0.0833  0.1748
  888YOPE   PO412804   3.547  13.619   5.915  0.3236  0.1592  0.2836
  888YOPE   GL112805   3.854  13.579   6.296 -0.1454 -0.0343 -0.2477
  888YOPE   GL212806   3.720  13.690   6.533 -0.1290  0.2126  0.0533
  888YOPE   C1A12807   3.994  13.167   6.510  0.1274 -0.0342  0.0199
  888YOPE   D2A12808   4.212  13.079   6.755 -0.2108  0.3756  0.1702
  888YOPE   C3A12809   4.159  12.863   7.127  0.0207 -0.2642 -0.1808
  888YOPE   C4A12810   4.172  12.958   7.551 -0.1440  0.1549  0.2807
  888YOPE   C1B12811   3.382  13.271   6.527  0.0011 -0.4331 -0.1294
  888YOPE   C2B12812   3.253  13.059   6.823  0.2531  0.2508  0.1646
  888YOPE   D3B12813   3.263  13.069   7.254 -0.1046  0.1291  0.4072
  888YOPE   C4B12814   3.636  12.902   7.500  0.0103 -0.0418 -0.2272
  889YOPE   NH312815   5.347  14.680   6.129 -0.1677 -0.1691  0.3309
  889YOPE   PO412816   5.636  14.371   6.066 -0.0457  0.2201 -0.1171
  889YOPE   GL112817   5.930  14.343   6.453  0.1143  0.0628  0.3991
  889YOPE   GL212818   5.897  14.603   6.558  0.0114  0.2367  0.0268
  889YOPE   C1A12819   6.207  14.034   6.730  0.1223  0.2618 -0.2737
  889YOPE   D2A12820   6.086  13.624   6.973 -0.1431  0.0060  0.0988
  889YOPE   C3A12821   6.191  13.451   7.338 -0.1840 -0.0618 -0.1790
  889YOPE   C4A12822   6.439  13.392   7.757 -0.3553 -0.1370  0.1012
  889YOPE   C1B12823   6.104  14.477   7.009 -0.1397 -0.2241 -0.3962
  889YOPE   C2B12824   6.291  14.453   7.421  0.0269 -0.2002  0.0757
  889YOPE   D3B12825   6.357  14.378   7.850  0.2092  0.1278  0.1634
  889YOPE   C4B12826   6.503  14.531   8.210  0.0589 -0.0321 -0.0890
  890YOPE   NH312827   2.498   2.847   5.934 -0.3353  0.1238 -0.0223
  890YOPE   PO412828   2.551   3.261   6.062  0.0919 -0.1479  0.1828
  890YOPE   GL112829   2.368   3.158   6.298 -0.0528  0.2000 -0.0635
  890YOPE   GL212830   2.420   2.812   6.470 -0.2741 -0.0994  0.0157
  890YOPE   C1A12831   2.440   3.243   6.841  0.2027  0.0258  0.2574
  890YOPE   D2A12832   2.427   3.118   7.236  0.2112 -0.0614  0.1415
  890YOPE   C3A12833   2.262   3.157   7.647  0.3285 -0.0760 -0.1622
  890YOPE   C4A12834   1.941   3.397   7.962 -0.5661  0.1833 -0.1369
  890YOPE   C1B12835   2.696   2.769   6.707  0.0229 -0.1571 -0.2524
  890YOPE   C2B12836   2.736   2.597   7.089  0.1502  0.1293  0.1155
  890YOPE   D3B12837   2.684   2.592   7.495 -0.0160 -0.0988 -0.1128
  890YOPE   C4B12838   2.554   2.685   7.885 -0.0085 -0.3072 -0.1428
  891YOPE   NH312839   1.820   2.321   6.187  0.1217  0.1364 -0.4518
  891YOPE   PO412840   2.193   2.395   6.181 -0.0031 -0.1754 -0.0574
  891YOPE   GL112841   2.067   2.448   6.631 -0.0436  0.0551  0.1178
  891YOPE   GL212842   2.404   2.355   6.734 -0.0130 -0.0004 -0.2489
  891YOPE   C1A12843   2.018   2.286   7.146 -0.3382 -0.1055 -0.2266
  891YOPE   D2A12844   1.632   2.053   7.308  0.0627 -0.2520  0.0236
  891YOPE   C3A12845   1.402   2.125   7.689  0.0380 -0.2363 -0.1086
  891YOPE   C4A12846   1.204   2.475   7.776 -0.1959  0.0206  0.0343
  891YOPE   C1B12847   2.495   2.119   7.127  0.2498 -0.0261  0.1851
  891YOPE   C2B12848   2.539   2.067   7.585 -0.0145 -0.4890  0.1663
  891YOPE   D3B12849   2.694   1.862   7.988  0.0066 -0.3000 -0.3355
  891YOPE   C4B12850   2.676   1.731   8.428  0.2182 -0.2000  0.1537
  892YOPE   NH312851   9.861  12.442   5.375  0.0842  0.2007 -0.0345
  892YOPE   PO412852  10.103  12.596   5.723  0.0504 -0.1337  0.2009
  892YOPE   GL112853   9.949  12.410   6.142  0.3206 -0.4959 -0.1376
  892YOPE   GL212854  10.001  12.769   6.357  0.0821 -0.5035 -0.1126
  892YOPE   C1A12855  10.166  12.275   6.480 -0.2168 -0.0696 -0.0754
  892YOPE   D2A12856  10.328  12.189   6.794 -0.1701  0.0438 -0.0728
  892YOPE   C3A12857  10.450  12.311   7.170 -0.0761  0.1045 -0.0403
  892YOPE   C4A12858  10.457  12.200   7.642  0.2477  0.0281  0.2198
  892YOPE   C1B12859   9.571  12.949   6.652 -0.5794 -0.0866  0.0966
  892YOPE   C2B12860   9.435  12.920   7.095 -0.0782  0.0221 -0.0623
  892YOPE   D3B12861   9.268  13.138   7.551 -0.1534 -0.1617  0.1934
  892YOPE   C4B12862   9.341  13.371   7.897  0.0018  0.0972  0.0631
  893YOPE   NH312863  10.314   1.339   6.400 -0.0655 -0.1231 -0.1514
  893YOPE   PO412864  10.660   1.594   6.378  0.3034 -0.2320  0.1067
  893YOPE   GL112865  10.473   1.741   6.696  0.0090 -0.3034 -0.4484
  893YOPE   GL212866  10.137   1.853   6.508  0.0841 -0.0698  0.0867
  893YOPE   C1A12867  10.522   1.728   7.177  0.1407 -0.0620 -0.1589
  893YOPE   D2A12868  10.583   1.668   7.567  0.1304  0.3826 -0.0406
  893YOPE   C3A12869  10.865   1.690   7.963  0.1952  0.1883  0.3115
  893YOPE   C4A12870  11.211   1.828   8.048  0.5079 -0.2550 -0.3588
  893YOPE   C1B12871  10.154   1.978   6.987  0.0778  0.0944 -0.1195
  893YOPE   C2B12872  10.201   2.043   7.386 -0.1491  0.1072 -0.1367
  893YOPE   D3B12873  10.219   1.975   7.770 -0.2639  0.1019  0.1379
  893YOPE   C4B12874   9.993   1.913   8.233  0.0283 -0.2686  0.2107
  894YOPE   NH312875   4.697  14.951   6.381 -0.1193 -0.2681  0.0514
  894YOPE   PO412876   5.162  15.032   6.445 -0.0584  0.0751  0.0853
  894YOPE   GL112877   5.108  14.923   6.880 -0.2417  0.0047  0.3229
  894YOPE   GL212878   5.248  15.149   6.976  0.0670  0.2262  0.1061
  894YOPE   C1A12879   5.034  14.826   7.291 -0.0122  0.0315 -0.3062
  894YOPE   D2A12880   4.856  14.924   7.593  0.2721  0.1272 -0.2681
  894YOPE   C3A12881   5.020  15.146   7.895 -0.0361  0.2008 -0.1223
  894YOPE   C4A12882   5.077  15.487   7.939  0.1987  0.1038 -0.0936
  894YOPE   C1B12883   5.501  15.151   7.260  0.1879 -0.1721 -0.0996
  894YOPE   C2B12884   5.408  14.883   7.650 -0.1242 -0.0341  0.4100
  894YOPE   D3B12885   5.224  14.700   7.879  0.1607 -0.0779  0.0825
  894YOPE   C4B12886   5.164  14.532   8.311 -0.3215  0.2988  0.5645
  895YOPE   NH312887  11.096  15.845   5.831 -0.0132  0.2727 -0.0996
  895YOPE   PO412888  11.436  15.878   6.054  0.0305 -0.4572  0.0222
  895YOPE   GL112889  11.256  15.791   6.450  0.2403  0.1194 -0.0414
  895YOPE   GL212890  11.375  15.858   6.722 -0.1399 -0.0451  0.0875
  895YOPE   C1A12891  11.087  15.431   6.715 -0.1014  0.1142 -0.0887
  895YOPE   D2A12892  10.928  15.132   6.868  0.0227  0.0564  0.2107
  895YOPE   C3A12893  10.498  15.112   7.141 -0.0740  0.0318  0.0131
  895YOPE   C4A12894  10.218  15.200   7.287  0.2461 -0.2963  0.1101
  895YOPE   C1B12895  11.215  15.822   7.193  0.1992 -0.2511  0.1152
  895YOPE   C2B12896  11.190  15.593   7.594 -0.0757 -0.0011  0.3214
  895YOPE   D3B12897  10.872  15.498   7.985  0.0213 -0.0728  0.3187
  895YOPE   C4B12898  10.485  15.494   8.124  0.1229  0.0516 -0.2350
  896YOPE   NH312899   2.319   3.688   6.122  0.0309  0.0694  0.1305
  896YOPE   PO412900   2.860   3.977   6.078 -0.3711  0.1123  0.1013
  896YOPE   GL112901   2.713   3.777   6.414  0.1136 -0.1789  0.1450
  896YOPE   GL212902   2.733   3.443   6.479 -0.2584 -0.4825 -0.0786
  896YOPE   C1A12903   2.427   3.759   6.735  0.1825 -0.0725  0.1964
  896YOPE   D2A12904   2.279   3.570   7.141  0.2326  0.0162  0.2913
  896YOPE   C3A12905   2.346   3.765   7.552 -0.0669  0.0139  0.1506
  896YOPE   C4A12906   2.120   3.885   7.948  0.4560 -0.0858 -0.3327
  896YOPE   C1B12907   2.937   3.200   6.774  0.2374 -0.0058  0.0995
  896YOPE   C2B12908   2.926   3.061   7.237 -0.1655  0.0140 -0.1436
  896YOPE   D3B12909   2.745   3.102   7.613  0.3815  0.0231  0.0574
  896YOPE   C4B12910   2.856   3.006   8.145 -0.0875  0.1565 -0.0045
  897YOPE   NH312911  18.081   5.775   5.833 -0.1366 -0.1038  0.0097
  897YOPE   PO412912  18.009   6.112   5.616  0.1331 -0.0861  0.2052
  897YOPE   GL112913  17.918   6.146   6.098  0.1108 -0.2341  0.3961
  897YOPE   GL212914  17.973   5.886   6.316  0.0414  0.1064 -0.0089
  897YOPE   C1A12915  17.938   6.436   6.410  0.5099  0.2339 -0.0784
  897YOPE   D2A12916  18.123   6.626   6.791 -0.0163  0.0803 -0.0357
  897YOPE   C3A12917  17.915   6.631   7.263 -0.1314 -0.0057 -0.1705
  897YOPE   C4A12918  17.933   6.524   7.663  0.0190  0.1285 -0.4527
  897YOPE   C1B12919  18.201   6.091   6.680  0.2921 -0.0264 -0.0128
  897YOPE   C2B12920  18.396   6.269   7.004 -0.1874 -0.0615 -0.1657
  897YOPE   D3B12921  18.396   6.391   7.452 -0.1290  0.0265  0.1640
  897YOPE   C4B12922  18.324   6.230   7.783  0.1026  0.0765 -0.0229
  898YOPE   NH312923  14.092   7.000   5.745  0.2172 -0.0574 -0.0094
  898YOPE   PO412924  14.504   6.902   5.863  0.0828  0.1361  0.0661
  898YOPE   GL112925  14.534   7.066   6.277 -0.1741  0.0105 -0.1205
  898YOPE   GL212926  14.145   7.080   6.265 -0.2156 -0.0203  0.0027
  898YOPE   C1A12927  14.447   7.090   6.721 -0.1903 -0.3301 -0.1160
  898YOPE   D2A12928  14.180   7.134   7.041 -0.0378 -0.0223  0.4762
  898YOPE   C3A12929  14.188   7.399   7.362 -0.1154 -0.2206  0.0214
  898YOPE   C4A12930  14.358   7.597   7.672  0.1449 -0.0327 -0.1890
  898YOPE   C1B12931  14.022   6.824   6.577  0.1163  0.4353  0.1253
  898YOPE   C2B12932  13.936   6.379   6.499 -0.0561  0.0552 -0.1145
  898YOPE   D3B12933  13.711   5.985   6.276 -0.0726 -0.1229 -0.0588
  898YOPE   C4B12934  13.625   5.570   6.432 -0.0870 -0.1053  0.1626
  899YOPE   NH312935   2.104   6.086   5.920 -0.1249 -0.0202 -0.3286
  899YOPE   PO412936   1.979   6.524   5.946 -0.2679 -0.0795  0.1417
  899YOPE   GL112937   2.053   6.740   6.337  0.0802 -0.0005  0.1036
  899YOPE   GL212938   2.146   7.031   6.269  0.1776 -0.3251  0.3229
  899YOPE   C1A12939   1.992   6.866   6.786 -0.0911 -0.0005  0.1859
  899YOPE   D2A12940   1.998   6.984   7.146  0.1213 -0.2518  0.1078
  899YOPE   C3A12941   2.010   7.157   7.566 -0.0636 -0.5142 -0.0192
  899YOPE   C4A12942   2.208   7.179   7.959 -0.1638  0.0794  0.0385
  899YOPE   C1B12943   2.286   7.257   6.648 -0.0961  0.2459  0.2477
  899YOPE   C2B12944   2.457   7.230   7.111  0.1776  0.0493  0.1169
  899YOPE   D3B12945   2.492   7.168   7.523 -0.1634 -0.0958 -0.2295
  899YOPE   C4B12946   2.683   7.363   7.895  0.1797 -0.0760 -0.1538
  900YOPE   NH312947  15.672   9.466   5.622  0.0513 -0.0903  0.2083
  900YOPE   PO412948  15.703   9.834   5.578  0.0652  0.0531  0.1255
  900YOPE   GL112949  15.854   9.815   5.963  0.1540 -0.3699 -0.0292
  900YOPE   GL212950  16.138  10.090   5.983 -0.1734  0.1967 -0.1950
  900YOPE   C1A12951  15.739   9.785   6.336 -0.2938 -0.0487  0.0763
  900YOPE   D2A12952  15.852   9.512   6.642  0.0437 -0.1019 -0.1831
  900YOPE   C3A12953  15.611   9.313   6.773 -0.0195  0.0154  0.3816
  900YOPE   C4A12954  15.541   8.989   7.147 -0.4170  0.0953 -0.3069
  900YOPE   C1B12955  16.259   9.718   6.251  0.0536 -0.0526  0.1417
  900YOPE   C2B12956  16.358   9.560   6.661 -0.1523 -0.1210 -0.5127
  900YOPE   D3B12957  16.304   9.570   7.063 -0.0186  0.0286  0.2133
  900YOPE   C4B12958  16.115   9.717   7.441 -0.2142 -0.1430  0.3915
  901YOPE   NH312959  17.001   0.769   6.155  0.0373  0.1261 -0.1935
  901YOPE   PO412960  16.639   0.592   6.093  0.0887 -0.1021  0.1255
  901YOPE   GL112961  16.636   0.692   6.498 -0.1858  0.0212  0.1537
  901YOPE   GL212962  16.903   0.627   6.704 -0.0949 -0.0209  0.1417
  901YOPE   C1A12963  16.431   0.643   6.868 -0.2420 -0.1977 -0.1237
  901YOPE   D2A12964  16.499   0.685   7.354 -0.0244 -0.1452 -0.0424
  901YOPE   C3A12965  16.351   0.657   7.821 -0.1326  0.0437  0.0695
  901YOPE   C4A12966  16.181   0.437   8.227  0.3051 -0.2238  0.0961
  901YOPE   C1B12967  16.978   0.560   7.146  0.1945  0.3995  0.2716
  901YOPE   C2B12968  16.963   0.611   7.588 -0.1176 -0.2341  0.1163
  901YOPE   D3B12969  16.902   0.462   7.962 -0.1778  0.2007 -0.1322
  901YOPE   C4B12970  16.745   0.077   8.231  0.2038 -0.0713  0.0318
  902YOPE   NH312971  14.755   9.593   5.575  0.2801 -0.3400 -0.1784
  902YOPE   PO412972  15.219   9.657   5.420 -0.2589 -0.0948 -0.2574
  902YOPE   GL112973  15.255   9.607   5.882  0.0019  0.2340  0.1674
  902YOPE   GL212974  15.113   9.806   5.920  0.1077  0.2377  0.0802
  902YOPE   C1A12975  15.295   9.445   6.259  0.1350  0.0484  0.4151
  902YOPE   D2A12976  15.143   9.407   6.629 -0.0641  0.1572  0.2901
  902YOPE   C3A12977  15.123   9.112   6.911  0.0420 -0.2434 -0.2008
  902YOPE   C4A12978  15.092   8.753   7.148 -0.0483 -0.1405  0.1219
  902YOPE   C1B12979  15.304  10.003   6.364 -0.0637  0.4540 -0.0300
  902YOPE   C2B12980  15.346   9.900   6.723  0.0645 -0.2594  0.1746
  902YOPE   D3B12981  15.230   9.640   7.059  0.2140 -0.1093  0.0510
  902YOPE   C4B12982  15.139   9.267   7.358  0.1541  0.1244 -0.0689
  903YOPE   NH312983   2.007  13.205   6.146 -0.0719  0.1419 -0.1453
  903YOPE   PO412984   1.664  12.985   6.026 -0.0681 -0.1219 -0.0366
  903YOPE   GL112985   1.555  13.103   6.479 -0.2294  0.0963 -0.3210
  903YOPE   GL212986   1.807  13.336   6.647  0.1116 -0.0818 -0.2843
  903YOPE   C1A12987   1.226  13.397   6.803  0.0730  0.2314  0.1047
  903YOPE   D2A12988   1.076  13.170   7.203 -0.3933  0.3042 -0.0618
  903YOPE   C3A12989   1.242  13.061   7.657  0.3916 -0.2785  0.1888
  903YOPE   C4A12990   1.089  12.781   8.104  0.1499 -0.1578 -0.0782
  903YOPE   C1B12991   2.057  13.147   6.992 -0.1854 -0.3087 -0.2467
  903YOPE   C2B12992   2.003  12.798   7.350  0.0325 -0.0844  0.0527
  903YOPE   D3B12993   1.681  12.807   7.484  0.1263  0.1132 -0.2203
  903YOPE   C4B12994   1.511  12.698   7.850  0.1764  0.1985  0.0550
  904YOPE   NH312995  12.302   2.410   6.353  0.0867 -0.0156 -0.0057
  904YOPE   PO412996  11.927   2.548   6.066 -0.1356  0.1550 -0.1073
  904YOPE   GL112997  11.802   2.585   6.412 -0.0959 -0.1467 -0.3980
  904YOPE   GL212998  11.893   2.303   6.612 -0.1693 -0.2642 -0.0237
  904YOPE   C1A12999  11.628   2.586   6.880  0.0279  0.0350 -0.0184
  904YOPE   D2A13000  11.637   2.712   7.298  0.1385 -0.1667  0.0807
  904YOPE   C3A13001  11.475   3.051   7.507  0.1752  0.0436 -0.0130
  904YOPE   C4A13002  11.259   3.406   7.783 -0.3967  0.0114  0.2124
  904YOPE   C1B13003  12.035   2.325   7.028 -0.0349  0.0543  0.1959
  904YOPE   C2B13004  11.991   2.361   7.512  0.0791 -0.0555 -0.1171
  904YOPE   D3B13005  12.136   2.474   7.834 -0.2204 -0.1738 -0.1243
  904YOPE   C4B13006  12.148   2.879   8.086  0.0323 -0.0948 -0.0785
  905YOPE   NH313007   0.766   4.092   5.856  0.0404  0.0955  0.0755
  905YOPE   PO413008   0.347   4.055   5.957  0.0781 -0.1407  0.0642
  905YOPE   GL113009   0.121   4.090   6.367 -0.1149 -0.1115 -0.2250
  905YOPE   GL213010  -0.189   4.224   6.371  0.0955  0.1202  0.0962
  905YOPE   C1A13011   0.201   4.305   6.641  0.0657 -0.0052  0.2167
  905YOPE   D2A13012   0.099   4.472   6.988  0.2622 -0.0594 -0.2585
  905YOPE   C3A13013   0.072   4.827   7.148  0.1250 -0.3399  0.0145
  905YOPE   C4A13014   0.340   4.613   7.481 -0.1271  0.1620 -0.1683
  905YOPE   C1B13015  -0.355   4.450   6.658 -0.0400  0.0363 -0.0287
  905YOPE   C2B13016  -0.418   4.636   7.074  0.1634 -0.1005  0.3482
  905YOPE   D3B13017  -0.239   4.631   7.538 -0.2093 -0.2777 -0.2053
  905YOPE   C4B13018   0.101   4.379   7.900 -0.2064  0.3290  0.0675
  906YOPE   NH313019   9.259  10.847   5.292  0.0092 -0.0048 -0.2400
  906YOPE   PO413020   8.902  11.118   5.208 -0.0245 -0.0597  0.2027
  906YOPE   GL113021   9.049  11.053   5.733 -0.0781 -0.0435  0.1271
  906YOPE   GL213022   8.774  11.035   5.897  0.1376  0.0064  0.3802
  906YOPE   C1A13023   9.213  10.842   6.092  0.0166 -0.0338 -0.0990
  906YOPE   D2A13024   9.336  10.652   6.542 -0.3493 -0.1164 -0.0102
  906YOPE   C3A13025   9.622  10.783   6.772  0.2764  0.0215  0.3894
  906YOPE   C4A13026   9.926  11.069   7.071  0.0779 -0.0888  0.0566
  906YOPE   C1B13027   8.789  11.120   6.397 -0.0389 -0.1500  0.3586
  906YOPE   C2B13028   8.932  10.962   6.737  0.1473  0.2488  0.0450
  906YOPE   D3B13029   8.850  10.897   7.090  0.0145  0.2295  0.1876
  906YOPE   C4B13030   8.637  11.303   7.323  0.0738 -0.2373  0.0082
  907YOPE   NH313031   8.521   5.149   5.806  0.0085 -0.0031 -0.1654
  907YOPE   PO413032   8.923   5.170   6.030 -0.0540  0.4542 -0.2544
  907YOPE   GL113033   8.997   4.887   6.345  0.0091 -0.0861  0.3981
  907YOPE   GL213034   8.870   5.093   6.547  0.3426  0.2451  0.1799
  907YOPE   C1A13035   8.929   4.660   6.699 -0.1250 -0.1541  0.0181
  907YOPE   D2A13036   8.797   4.275   6.786 -0.1288  0.1932 -0.1176
  907YOPE   C3A13037   8.738   4.195   7.226  0.0295  0.2926  0.0177
  907YOPE   C4A13038   8.958   4.208   7.642 -0.0964  0.0646 -0.2956
  907YOPE   C1B13039   8.837   5.269   6.877 -0.1450 -0.4003  0.1908
  907YOPE   C2B13040   8.826   5.459   7.235 -0.0478  0.0994  0.1287
  907YOPE   D3B13041   8.900   5.437   7.630 -0.3045 -0.1820 -0.0058
  907YOPE   C4B13042   9.201   5.315   7.995  0.1920 -0.1271  0.0451
  908YOPE   NH313043   9.532   7.087   5.768  0.2226  0.0564  0.2535
  908YOPE   PO413044   9.713   6.831   5.873 -0.0750  0.0367  0.0138
  908YOPE   GL113045   9.643   6.794   6.296 -0.0104  0.2401 -0.3884
  908YOPE   GL213046   9.736   7.109   6.392 -0.0838  0.1375 -0.0106
  908YOPE   C1A13047   9.518   6.741   6.647  0.2249 -0.2310 -0.0832
  908YOPE   D2A13048   9.381   7.056   7.014  0.0146 -0.0505  0.0841
  908YOPE   C3A13049   9.508   7.262   7.417  0.0177 -0.1165  0.0428
  908YOPE   C4A13050   9.533   7.573   7.717 -0.0412  0.2203 -0.1680
  908YOPE   C1B13051   9.898   7.130   6.782 -0.1918 -0.0396  0.3056
  908YOPE   C2B13052   9.876   7.060   7.202 -0.3057  0.2320 -0.0940
  908YOPE   D3B13053   9.988   7.102   7.611  0.1467  0.2914 -0.1713
  908YOPE   C4B13054   9.743   7.283   8.078  0.0366  0.1511 -0.1475
  909YOPE   NH313055   9.440   1.161   6.291  0.3023 -0.0224 -0.0281
  909YOPE   PO413056   9.861   1.026   6.106  0.1301 -0.0935  0.2432
  909YOPE   GL113057   9.846   0.974   6.519  0.3485 -0.0438 -0.0247
  909YOPE   GL213058  10.086   0.907   6.631 -0.1968 -0.2519  0.3789
  909YOPE   C1A13059   9.609   0.630   6.776 -0.0473  0.0916 -0.1196
  909YOPE   D2A13060   9.599   0.726   7.166 -0.1064  0.0082  0.0017
  909YOPE   C3A13061   9.611   0.491   7.577  0.0442  0.0680 -0.1795
  909YOPE   C4A13062   9.636   0.244   7.936 -0.1586 -0.0031 -0.0463
  909YOPE   C1B13063   9.953   1.011   7.045  0.0449  0.0929  0.1584
  909YOPE   C2B13064   9.797   1.055   7.493  0.0518  0.1131 -0.2062
  909YOPE   D3B13065   9.779   1.128   7.956  0.1056  0.1616  0.0739
  909YOPE   C4B13066  10.063   1.048   8.244  0.1735  0.0024 -0.0579
  910YOPE   NH313067   6.490  13.221   5.625 -0.0165 -0.1384 -0.1286
  910YOPE   PO413068   6.899  13.546   5.799 -0.2830 -0.0011  0.3280
  910YOPE   GL113069   6.794  13.359   6.113  0.2112  0.0377 -0.0445
  910YOPE   GL213070   6.516  13.289   6.122 -0.0256 -0.1349  0.2912
  910YOPE   C1A13071   6.823  13.288   6.545  0.0277  0.2244  0.0938
  910YOPE   D2A13072   7.175  13.328   6.774 -0.0479 -0.0518  0.1530
  910YOPE   C3A13073   7.057  13.469   7.193  0.2414  0.0425  0.1809
  910YOPE   C4A13074   6.676  13.684   7.410 -0.0213 -0.2529  0.0796
  910YOPE   C1B13075   6.318  13.204   6.548  0.0230  0.0219 -0.0986
  910YOPE   C2B13076   6.177  13.156   6.959  0.1464  0.0290  0.1384
  910YOPE   D3B13077   5.986  12.798   7.211  0.3140 -0.0056 -0.1274
  910YOPE   C4B13078   5.731  12.631   7.452  0.0330  0.1955 -0.2232
  911YOPE   NH313079  16.048  15.771   6.558  0.1575 -0.0917  0.0138
  911YOPE   PO413080  15.586  16.010   6.374  0.1428  0.2167  0.0189
  911YOPE   GL113081  15.698  16.185   6.731  0.4285 -0.1200 -0.1593
  911YOPE   GL213082  15.959  16.183   6.853  0.1008 -0.2466 -0.3767
  911YOPE   C1A13083  15.580  16.204   7.154  0.2114  0.2217  0.1368
  911YOPE   D2A13084  15.396  16.292   7.460  0.3062  0.2361 -0.3115
  911YOPE   C3A13085  15.537  16.217   7.800  0.0151 -0.1443  0.3053
  911YOPE   C4A13086  15.690  16.299   8.225 -0.3948 -0.3341  0.2467
  911YOPE   C1B13087  16.328  16.174   7.054 -0.0517 -0.1647 -0.0657
  911YOPE   C2B13088  16.394  15.973   7.416  0.0583  0.0885 -0.3067
  911YOPE   D3B13089  16.503  15.717   7.719  0.2675  0.2638  0.0543
  911YOPE   C4B13090  16.585  15.764   8.208 -0.2831 -0.0993 -0.0624
  912YOPE   NH313091  14.047  15.201   6.777  0.1841 -0.0266  0.2744
  912YOPE   PO413092  14.284  15.657   6.660  0.2599  0.2525  0.0809
  912YOPE   GL113093  14.239  15.755   7.064  0.0414  0.0628  0.2713
  912YOPE   GL213094  14.048  15.466   7.213  0.1081  0.1783 -0.0210
  912YOPE   C1A13095  13.940  15.963   7.329 -0.0956  0.3075 -0.0586
  912YOPE   D2A13096  13.821  16.296   7.512  0.2491 -0.2581 -0.0403
  912YOPE   C3A13097  13.704  16.400   7.812 -0.1576  0.3167 -0.2669
  912YOPE   C4A13098  13.590  16.727   8.141 -0.2249  0.1002  0.0503
  912YOPE   C1B13099  14.273  15.551   7.661  0.1749  0.1791 -0.2221
  912YOPE   C2B13100  14.206  15.755   7.998 -0.2693  0.0031 -0.1175
  912YOPE   D3B13101  14.175  16.162   8.263 -0.3400  0.2393  0.1504
  912YOPE   C4B13102  13.791  16.349   8.447  0.0022 -0.2912 -0.0850
  913YOPE   NH313103   8.807  12.522   5.912  0.0525  0.1010 -0.0100
  913YOPE   PO413104   8.677  12.926   5.916  0.1870 -0.1374  0.0563
  913YOPE   GL113105   8.734  12.751   6.357 -0.1210 -0.0991 -0.1079
  913YOPE   GL213106   8.632  12.449   6.453 -0.1848  0.0298  0.2120
  913YOPE   C1A13107   8.562  12.881   6.765  0.0069  0.0580  0.1798
  913YOPE   D2A13108   8.557  12.794   7.216 -0.3398  0.0998  0.2173
  913YOPE   C3A13109   8.269  12.971   7.377 -0.1871  0.2552 -0.0994
  913YOPE   C4A13110   8.072  13.316   7.410  0.3003 -0.0854 -0.0502
  913YOPE   C1B13111   8.553  12.388   6.863 -0.0379 -0.1079 -0.0734
  913YOPE   C2B13112   8.625  12.274   7.302  0.5357  0.2028 -0.2106
  913YOPE   D3B13113   8.896  12.326   7.721  0.3152 -0.0374  0.1253
  913YOPE   C4B13114   9.004  12.405   8.178 -0.0411 -0.2590 -0.0436
  914YOPE   NH313115  17.914  14.110   6.046  0.3174  0.1440  0.2168
  914YOPE   PO413116  17.946  13.751   6.345 -0.1118  0.0337 -0.1189
  914YOPE   GL113117  18.083  13.765   6.664 -0.1463  0.0460  0.0140
  914YOPE   GL213118  17.988  13.395   6.700 -0.0994 -0.1594 -0.0622
  914YOPE   C1A13119  18.207  13.841   7.063 -0.1238 -0.1842 -0.3223
  914YOPE   D2A13120  18.538  13.651   7.279  0.1603 -0.0612 -0.0620
  914YOPE   C3A13121  18.613  13.414   7.565  0.1815 -0.1385 -0.0414
  914YOPE   C4A13122  18.939  13.197   7.780 -0.0433  0.1109  0.2754
  914YOPE   C1B13123  18.041  13.383   7.082 -0.1516 -0.0780  0.0305
  914YOPE   C2B13124  18.220  13.148   7.349  0.1938  0.1160  0.2108
  914YOPE   D3B13125  18.066  12.870   7.822  0.0107 -0.0069 -0.3006
  914YOPE   C4B13126  18.201  12.716   8.234 -0.1320 -0.1656 -0.1756
  915YOPE   NH313127   7.848  15.738   5.887 -0.0641  0.1086  0.0903
  915YOPE   PO413128   7.599  15.301   5.881 -0.0515  0.0776 -0.1759
  915YOPE   GL113129   7.482  15.097   6.288  0.0645  0.1809  0.3002
  915YOPE   GL213130   7.200  15.271   6.360  0.0404 -0.1164 -0.0141
  915YOPE   C1A13131   7.500  14.925   6.680  0.3217  0.0844  0.0132
  915YOPE   D2A13132   7.281  14.913   7.155  0.2712  0.1792 -0.0112
  915YOPE   C3A13133   7.551  14.723   7.430  0.2743 -0.1485  0.1271
  915YOPE   C4A13134   7.339  14.459   7.766  0.2358  0.1537  0.0201
  915YOPE   C1B13135   7.067  15.267   6.814  0.0691  0.0067  0.2198
  915YOPE   C2B13136   7.019  15.303   7.238 -0.0548 -0.1161 -0.0428
  915YOPE   D3B13137   7.267  15.234   7.574  0.2176  0.1520 -0.1108
  915YOPE   C4B13138   7.316  14.960   7.868  0.0543  0.1053 -0.0907
  916YOPE   NH313139   9.415   6.344   5.904  0.2283 -0.3044  0.0493
  916YOPE   PO413140   9.586   5.961   5.857  0.1753 -0.0287 -0.5283
  916YOPE   GL113141   9.557   6.010   6.338  0.1432  0.0575 -0.0201
  916YOPE   GL213142   9.702   6.258   6.479  0.2421  0.1678 -0.2354
  916YOPE   C1A13143   9.385   5.762   6.676 -0.0747  0.2646 -0.3852
  916YOPE   D2A13144   9.411   5.818   7.088 -0.1392  0.1946  0.0485
  916YOPE   C3A13145   9.576   5.612   7.460 -0.0378  0.3763 -0.1714
  916YOPE   C4A13146   9.509   5.717   7.858  0.3662  0.1601  0.0133
  916YOPE   C1B13147   9.463   6.283   6.840  0.0106  0.0042 -0.1212
  916YOPE   C2B13148   9.085   6.399   7.157  0.4566 -0.1296 -0.0666
  916YOPE   D3B13149   8.650   6.524   7.275  0.0893  0.0373  0.3027
  916YOPE   C4B13150   8.340   6.640   7.581 -0.1449 -0.0138 -0.1380
  917YOPE   NH313151   4.455   3.398   6.082  0.1796  0.0701 -0.2467
  917YOPE   PO413152   4.212   3.692   5.960 -0.1664  0.0073 -0.1588
  917YOPE   GL113153   4.124   3.846   6.319 -0.0666  0.1953 -0.2070
  917YOPE   GL213154   3.741   3.979   6.380  0.0766  0.3088 -0.0025
  917YOPE   C1A13155   4.133   4.148   6.604  0.2076  0.1438  0.1725
  917YOPE   D2A13156   4.173   4.249   6.966  0.0393 -0.1008  0.0679
  917YOPE   C3A13157   4.027   4.019   7.227  0.2437 -0.1137  0.1815
  917YOPE   C4A13158   3.791   3.909   7.546  0.2913 -0.0620  0.1850
  917YOPE   C1B13159   3.656   4.034   6.791  0.2344 -0.0623 -0.1088
  917YOPE   C2B13160   3.423   4.124   7.202  0.0612  0.1682 -0.2451
  917YOPE   D3B13161   3.283   4.505   7.459  0.1097 -0.3671 -0.2447
  917YOPE   C4B13162   2.816   4.672   7.528  0.1597  0.1812  0.1192
  918YOPE   NH313163  12.064  10.144   5.293  0.1746  0.1447  0.4452
  918YOPE   PO413164  12.135  10.620   5.401  0.0389  0.0997 -0.3032
  918YOPE   GL113165  12.201  10.469   5.765  0.1182  0.2142  0.0190
  918YOPE   GL213166  11.978  10.516   6.002 -0.0818 -0.1938  0.0069
  918YOPE   C1A13167  12.497  10.478   6.206  0.2990  0.1829  0.2206
  918YOPE   D2A13168  12.431  10.563   6.612 -0.0548  0.0258 -0.0497
  918YOPE   C3A13169  12.076  10.779   6.700  0.4519 -0.1655 -0.1086
  918YOPE   C4A13170  11.911  11.220   6.659 -0.1107 -0.1113 -0.1528
  918YOPE   C1B13171  11.974  10.372   6.405  0.0580  0.0292 -0.1428
  918YOPE   C2B13172  12.125  10.188   6.785  0.2952  0.2728 -0.0165
  918YOPE   D3B13173  11.944   9.934   7.046 -0.1469  0.5032 -0.1553
  918YOPE   C4B13174  11.910   9.539   7.279  0.1642  0.0481 -0.1496
  919YOPE   NH313175  16.823   4.098   6.064  0.2824 -0.1868  0.2015
  919YOPE   PO413176  16.908   4.489   6.143 -0.0699 -0.2109 -0.0720
  919YOPE   GL113177  16.846   4.712   6.526 -0.2622 -0.2606  0.0319
  919YOPE   GL213178  17.129   4.971   6.481  0.1777  0.1052  0.2617
  919YOPE   C1A13179  16.319   4.751   6.723 -0.0123  0.1116 -0.0975
  919YOPE   D2A13180  16.361   4.971   7.064 -0.1527 -0.1155  0.1896
  919YOPE   C3A13181  16.207   4.840   7.405 -0.0832 -0.0089  0.1119
  919YOPE   C4A13182  15.902   4.684   7.624  0.1559  0.3217 -0.1755
  919YOPE   C1B13183  17.248   4.839   6.949 -0.2165 -0.3003  0.4604
  919YOPE   C2B13184  17.110   4.874   7.284 -0.2286  0.1865 -0.0463
  919YOPE   D3B13185  16.878   4.645   7.574  0.0725 -0.0945 -0.2476
  919YOPE   C4B13186  16.440   4.603   7.758 -0.0085  0.2673  0.1887
  920YOPE   NH313187   6.433   8.085   5.581 -0.0547  0.1956 -0.0917
  920YOPE   PO413188   6.608   7.733   5.435 -0.0338  0.0331 -0.3008
  920YOPE   GL113189   6.770   7.732   5.873  0.0156 -0.2558  0.2038
  920YOPE   GL213190   6.496   7.789   6.084 -0.3172 -0.1008 -0.0785
  920YOPE   C1A13191   6.887   7.593   6.357  0.1381  0.1474 -0.0303
  920YOPE   D2A13192   7.126   7.294   6.754 -0.0590 -0.1694 -0.0209
  920YOPE   C3A13193   7.482   7.349   7.073 -0.0115 -0.0673 -0.2496
  920YOPE   C4A13194   7.559   7.125   7.456 -0.1427 -0.1693  0.1454
  920YOPE   C1B13195   6.456   7.756   6.479  0.0279  0.1860  0.2179
  920YOPE   C2B13196   6.775   7.685   6.841  0.3635  0.1480 -0.2686
  920YOPE   D3B13197   7.150   7.732   7.034  0.1240  0.0702  0.0305
  920YOPE   C4B13198   7.300   8.050   7.310 -0.2916  0.0248 -0.0754
  921YOPE   NH313199  13.518  16.565   6.636 -0.1071 -0.0826 -0.0638
  921YOPE   PO413200  13.088  16.480   6.511  0.0809 -0.0871 -0.0706
  921YOPE   GL113201  13.000  16.254   6.869  0.1525 -0.1528 -0.0585
  921YOPE   GL213202  12.749  16.504   7.076  0.2244 -0.2076  0.1562
  921YOPE   C1A13203  13.068  16.225   7.294  0.0242 -0.2436  0.0282
  921YOPE   D2A13204  13.349  16.065   7.528  0.1695 -0.0724  0.1067
  921YOPE   C3A13205  13.324  16.115   8.011  0.0235 -0.0893 -0.1603
  921YOPE   C4A13206  13.260  16.465   8.372  0.1917 -0.0704 -0.1651
  921YOPE   C1B13207  12.653  16.482   7.473 -0.1914  0.4660  0.2412
  921YOPE   C2B13208  12.429  16.255   7.684 -0.2584  0.1191  0.2080
  921YOPE   D3B13209  12.415  15.999   7.995 -0.0312 -0.2046  0.0039
  921YOPE   C4B13210  12.126  15.978   8.420  0.2238 -0.1147  0.2136
  922YOPE   NH313211  16.007   2.321   6.258  0.1148 -0.1378 -0.1118
  922YOPE   PO413212  15.797   1.956   6.217  0.2005  0.1043  0.1371
  922YOPE   GL113213  16.143   1.767   6.492  0.1213 -0.0221  0.2712
  922YOPE   GL213214  16.431   1.971   6.558 -0.0526 -0.2109 -0.0880
  922YOPE   C1A13215  16.128   1.580   6.938  0.1361  0.0135  0.1311
  922YOPE   D2A13216  16.435   1.572   7.227  0.0708 -0.2773 -0.1665
  922YOPE   C3A13217  16.242   1.651   7.660 -0.0358  0.0243 -0.1015
  922YOPE   C4A13218  16.208   1.499   7.998  0.1495  0.0593  0.0547
  922YOPE   C1B13219  16.361   2.027   6.976 -0.2052 -0.3352 -0.0570
  922YOPE   C2B13220  16.462   2.113   7.380 -0.0741 -0.0786 -0.3370
  922YOPE   D3B13221  16.365   2.093   7.776 -0.2132 -0.3523 -0.2248
  922YOPE   C4B13222  16.586   2.322   8.027 -0.0746 -0.0632 -0.2990
  923YOPE   NH313223  16.758  11.208   5.708  0.0462 -0.0557  0.3117
  923YOPE   PO413224  17.008  11.413   5.998  0.0504 -0.0715 -0.0729
  923YOPE   GL113225  16.726  11.258   6.229  0.1654 -0.0417  0.5043
  923YOPE   GL213226  16.524  11.306   6.261  0.2255 -0.2496  0.0534
  923YOPE   C1A13227  16.876  11.083   6.639 -0.2025 -0.1250  0.1253
  923YOPE   D2A13228  16.777  10.856   6.992  0.5141  0.1397  0.3770
  923YOPE   C3A13229  16.958  11.103   7.210  0.3147 -0.2731  0.2294
  923YOPE   C4A13230  16.863  11.356   7.540 -0.2792 -0.1997 -0.0201
  923YOPE   C1B13231  16.377  11.117   6.604 -0.0702 -0.1242 -0.1930
  923YOPE   C2B13232  16.147  11.029   7.025 -0.2773  0.0988  0.0855
  923YOPE   D3B13233  16.392  10.978   7.350 -0.2369 -0.2214  0.0915
  923YOPE   C4B13234  16.438  10.879   7.771  0.0083 -0.2164  0.1962
  924YOPE   NH313235   3.136  13.881   5.880 -0.0404  0.1095  0.0743
  924YOPE   PO413236   3.059  14.168   6.142  0.2077 -0.2260  0.0498
  924YOPE   GL113237   2.769  14.017   6.322  0.1617  0.4280  0.0548
  924YOPE   GL213238   2.445  14.098   6.492  0.0813  0.0044 -0.0289
  924YOPE   C1A13239   2.922  13.622   6.672  0.2159  0.2676  0.0517
  924YOPE   D2A13240   2.904  13.350   6.991 -0.1541  0.0982  0.1551
  924YOPE   C3A13241   2.998  13.524   7.406  0.0143 -0.2565 -0.0039
  924YOPE   C4A13242   2.990  13.756   7.847  0.2221  0.1558  0.0669
  924YOPE   C1B13243   2.449  13.797   6.808 -0.2318 -0.2158 -0.2635
  924YOPE   C2B13244   2.487  13.597   7.126  0.1014  0.4110 -0.4023
  924YOPE   D3B13245   2.550  13.737   7.551  0.0506  0.2774 -0.1206
  924YOPE   C4B13246   2.496  13.849   7.923 -0.4039 -0.2516 -0.1507
  925YOPE   NH313247   2.732   0.820   5.546  0.0622 -0.0374  0.0218
  925YOPE   PO413248   3.085   0.909   5.670  0.0728  0.1223  0.3020
  925YOPE   GL113249   3.103   0.875   6.136  0.1688  0.0840 -0.0956
  925YOPE   GL213250   2.999   1.194   6.404  0.0304 -0.0259 -0.1699
  925YOPE   C1A13251   3.174   0.490   6.335  0.0695  0.1043  0.1967
  925YOPE   D2A13252   3.428   0.510   6.679  0.1182  0.0481 -0.0312
  925YOPE   C3A13253   3.926   0.546   6.696  0.1665 -0.1384  0.0058
  925YOPE   C4A13254   4.162   0.934   6.791 -0.1948  0.2511  0.0582
  925YOPE   C1B13255   3.055   1.270   6.830 -0.1572  0.3328  0.1622
  925YOPE   C2B13256   3.230   1.249   7.289 -0.0073 -0.2114 -0.0233
  925YOPE   D3B13257   3.259   1.238   7.823 -0.2146  0.2386 -0.0166
  925YOPE   C4B13258   3.208   1.474   8.141 -0.1929  0.0486  0.3310
  926YOPE   NH313259  11.112   1.778   6.413 -0.2156 -0.0163 -0.1784
  926YOPE   PO413260  11.433   1.378   6.430  0.0533  0.0455 -0.1235
  926YOPE   GL113261  11.643   1.345   6.756  0.0771 -0.1871 -0.1021
  926YOPE   GL213262  11.504   1.564   6.949 -0.2605 -0.0804  0.0562
  926YOPE   C1A13263  11.911   1.317   7.111  0.2083 -0.0689 -0.3097
  926YOPE   D2A13264  11.946   1.309   7.538 -0.0133  0.1776  0.0543
  926YOPE   C3A13265  12.088   1.572   7.921 -0.0299 -0.0263 -0.0577
  926YOPE   C4A13266  12.291   1.726   8.290  0.1645  0.2811  0.1183
  926YOPE   C1B13267  11.432   1.682   7.277 -0.0487 -0.0449 -0.0544
  926YOPE   C2B13268  11.491   1.516   7.625  0.0356  0.0387  0.0972
  926YOPE   D3B13269  11.658   1.327   7.991 -0.1834  0.0184 -0.2842
  926YOPE   C4B13270  11.851   1.421   8.331  0.3330  0.0605  0.0074
  927YOPE   NH313271   5.169  17.645   6.249 -0.3155 -0.1200  0.2294
  927YOPE   PO413272   5.049  17.342   6.502 -0.0605 -0.0059 -0.0899
  927YOPE   GL113273   4.873  17.562   6.766 -0.0275 -0.2303  0.0188
  927YOPE   GL213274   4.855  17.849   6.607  0.1493 -0.1686  0.2821
  927YOPE   C1A13275   4.464  17.591   6.984  0.2363 -0.0713  0.0323
  927YOPE   D2A13276   4.269  17.560   7.360  0.0883  0.0590  0.0774
  927YOPE   C3A13277   4.580  17.609   7.601 -0.0968  0.0993 -0.0809
  927YOPE   C4A13278   4.445  17.402   8.023  0.1926 -0.3059 -0.2109
  927YOPE   C1B13279   4.680  18.033   6.992  0.0211  0.1643 -0.1577
  927YOPE   C2B13280   4.260  18.071   7.154  0.0108 -0.3662 -0.1378
  927YOPE   D3B13281   4.168  18.016   7.583  0.2011 -0.0132 -0.2280
  927YOPE   C4B13282   3.909  18.221   7.931  0.1183 -0.1896  0.3367
  928YOPE   NH313283   9.877  14.091   5.805  0.1068  0.0532  0.1068
  928YOPE   PO413284   9.415  14.189   5.766 -0.1388 -0.2456 -0.2393
  928YOPE   GL113285   9.467  14.242   6.226 -0.2955 -0.0349  0.1592
  928YOPE   GL213286   9.838  14.288   6.325 -0.2740 -0.0440  0.0106
  928YOPE   C1A13287   9.419  14.049   6.598  0.0326 -0.2851 -0.1296
  928YOPE   D2A13288   9.152  13.896   6.954 -0.0184  0.0162  0.1091
  928YOPE   C3A13289   9.133  14.038   7.268  0.1300  0.2632  0.1610
  928YOPE   C4A13290   8.750  13.992   7.533 -0.1683 -0.1516  0.2133
  928YOPE   C1B13291   9.748  14.430   6.722  0.1597 -0.2273  0.1308
  928YOPE   C2B13292   9.517  14.398   7.022  0.0232  0.0542 -0.0052
  928YOPE   D3B13293   9.514  14.407   7.541 -0.0564 -0.2304  0.0262
  928YOPE   C4B13294   9.796  14.434   7.889  0.2771 -0.0622 -0.0752
  929YOPE   NH313295   9.879   5.303   5.759  0.3479 -0.1167 -0.1575
  929YOPE   PO413296   9.722   5.534   6.113 -0.0780 -0.2226  0.0671
  929YOPE   GL113297   9.917   5.650   6.609  0.0054 -0.1702  0.1383
  929YOPE   GL213298  10.248   5.659   6.730  0.3288 -0.0724 -0.0400
  929YOPE   C1A13299   9.831   5.514   7.016  0.0686  0.2369  0.0362
  929YOPE   D2A13300  10.077   5.454   7.373  0.0045  0.3730  0.3088
  929YOPE   C3A13301  10.088   5.307   7.718 -0.0585  0.0192  0.0652
  929YOPE   C4A13302  10.096   4.948   8.014 -0.3216 -0.1668  0.3053
  929YOPE   C1B13303  10.440   5.585   7.067 -0.1084 -0.3188  0.1951
  929YOPE   C2B13304  10.904   5.673   7.296  0.0340  0.1631 -0.0862
  929YOPE   D3B13305  11.040   5.528   7.701 -0.1218  0.0309 -0.3208
  929YOPE   C4B13306  11.033   5.248   8.040 -0.0714 -0.2212 -0.1126
  930YOPE   NH313307   5.945  10.565   5.498  0.0599  0.0791  0.2229
  930YOPE   PO413308   6.333  10.851   5.296 -0.1157  0.1046  0.0517
  930YOPE   GL113309   6.183  10.990   5.709  0.4398  0.0403 -0.0209
  930YOPE   GL213310   5.991  10.819   5.920 -0.1151 -0.1021 -0.3333
  930YOPE   C1A13311   6.467  10.929   5.987  0.1916 -0.1852 -0.0011
  930YOPE   D2A13312   6.692  11.085   6.320 -0.0751  0.2585 -0.1913
  930YOPE   C3A13313   6.422  11.182   6.603  0.0992  0.1228 -0.0729
  930YOPE   C4A13314   6.408  11.320   7.066 -0.2586 -0.1610 -0.2310
  930YOPE   C1B13315   6.187  10.721   6.287 -0.0142 -0.1103 -0.1338
  930YOPE   C2B13316   6.177  10.758   6.710  0.1669 -0.0086  0.2402
  930YOPE   D3B13317   6.451  10.730   7.084  0.3291 -0.0059 -0.0381
  930YOPE   C4B13318   6.665  10.723   7.495  0.1874  0.0875 -0.0788
  931YOPE   NH313319   9.183   4.581   5.998  0.1709  0.2718 -0.3538
  931YOPE   PO413320   9.507   4.497   5.849 -0.0274 -0.2211 -0.2161
  931YOPE   GL113321   9.806   4.351   6.186  0.1565  0.0768 -0.2186
  931YOPE   GL213322   9.967   4.649   6.455 -0.2171 -0.0267 -0.4926
  931YOPE   C1A13323  10.250   4.218   6.516  0.0736 -0.2080  0.2093
  931YOPE   D2A13324  10.585   4.023   6.704 -0.3171  0.2742  0.3219
  931YOPE   C3A13325  10.668   4.184   7.151 -0.1679  0.2216 -0.1518
  931YOPE   C4A13326  10.950   4.421   7.364  0.1488  0.5872  0.1651
  931YOPE   C1B13327   9.592   4.665   6.629  0.4528 -0.0597 -0.2153
  931YOPE   C2B13328   9.368   4.753   7.049  0.2318 -0.1680 -0.1587
  931YOPE   D3B13329   8.963   4.624   7.367  0.0535 -0.0832 -0.5366
  931YOPE   C4B13330   8.484   4.521   7.558 -0.1112  0.0524 -0.3106
  932YOPE   NH313331   2.831   5.504   5.941  0.0180 -0.1726 -0.0443
  932YOPE   PO413332   2.382   5.341   6.153 -0.0207 -0.2961 -0.0359
  932YOPE   GL113333   2.332   5.385   6.528 -0.1117  0.0675  0.0208
  932YOPE   GL213334   2.046   5.404   6.677 -0.1500 -0.0491 -0.0391
  932YOPE   C1A13335   2.561   5.542   6.938 -0.0807 -0.2416 -0.1608
  932YOPE   D2A13336   2.596   5.622   7.366  0.2350  0.0104  0.0537
  932YOPE   C3A13337   2.560   5.675   7.781  0.0118  0.0745 -0.0896
  932YOPE   C4A13338   2.516   5.500   8.118  0.0242  0.0754 -0.0587
  932YOPE   C1B13339   2.092   5.441   7.133 -0.2167  0.1997 -0.5194
  932YOPE   C2B13340   1.948   5.684   7.459 -0.0207 -0.2877  0.0395
  932YOPE   D3B13341   2.249   6.014   7.582 -0.0053  0.1688 -0.1116
  932YOPE   C4B13342   2.587   6.355   7.704 -0.0823 -0.0768  0.0733
  933YOPE   NH313343  11.680   3.782   5.868 -0.5674  0.1672 -0.0436
  933YOPE   PO413344  11.752   3.413   5.696  0.2683 -0.1404  0.0914
  933YOPE   GL113345  11.969   3.400   6.179 -0.2830  0.1507 -0.0062
  933YOPE   GL213346  12.062   3.711   6.248  0.2092 -0.1602  0.1652
  933YOPE   C1A13347  11.795   3.246   6.523 -0.0460 -0.0427 -0.0319
  933YOPE   D2A13348  12.256   3.229   6.809  0.1038  0.0817  0.4406
  933YOPE   C3A13349  12.418   3.435   7.093  0.3038 -0.3029 -0.3503
  933YOPE   C4A13350  12.525   3.581   7.465  0.2114 -0.1086  0.5191
  933YOPE   C1B13351  11.783   3.737   6.661  0.2338  0.1730  0.1468
  933YOPE   C2B13352  11.778   3.851   7.064  0.1625  0.0576  0.0058
  933YOPE   D3B13353  12.082   3.786   7.392 -0.0297 -0.0875 -0.0361
  933YOPE   C4B13354  12.280   3.795   7.796 -0.0791 -0.1438  0.4682
  934YOPE   NH313355   0.285   1.510   6.441 -0.4625  0.2347  0.2662
  934YOPE   PO413356   0.120   1.820   6.278 -0.0918  0.1669 -0.0587
  934YOPE   GL113357   0.020   1.779   6.725 -0.1022 -0.4390 -0.0841
  934YOPE   GL213358   0.226   1.742   6.978  0.0360 -0.2861 -0.0647
  934YOPE   C1A13359  -0.391   1.907   6.976 -0.1288  0.0010 -0.0633
  934YOPE   D2A13360  -0.505   2.110   7.334 -0.1825  0.0235  0.2768
  934YOPE   C3A13361  -0.587   1.945   7.686  0.0565 -0.2399  0.0726
  934YOPE   C4A13362  -0.536   1.697   8.042  0.0506 -0.1428  0.4350
  934YOPE   C1B13363   0.309   1.740   7.382  0.1155  0.0084  0.1095
  934YOPE   C2B13364   0.567   1.577   7.607 -0.1303 -0.0936 -0.0702
  934YOPE   D3B13365   0.598   1.175   7.850  0.3167  0.1481 -0.0258
  934YOPE   C4B13366   0.249   1.034   8.188 -0.2904  0.2250  0.0964
  935YOPE   NH313367  16.348  15.286   6.678  0.5267  0.0427 -0.1635
  935YOPE   PO413368  16.513  15.561   6.497 -0.0292  0.2874  0.1337
  935YOPE   GL113369  16.740  15.441   6.964  0.1923  0.0022  0.0116
  935YOPE   GL213370  17.009  15.305   6.964  0.1728 -0.2168  0.3422
  935YOPE   C1A13371  16.468  15.454   7.337  0.0695  0.0512  0.2489
  935YOPE   D2A13372  16.497  15.223   7.759  0.1745 -0.2702  0.0048
  935YOPE   C3A13373  16.719  15.328   8.125  0.0093  0.1232 -0.1462
  935YOPE   C4A13374  16.942  15.492   8.516  0.4096 -0.1836  0.1719
  935YOPE   C1B13375  16.950  15.565   7.361  0.1672  0.0280 -0.0945
  935YOPE   C2B13376  16.963  15.433   7.716  0.0889  0.2940 -0.4285
  935YOPE   D3B13377  17.235  15.230   8.038  0.0706  0.0285  0.0577
  935YOPE   C4B13378  17.324  14.776   8.030 -0.0732 -0.0300 -0.1932
  936YOPE   NH313379  11.459   2.271   6.176 -0.0506  0.2868 -0.4633
  936YOPE   PO413380  11.019   2.263   6.246 -0.1722  0.1939  0.1021
  936YOPE   GL113381  10.870   2.101   6.706 -0.0253  0.0722 -0.0820
  936YOPE   GL213382  11.054   1.872   6.912 -0.0664  0.3987  0.1933
  936YOPE   C1A13383  10.613   2.209   7.099 -0.2266 -0.0816  0.0351
  936YOPE   D2A13384  10.595   2.262   7.588 -0.1310  0.0304  0.0022
  936YOPE   C3A13385  10.639   2.646   7.814  0.1310  0.0380  0.0688
  936YOPE   C4A13386  10.664   2.954   8.063  0.2225 -0.5300 -0.3485
  936YOPE   C1B13387  10.989   1.875   7.276  0.0771 -0.0160  0.0382
  936YOPE   C2B13388  10.961   1.968   7.609 -0.0644  0.0945 -0.1178
  936YOPE   D3B13389  10.992   2.295   7.924 -0.0033  0.0370 -0.1233
  936YOPE   C4B13390  10.898   2.540   8.270  0.0783  0.1630 -0.0168
  937YOPE   NH313391   8.951   8.032   5.616 -0.5759 -0.1598 -0.2741
  937YOPE   PO413392   8.416   8.078   5.624  0.1135 -0.2149 -0.1194
  937YOPE   GL113393   8.118   8.377   5.929 -0.2533  0.3946 -0.2446
  937YOPE   GL213394   7.816   8.610   5.946  0.2638  0.0324  0.0706
  937YOPE   C1A13395   8.045   8.502   6.381 -0.2056  0.0914  0.0367
  937YOPE   D2A13396   8.134   8.442   6.899  0.2564 -0.0284 -0.0793
  937YOPE   C3A13397   7.945   8.698   7.149  0.4743 -0.4672  0.1875
  937YOPE   C4A13398   7.948   8.579   7.478 -0.1614  0.3425  0.1985
  937YOPE   C1B13399   7.569   8.809   6.221  0.0052  0.1664 -0.0965
  937YOPE   C2B13400   7.183   8.947   6.578  0.1242  0.5670 -0.0294
  937YOPE   D3B13401   6.861   9.169   6.522 -0.0450  0.0682  0.4627
  937YOPE   C4B13402   6.749   9.631   6.300 -0.1710 -0.1313 -0.0536
  938YOPE   NH313403   4.677  17.189   6.187  0.3363  0.0706 -0.1648
  938YOPE   PO413404   4.440  16.862   6.146 -0.0023 -0.0857  0.5210
  938YOPE   GL113405   4.286  16.625   6.498  0.2308  0.0724 -0.1182
  938YOPE   GL213406   4.141  16.400   6.399  0.0260  0.2788  0.1593
  938YOPE   C1A13407   4.338  16.691   6.970  0.3041 -0.2278  0.1225
  938YOPE   D2A13408   4.473  16.723   7.374  0.1748  0.0296  0.1802
  938YOPE   C3A13409   4.201  16.571   7.708  0.1965 -0.1779 -0.0049
  938YOPE   C4A13410   3.862  16.537   8.128 -0.2173 -0.1496 -0.0247
  938YOPE   C1B13411   4.226  16.205   6.853  0.2400 -0.4377  0.3504
  938YOPE   C2B13412   4.288  16.162   7.315 -0.0591 -0.3128  0.0858
  938YOPE   D3B13413   4.254  16.078   7.762 -0.0053 -0.0820 -0.3370
  938YOPE   C4B13414   4.260  16.087   8.248  0.2931  0.0441  0.1086
  939YOPE   NH313415   4.407   7.619   5.397  0.0435 -0.1790 -0.1813
  939YOPE   PO413416   4.494   7.261   5.633 -0.3162  0.1006  0.0845
  939YOPE   GL113417   4.439   7.053   5.962  0.0632  0.3756 -0.1334
  939YOPE   GL213418   4.610   6.804   6.068 -0.1131  0.0152 -0.2047
  939YOPE   C1A13419   4.421   7.346   6.346  0.0487  0.1251  0.1898
  939YOPE   D2A13420   4.664   7.414   6.747  0.2976 -0.1910  0.0616
  939YOPE   C3A13421   4.580   7.537   7.257 -0.1075  0.1588  0.1103
  939YOPE   C4A13422   4.503   7.550   7.607 -0.1074  0.3635 -0.0180
  939YOPE   C1B13423   4.869   7.053   6.323  0.1322  0.3921 -0.1769
  939YOPE   C2B13424   5.161   6.868   6.489  0.1568  0.1317  0.2612
  939YOPE   D3B13425   5.527   7.003   6.649 -0.1245  0.0797  0.0324
  939YOPE   C4B13426   5.576   7.356   6.942 -0.1402  0.0322  0.4023
  940YOPE   NH313427   4.422   4.462   6.016  0.1561  0.1418 -0.0977
  940YOPE   PO413428   4.594   4.072   6.124  0.2792  0.2206  0.0067
  940YOPE   GL113429   4.619   3.968   6.435 -0.1807  0.1456 -0.1663
  940YOPE   GL213430   4.618   3.604   6.547  0.3654 -0.0312  0.2578
  940YOPE   C1A13431   4.841   3.964   6.816  0.0893  0.2209  0.0610
  940YOPE   D2A13432   4.962   3.802   7.225  0.0826  0.1104  0.4128
  940YOPE   C3A13433   4.996   3.895   7.620  0.1889 -0.1907 -0.0907
  940YOPE   C4A13434   4.851   3.732   7.960 -0.0608 -0.1240 -0.1350
  940YOPE   C1B13435   4.390   3.819   6.885 -0.1737  0.2643 -0.1368
  940YOPE   C2B13436   4.418   3.784   7.315 -0.2588 -0.3227 -0.0764
  940YOPE   D3B13437   4.367   3.917   7.641  0.1652 -0.3143  0.2294
  940YOPE   C4B13438   4.393   3.941   8.089  0.0886 -0.0602 -0.1929
  941POPC   NC313439   7.113   2.004   5.846 -0.0240 -0.1017 -0.0311
  941POPC   PO413440   7.475   1.963   6.136  0.3994 -0.1885  0.2057
  941POPC   GL113441   7.389   2.243   6.429 -0.3365 -0.0140  0.1739
  941POPC   GL213442   7.633   2.470   6.432 -0.0436  0.1007  0.1040
  941POPC   C1A13443   7.447   2.230   6.896  0.0705 -0.0509 -0.1508
  941POPC   D2A13444   7.373   2.146   7.309 -0.1808 -0.1949  0.1089
  941POPC   C3A13445   7.625   2.117   7.598  0.1111  0.0395 -0.4377
  941POPC   C4A13446   7.928   2.194   7.915 -0.1850  0.0176 -0.0807
  941POPC   C1B13447   7.707   2.623   6.839  0.1695  0.1011 -0.1364
  941POPC   C2B13448   7.619   2.711   7.320  0.0196  0.2523 -0.0231
  941POPC   C3B13449   7.582   2.578   7.673 -0.2052 -0.0342  0.4078
  941POPC   C4B13450   7.709   2.602   8.022  0.3024 -0.0554 -0.1388
  942POPC   NC313451  15.827  11.021   5.621  0.1802  0.2671  0.0275
  942POPC   PO413452  16.060  11.319   5.787  0.3607  0.1238  0.2511
  942POPC   GL113453  15.969  11.183   6.124  0.1241 -0.1780  0.0521
  942POPC   GL213454  15.958  11.324   6.396 -0.1496  0.3432 -0.2445
  942POPC   C1A13455  16.056  10.801   6.420 -0.0626  0.4390  0.2478
  942POPC   D2A13456  15.866  10.746   6.750  0.0485 -0.1055  0.2210
  942POPC   C3A13457  15.769  10.510   7.102  0.0230  0.1097  0.0222
  942POPC   C4A13458  15.617  10.438   7.461  0.0141  0.0918  0.2853
  942POPC   C1B13459  15.718  11.246   6.707  0.0901  0.2070  0.0824
  942POPC   C2B13460  15.566  11.118   7.160 -0.2881  0.2030  0.1292
  942POPC   C3B13461  15.236  10.772   7.298  0.0203  0.1107 -0.1260
  942POPC   C4B13462  15.142  10.477   7.088 -0.0814  0.0354 -0.0703
  943POPC   NC313463  17.318  15.660   5.854 -0.0360  0.2234 -0.1008
  943POPC   PO413464  17.579  15.704   6.153 -0.1757  0.0582 -0.2059
  943POPC   GL113465  17.476  15.817   6.471 -0.3418 -0.2517 -0.1437
  943POPC   GL213466  17.646  15.911   6.815 -0.2442 -0.2063  0.3651
  943POPC   C1A13467  17.165  15.749   6.825  0.3482  0.1743  0.1005
  943POPC   D2A13468  16.887  16.055   7.202  0.0923  0.3646 -0.0869
  943POPC   C3A13469  16.919  16.036   7.637 -0.1247  0.2013  0.2207
  943POPC   C4A13470  17.007  15.913   8.019  0.1946 -0.0959  0.0513
  943POPC   C1B13471  18.005  15.833   7.026 -0.0043  0.0400 -0.1023
  943POPC   C2B13472  18.269  15.943   7.482 -0.1642 -0.1916 -0.1258
  943POPC   C3B13473  18.549  15.992   7.703 -0.0309 -0.1272 -0.4395
  943POPC   C4B13474  18.643  15.901   8.119  0.0309  0.0080 -0.1324
  944POPC   NC313475   9.505   2.181   5.839  0.1320 -0.2382  0.4621
  944POPC   PO413476   9.951   2.151   6.122 -0.0377 -0.0357  0.1634
  944POPC   GL113477  10.097   2.364   6.447  0.0822  0.0069 -0.0240
  944POPC   GL213478   9.977   2.672   6.403 -0.2265 -0.0207 -0.0049
  944POPC   C1A13479  10.475   2.494   6.686  0.2121  0.2683 -0.0617
  944POPC   D2A13480  10.633   2.701   7.031  0.0296  0.1382 -0.0793
  944POPC   C3A13481  10.535   2.702   7.368  0.3472  0.1576  0.0435
  944POPC   C4A13482  10.118   2.555   7.445  0.0480 -0.2831 -0.2708
  944POPC   C1B13483   9.869   3.128   6.686  0.0230  0.1994 -0.0636
  944POPC   C2B13484   9.768   3.151   7.086 -0.0414 -0.0554 -0.1140
  944POPC   C3B13485   9.888   3.030   7.539 -0.3983 -0.0096  0.1225
  944POPC   C4B13486  10.169   2.958   7.885 -0.1158  0.0274 -0.2200
  945POPC   NC313487   9.617   4.011   5.763 -0.1430  0.1020 -0.2148
  945POPC   PO413488   9.444   3.596   6.033 -0.1778 -0.0411  0.0732
  945POPC   GL113489   9.626   3.911   6.313  0.0831 -0.1748 -0.0877
  945POPC   GL213490  10.027   3.926   6.201  0.0064  0.2219 -0.0395
  945POPC   C1A13491   9.740   4.159   6.629  0.1696 -0.0153  0.0093
  945POPC   D2A13492   9.788   4.383   7.002  0.1582  0.0119 -0.2631
  945POPC   C3A13493   9.883   4.783   7.031 -0.3499 -0.0461  0.1454
  945POPC   C4A13494   9.765   5.080   7.299  0.2544 -0.2002  0.2191
  945POPC   C1B13495  10.040   3.803   6.724 -0.0094 -0.0340 -0.2764
  945POPC   C2B13496  10.236   3.970   7.097  0.0404  0.0880  0.0226
  945POPC   C3B13497  10.083   4.232   7.415 -0.0913  0.1904  0.0570
  945POPC   C4B13498   9.945   4.593   7.512  0.1405  0.1854 -0.2234
  946POPC   NC313499  14.915   6.855   5.601 -0.0736 -0.0763  0.0885
  946POPC   PO413500  15.008   6.487   5.459  0.1421 -0.2325  0.0551
  946POPC   GL113501  15.085   6.403   5.887  0.0981 -0.0031 -0.1896
  946POPC   GL213502  15.004   6.695   6.096 -0.0342  0.1722  0.0139
  946POPC   C1A13503  15.479   6.579   6.168 -0.2106  0.3576 -0.1794
  946POPC   D2A13504  15.826   6.267   6.335 -0.1137 -0.1008 -0.1013
  946POPC   C3A13505  16.226   6.191   6.519 -0.1211  0.4877 -0.1638
  946POPC   C4A13506  16.561   5.856   6.521  0.6697 -0.2442  0.0077
  946POPC   C1B13507  14.979   7.076   6.517 -0.3981  0.0802  0.3102
  946POPC   C2B13508  15.131   7.173   6.905 -0.3885  0.0144 -0.2216
  946POPC   C3B13509  15.123   6.974   7.307  0.1659  0.0468 -0.0573
  946POPC   C4B13510  15.303   6.829   7.794 -0.1994 -0.0498 -0.2750
  947POPC   NC313511  12.017  15.815   5.972  0.0992 -0.0549  0.1814
  947POPC   PO413512  12.172  15.587   6.298  0.0551  0.1216 -0.1530
  947POPC   GL113513  11.999  15.489   6.706 -0.1191 -0.0057  0.0034
  947POPC   GL213514  11.713  15.268   6.822  0.0501  0.1057 -0.2366
  947POPC   C1A13515  12.240  15.503   7.044  0.1687  0.1318  0.0177
  947POPC   D2A13516  12.181  15.576   7.484 -0.0486  0.1784  0.2146
  947POPC   C3A13517  12.612  15.779   7.610 -0.0986 -0.0498 -0.2490
  947POPC   C4A13518  12.912  16.127   7.755 -0.1410  0.2077  0.2000
  947POPC   C1B13519  11.371  15.319   7.211 -0.0904 -0.0059  0.0572
  947POPC   C2B13520  11.070  15.121   7.456  0.1687  0.1370  0.1833
  947POPC   C3B13521  10.729  14.887   7.540 -0.1690 -0.2624  0.0348
  947POPC   C4B13522  10.623  14.628   7.853 -0.1222 -0.0152 -0.0217
  948POPC   NC313523  13.748   7.938   5.438 -0.1430 -0.3496 -0.2048
  948POPC   PO413524  13.906   7.540   5.469 -0.0444  0.1308 -0.0160
  948POPC   GL113525  14.052   7.497   5.902 -0.1161  0.2465 -0.2749
  948POPC   GL213526  14.357   7.468   5.846  0.1233  0.1106 -0.0502
  948POPC   C1A13527  13.758   7.549   6.299  0.0042  0.0245  0.1322
  948POPC   D2A13528  13.395   7.564   6.537 -0.0470 -0.1363 -0.0857
  948POPC   C3A13529  13.227   7.824   6.804 -0.0386  0.0481 -0.3036
  948POPC   C4A13530  13.050   8.217   6.851 -0.0777 -0.2432  0.1423
  948POPC   C1B13531  14.276   7.542   6.397 -0.3250  0.1683  0.1792
  948POPC   C2B13532  14.007   7.410   6.667  0.0818  0.0542 -0.0920
  948POPC   C3B13533  13.731   7.586   6.854  0.1629  0.0712 -0.1820
  948POPC   C4B13534  13.527   7.653   7.298  0.0136 -0.0145  0.2196
  949POPC   NC313535   7.423   0.738   6.123 -0.1811 -0.1601  0.0513
  949POPC   PO413536   7.713   0.371   6.177 -0.2681 -0.3999 -0.2114
  949POPC   GL113537   7.896   0.143   6.513  0.3117 -0.0280  0.0134
  949POPC   GL213538   7.666   0.026   6.624 -0.0031 -0.1050 -0.0071
  949POPC   C1A13539   7.991   0.127   6.972  0.1264  0.2423  0.1996
  949POPC   D2A13540   8.176   0.292   7.392  0.1172 -0.1393  0.2015
  949POPC   C3A13541   7.971   0.546   7.592 -0.1641  0.0436  0.0899
  949POPC   C4A13542   7.653   0.517   7.844 -0.0094 -0.2396  0.3185
  949POPC   C1B13543   7.519  -0.041   7.040  0.1936 -0.0638  0.2903
  949POPC   C2B13544   7.140  -0.093   7.259  0.0408 -0.0761 -0.2093
  949POPC   C3B13545   6.916   0.165   7.487  0.0976  0.0372  0.0345
  949POPC   C4B13546   6.544   0.314   7.756 -0.1269  0.1846 -0.0531
  950POPC   NC313547  12.129  12.130   5.616  0.1620 -0.2399 -0.0778
  950POPC   PO413548  11.790  12.345   6.002 -0.0747  0.0070  0.0816
  950POPC   GL113549  11.937  12.492   6.459  0.1232  0.2515  0.2392
  950POPC   GL213550  11.780  12.689   6.652  0.2519  0.1731  0.0280
  950POPC   C1A13551  12.055  12.225   6.818  0.0910  0.1190  0.1407
  950POPC   D2A13552  11.883  11.911   7.192 -0.3376  0.2279 -0.0172
  950POPC   C3A13553  11.969  11.717   7.678  0.0639  0.1152  0.1380
  950POPC   C4A13554  12.267  11.625   7.964  0.0412 -0.1960  0.0546
  950POPC   C1B13555  11.797  12.822   7.098 -0.0372  0.0389 -0.0090
  950POPC   C2B13556  11.794  12.836   7.550  0.2167 -0.1212 -0.1049
  950POPC   C3B13557  11.643  12.712   7.921  0.4926 -0.0535 -0.0929
  950POPC   C4B13558  11.254  12.687   8.147  0.2567 -0.0134 -0.1291
  951POPC   NC313559  13.622   9.556   5.041 -0.1403  0.2558 -0.0531
  951POPC   PO413560  13.617   9.542   5.473  0.0348 -0.0759  0.0209
  951POPC   GL113561  13.687   9.744   5.942  0.1147  0.5055  0.1805
  951POPC   GL213562  13.431   9.778   5.910 -0.2498 -0.2366 -0.4079
  951POPC   C1A13563  14.045   9.719   6.176  0.3027 -0.0237 -0.2442
  951POPC   D2A13564  14.389   9.478   6.361 -0.2889 -0.2701 -0.0812
  951POPC   C3A13565  14.718   9.708   6.574  0.1352 -0.3266 -0.3359
  951POPC   C4A13566  14.884  10.059   6.737  0.1764  0.4088  0.0333
  951POPC   C1B13567  13.424   9.964   6.376  0.2498  0.0069 -0.0211
  951POPC   C2B13568  13.364   9.891   6.697  0.3164 -0.0184 -0.0641
  951POPC   C3B13569  13.497   9.653   7.033  0.0784 -0.1358 -0.2729
  951POPC   C4B13570  13.842   9.535   7.381  0.1330  0.1494  0.0910
  952POPC   NC313571  12.955   6.772   5.752  0.1843  0.0791 -0.3516
  952POPC   PO413572  13.353   6.754   5.768  0.0820 -0.2469  0.1223
  952POPC   GL113573  13.208   6.683   6.192 -0.0107  0.0200 -0.0925
  952POPC   GL213574  13.023   6.536   6.281  0.0612 -0.1602 -0.4360
  952POPC   C1A13575  13.214   6.748   6.741 -0.5561  0.1075 -0.2758
  952POPC   D2A13576  13.259   6.500   7.143  0.3128 -0.1557 -0.0488
  952POPC   C3A13577  13.329   6.068   7.159 -0.3058 -0.2239 -0.1855
  952POPC   C4A13578  13.621   5.977   6.803  0.0432 -0.1747 -0.0120
  952POPC   C1B13579  12.716   6.814   6.606  0.1087  0.2390 -0.3136
  952POPC   C2B13580  12.450   6.993   6.897  0.0394 -0.2849  0.2114
  952POPC   C3B13581  12.459   6.981   7.304 -0.1802 -0.1251 -0.0814
  952POPC   C4B13582  12.498   6.684   7.737 -0.3747 -0.0690 -0.1936
  953POPC   NC313583   0.275  15.845   5.761  0.0492  0.1448  0.2196
  953POPC   PO413584   0.236  15.858   6.154  0.0909  0.0524  0.1659
  953POPC   GL113585   0.417  15.660   6.572  0.1038 -0.1123 -0.1141
  953POPC   GL213586   0.661  15.437   6.669  0.0930 -0.0907  0.0785
  953POPC   C1A13587   0.266  15.702   6.894 -0.0114 -0.1461 -0.0026
  953POPC   D2A13588   0.162  16.184   6.894  0.1404 -0.1147 -0.1326
  953POPC   C3A13589   0.330  16.307   7.243  0.0581  0.3380  0.0439
  953POPC   C4A13590   0.566  16.493   7.464  0.0744 -0.0720  0.2217
  953POPC   C1B13591   0.469  15.257   7.017 -0.0104 -0.2652 -0.0272
  953POPC   C2B13592   0.550  15.237   7.449  0.0117  0.0266 -0.1431
  953POPC   C3B13593   0.426  15.178   7.844 -0.3976 -0.1254 -0.2624
  953POPC   C4B13594   0.454  15.393   8.218 -0.0959  0.0472 -0.0341
  954POPC   NC313595  16.590   3.051   6.061 -0.1867 -0.5146 -0.0140
  954POPC   PO413596  16.561   3.522   6.140 -0.0894 -0.0976  0.2381
  954POPC   GL113597  16.837   3.721   6.443  0.0077  0.1996  0.2182
  954POPC   GL213598  17.191   3.570   6.569  0.0230  0.1893  0.0826
  954POPC   C1A13599  16.897   3.853   6.889 -0.0868 -0.0942  0.0172
  954POPC   D2A13600  17.149   3.883   7.267 -0.3082 -0.0286 -0.0304
  954POPC   C3A13601  17.492   3.721   7.399  0.0390  0.0664  0.2424
  954POPC   C4A13602  17.651   3.408   7.615  0.0599  0.0267  0.1110
  954POPC   C1B13603  17.058   3.383   6.978 -0.2678  0.0689  0.1521
  954POPC   C2B13604  16.983   2.997   7.213  0.2440 -0.3766 -0.1627
  954POPC   C3B13605  16.843   2.970   7.624  0.0902 -0.1562 -0.0253
  954POPC   C4B13606  16.573   2.826   7.951  0.1762 -0.1490 -0.0544
  955POPC   NC313607  15.896  13.228   6.183 -0.1961  0.3218  0.0324
  955POPC   PO413608  16.197  13.504   6.355 -0.1059  0.1706 -0.3848
  955POPC   GL113609  16.349  13.601   6.782 -0.1322 -0.0929 -0.2369
  955POPC   GL213610  16.203  13.919   6.886 -0.1135  0.1839  0.0623
  955POPC   C1A13611  16.569  13.343   7.121 -0.1138 -0.1546 -0.1393
  955POPC   D2A13612  16.684  13.462   7.488  0.0305  0.0764 -0.1325
  955POPC   C3A13613  16.579  13.323   7.802  0.0881 -0.2040  0.0569
  955POPC   C4A13614  16.321  13.484   8.190  0.2002 -0.2286  0.1197
  955POPC   C1B13615  16.273  13.707   7.309  0.0410 -0.1472 -0.2664
  955POPC   C2B13616  16.341  13.721   7.766 -0.0050  0.0871 -0.1230
  955POPC   C3B13617  16.517  13.984   8.169  0.0267 -0.0415 -0.0781
  955POPC   C4B13618  16.702  14.141   8.547  0.0905 -0.1023 -0.1084
  956POPC   NC313619   4.500   5.978   5.223 -0.0051 -0.2649  0.3369
  956POPC   PO413620   4.345   5.932   5.689  0.0593  0.0573 -0.0100
  956POPC   GL113621   4.390   6.030   6.107  0.3443  0.0701 -0.1126
  956POPC   GL213622   4.301   6.266   6.324 -0.2244  0.4486  0.0502
  956POPC   C1A13623   4.443   5.797   6.488  0.0263  0.1153 -0.2120
  956POPC   D2A13624   4.406   5.749   7.029  0.1640 -0.0766  0.1582
  956POPC   C3A13625   4.501   5.362   7.146  0.0705 -0.2306 -0.2740
  956POPC   C4A13626   4.819   5.242   7.339  0.1618  0.1732 -0.3691
  956POPC   C1B13627   4.206   6.229   6.702 -0.0382  0.1740  0.3495
  956POPC   C2B13628   4.064   6.166   7.073 -0.3831  0.4288 -0.0388
  956POPC   C3B13629   3.829   6.246   7.290 -0.2724  0.0840 -0.2943
  956POPC   C4B13630   3.679   6.470   7.677 -0.4167  0.2929  0.1384
  957POPC   NC313631   8.419  11.048   5.371  0.1677 -0.0764  0.3671
  957POPC   PO413632   8.496  11.385   5.632 -0.0380  0.1087 -0.1440
  957POPC   GL113633   8.679  11.579   5.985 -0.0525 -0.0670  0.3493
  957POPC   GL213634   8.986  11.460   6.033  0.0068 -0.0391  0.0957
  957POPC   C1A13635   8.665  11.628   6.490 -0.1006 -0.0522  0.0071
  957POPC   D2A13636   8.627  11.625   6.940 -0.2355  0.0077 -0.2120
  957POPC   C3A13637   8.658  11.777   7.464  0.1735 -0.3687 -0.0752
  957POPC   C4A13638   8.842  11.863   7.751  0.2898 -0.0017  0.0527
  957POPC   C1B13639   9.172  11.594   6.364 -0.0674  0.0891  0.0063
  957POPC   C2B13640   9.038  11.451   6.814 -0.0028 -0.0164  0.0918
  957POPC   C3B13641   9.072  11.537   7.288 -0.3739  0.3082  0.2709
  957POPC   C4B13642   9.263  11.693   7.639  0.0722  0.0156 -0.0521
  958POPC   NC313643   1.668   5.229   5.435 -0.1545 -0.1219  0.1482
  958POPC   PO413644   1.510   5.227   5.878  0.0045 -0.2303  0.2328
  958POPC   GL113645   1.663   5.447   6.239 -0.3449 -0.2038 -0.3089
  958POPC   GL213646   1.891   5.792   6.261  0.0691 -0.3034  0.0653
  958POPC   C1A13647   1.569   5.405   6.719 -0.2826  0.3083 -0.0237
  958POPC   D2A13648   1.636   5.387   7.152  0.2003  0.2724  0.0461
  958POPC   C3A13649   1.476   5.680   7.401 -0.0914  0.2710  0.3594
  958POPC   C4A13650   1.185   5.862   7.627  0.1309  0.0674  0.0244
  958POPC   C1B13651   1.649   5.907   6.597 -0.0223 -0.0699  0.0184
  958POPC   C2B13652   1.775   5.885   7.019 -0.1651  0.1290  0.1160
  958POPC   C3B13653   1.813   6.144   7.363 -0.0624  0.0172 -0.2190
  958POPC   C4B13654   1.759   6.227   7.792 -0.0061 -0.2330 -0.1653
  959POPC   NC313655   5.614   3.808   6.346  0.0298 -0.0753 -0.1376
  959POPC   PO413656   5.925   3.905   6.044 -0.0625  0.0667 -0.0282
  959POPC   GL113657   6.123   3.948   6.484  0.1315  0.0618  0.0442
  959POPC   GL213658   5.825   4.093   6.755 -0.0147 -0.0502  0.0197
  959POPC   C1A13659   6.241   4.014   6.873 -0.1131 -0.0446 -0.1152
  959POPC   D2A13660   6.428   4.346   7.177  0.2282 -0.0603 -0.0047
  959POPC   C3A13661   6.618   4.703   7.043 -0.0185 -0.0860  0.0133
  959POPC   C4A13662   6.649   5.092   7.249  0.0554 -0.1172 -0.0047
  959POPC   C1B13663   5.840   4.234   7.218 -0.0207 -0.0667  0.1709
  959POPC   C2B13664   5.812   4.455   7.585  0.2028  0.0049  0.1810
  959POPC   C3B13665   5.996   4.743   7.816 -0.1556  0.1104  0.0247
  959POPC   C4B13666   6.137   4.820   8.171 -0.0257 -0.0580 -0.2704
  960POPC   NC313667   7.818  14.932   5.662 -0.2240  0.1803 -0.3247
  960POPC   PO413668   7.926  14.544   5.552  0.0586 -0.0798 -0.3489
  960POPC   GL113669   8.167  14.378   5.948 -0.2193 -0.3034 -0.3916
  960POPC   GL213670   8.435  14.488   6.094 -0.0266  0.0228  0.2119
  960POPC   C1A13671   8.040  14.307   6.289  0.2736  0.2988 -0.2221
  960POPC   D2A13672   8.139  14.288   6.778  0.2531 -0.0855  0.2613
  960POPC   C3A13673   8.037  14.444   7.120  0.1890 -0.3781 -0.2402
  960POPC   C4A13674   8.009  14.340   7.518 -0.0436  0.0457  0.0731
  960POPC   C1B13675   8.564  14.093   6.113 -0.0841 -0.0605  0.0445
  960POPC   C2B13676   8.602  13.628   6.127  0.3865  0.1951 -0.1414
  960POPC   C3B13677   8.596  13.395   6.525  0.0787  0.0775  0.1511
  960POPC   C4B13678   8.183  13.488   6.856 -0.0569  0.0012  0.1843
  961POPC   NC313679  14.355   4.635   5.743 -0.0139 -0.2138 -0.2395
  961POPC   PO413680  14.027   4.946   5.788 -0.0898  0.0874 -0.0047
  961POPC   GL113681  13.711   4.964   6.112 -0.0986  0.3694 -0.2850
  961POPC   GL213682  13.538   4.705   6.014 -0.0881  0.1483 -0.0175
  961POPC   C1A13683  13.774   4.998   6.531 -0.1477 -0.0803  0.1849
  961POPC   D2A13684  13.791   4.981   6.971  0.0211 -0.0697 -0.1805
  961POPC   C3A13685  13.700   4.965   7.459 -0.0868 -0.2565 -0.1428
  961POPC   C4A13686  13.402   4.701   7.729 -0.1020 -0.1318 -0.1864
  961POPC   C1B13687  13.277   4.792   6.365  0.2658  0.1037 -0.0370
  961POPC   C2B13688  13.230   5.217   6.587 -0.0518  0.1194 -0.2039
  961POPC   C3B13689  13.304   5.212   7.048  0.3998  0.1861 -0.1356
  961POPC   C4B13690  13.194   4.848   7.328  0.1232 -0.1498  0.1264
  962POPC   NC313691  12.871  17.186   6.166 -0.1336 -0.3122  0.0397
  962POPC   PO413692  13.034  17.493   6.093 -0.3751  0.1768  0.0086
  962POPC   GL113693  13.156  17.449   6.602 -0.0945 -0.1205  0.2969
  962POPC   GL213694  13.263  17.615   6.831 -0.0809 -0.1870 -0.2867
  962POPC   C1A13695  12.898  17.193   6.961 -0.3420  0.1905  0.1285
  962POPC   D2A13696  12.775  16.976   7.341  0.0764 -0.0428  0.1395
  962POPC   C3A13697  12.678  17.062   7.760 -0.0046 -0.3150 -0.1079
  962POPC   C4A13698  12.780  17.061   8.193 -0.2024  0.0278 -0.0390
  962POPC   C1B13699  13.341  17.859   7.207 -0.2163  0.1302 -0.1295
  962POPC   C2B13700  13.449  17.792   7.591 -0.1846 -0.5611  0.1562
  962POPC   C3B13701  13.769  17.947   7.872 -0.1100 -0.1913  0.0033
  962POPC   C4B13702  13.809  18.136   8.275 -0.1365 -0.0832 -0.0359
  963POPC   NC313703   3.202   6.249   5.461  0.0697 -0.0052 -0.1106
  963POPC   PO413704   2.971   6.097   5.888 -0.0554  0.0262  0.1994
  963POPC   GL113705   3.075   5.870   6.161  0.0376  0.1164  0.2626
  963POPC   GL213706   3.477   5.934   6.151 -0.0983 -0.0685  0.2073
  963POPC   C1A13707   3.242   5.703   6.578  0.5703  0.0246 -0.1234
  963POPC   D2A13708   3.469   5.980   7.022 -0.0143 -0.2087  0.0950
  963POPC   C3A13709   3.549   5.871   7.436 -0.2628 -0.1576  0.1344
  963POPC   C4A13710   3.558   5.555   7.799  0.2485  0.0295 -0.1561
  963POPC   C1B13711   3.487   6.108   6.537  0.0374 -0.2804 -0.0833
  963POPC   C2B13712   3.701   6.399   6.872  0.1137  0.1285  0.2410
  963POPC   C3B13713   3.610   6.695   7.227  0.1559  0.2979  0.1059
  963POPC   C4B13714   3.434   6.897   7.521  0.1081  0.0537  0.2324
  964POPC   NC313715  10.985  16.189   6.249 -0.0694  0.1372 -0.0320
  964POPC   PO413716  10.964  16.643   6.083  0.0929 -0.0642  0.1614
  964POPC   GL113717  10.973  16.642   6.596 -0.2823  0.0850  0.0828
  964POPC   GL213718  11.055  16.384   6.743 -0.0265 -0.1208  0.4629
  964POPC   C1A13719  10.993  16.744   7.034 -0.0343 -0.0248  0.1584
  964POPC   D2A13720  10.971  16.654   7.490 -0.3192  0.0369  0.2441
  964POPC   C3A13721  11.025  16.511   7.880 -0.0389  0.0685  0.1985
  964POPC   C4A13722  10.894  16.460   8.272 -0.3596  0.0636  0.2437
  964POPC   C1B13723  10.936  16.231   7.120  0.0557  0.0190  0.0576
  964POPC   C2B13724  10.788  16.079   7.339 -0.0421  0.4428 -0.0392
  964POPC   C3B13725  10.576  15.909   7.728 -0.0370  0.0416  0.1111
  964POPC   C4B13726  10.202  15.750   7.803 -0.0013  0.3425 -0.1019
  965POPC   NC313727  17.870   0.922   6.180  0.1507 -0.0914 -0.1867
  965POPC   PO413728  18.330   0.994   6.283 -0.3494 -0.1091  0.0483
  965POPC   GL113729  18.280   0.645   6.554  0.1212  0.1364 -0.0118
  965POPC   GL213730  18.630   0.416   6.584 -0.1337 -0.0286 -0.1298
  965POPC   C1A13731  18.336   0.719   6.976 -0.0037  0.1784  0.0216
  965POPC   D2A13732  18.635   0.644   7.307  0.1207 -0.0981  0.0145
  965POPC   C3A13733  18.458   0.750   7.664 -0.2104 -0.0394  0.3090
  965POPC   C4A13734  18.811   0.713   8.058  0.2136  0.1931  0.2044
  965POPC   C1B13735  18.740   0.306   6.985 -0.1775  0.0752 -0.0100
  965POPC   C2B13736  18.718   0.062   7.345  0.0468 -0.0413 -0.3029
  965POPC   C3B13737  18.866  -0.016   7.826  0.3115 -0.0513  0.3676
  965POPC   C4B13738  18.778  -0.112   8.225  0.0958 -0.2378 -0.1938
  966POPC   NC313739  15.337   6.146   5.417  0.2763  0.0724 -0.0516
  966POPC   PO413740  15.650   5.840   5.503  0.0478  0.1057  0.1061
  966POPC   GL113741  15.716   5.703   5.915  0.0635  0.1501 -0.0310
  966POPC   GL213742  16.086   5.516   5.921 -0.0630  0.1946 -0.2106
  966POPC   C1A13743  15.529   5.835   6.327 -0.0436  0.1396  0.1404
  966POPC   D2A13744  15.377   5.970   6.775 -0.3508 -0.1790 -0.1353
  966POPC   C3A13745  14.962   5.998   6.776 -0.0508 -0.1783  0.0454
  966POPC   C4A13746  14.598   6.121   6.513 -0.0459 -0.0226 -0.0317
  966POPC   C1B13747  16.058   5.630   6.365 -0.1016 -0.0208 -0.0229
  966POPC   C2B13748  15.968   5.690   6.755 -0.2522 -0.3200 -0.0320
  966POPC   C3B13749  15.848   5.799   7.170 -0.1152 -0.0636 -0.0670
  966POPC   C4B13750  15.589   6.042   7.368 -0.3851  0.0199  0.2985
  967POPC   NC313751  17.292  12.543   6.110 -0.0350 -0.2395 -0.1083
  967POPC   PO413752  16.940  12.424   6.119 -0.0666  0.0975 -0.1149
  967POPC   GL113753  16.987  12.399   6.560  0.1324  0.1138  0.1477
  967POPC   GL213754  17.228  12.647   6.669 -0.0456  0.1078  0.1863
  967POPC   C1A13755  16.932  12.442   6.957  0.1955  0.1120  0.1595
  967POPC   D2A13756  16.926  12.514   7.263  0.2104 -0.1270 -0.1078
  967POPC   C3A13757  16.701  12.207   7.530  0.0481 -0.0128 -0.2131
  967POPC   C4A13758  16.607  12.353   7.947 -0.4459  0.0953 -0.1003
  967POPC   C1B13759  17.414  12.657   7.051  0.0364  0.1480 -0.2151
  967POPC   C2B13760  17.415  12.597   7.434  0.0663 -0.1500 -0.0101
  967POPC   C3B13761  17.654  12.609   7.790  0.2201  0.0166 -0.0434
  967POPC   C4B13762  17.839  12.385   8.061  0.0965  0.0642  0.0935
  968POPC   NC313763   7.583  17.390   5.767 -0.0477 -0.1105  0.0449
  968POPC   PO413764   7.840  17.661   6.064 -0.0611  0.1600  0.1704
  968POPC   GL113765   7.927  17.812   6.407  0.1214  0.0283 -0.2443
  968POPC   GL213766   8.270  17.859   6.470 -0.2985  0.0323 -0.2288
  968POPC   C1A13767   7.922  17.825   6.850  0.1941 -0.1589 -0.1935
  968POPC   D2A13768   7.973  17.867   7.283 -0.0883  0.1100  0.0117
  968POPC   C3A13769   7.923  17.584   7.641 -0.5847 -0.0717 -0.1160
  968POPC   C4A13770   7.969  17.568   8.051  0.1672  0.0723 -0.0667
  968POPC   C1B13771   8.374  18.158   6.688 -0.0888 -0.0833  0.0071
  968POPC   C2B13772   8.512  18.250   7.137  0.3763 -0.1577 -0.0340
  968POPC   C3B13773   8.576  18.257   7.592  0.2868  0.0227  0.1655
  968POPC   C4B13774   8.648  18.187   8.019  0.0611  0.0574 -0.3936
  969POPC   NC313775  14.539   3.802   5.568  0.2830  0.2308  0.2940
  969POPC   PO413776  14.635   4.229   5.825 -0.1494  0.3415 -0.3301
  969POPC   GL113777  14.284   4.329   6.152 -0.0708 -0.3370  0.0564
  969POPC   GL213778  14.033   4.551   6.147  0.1479  0.1068 -0.2968
  969POPC   C1A13779  14.259   4.218   6.551 -0.1889 -0.0390 -0.0272
  969POPC   D2A13780  14.319   4.039   6.992  0.0504  0.1544  0.2380
  969POPC   C3A13781  14.084   4.237   7.345  0.1161  0.0952 -0.2393
  969POPC   C4A13782  13.901   4.512   7.668  0.1700  0.1688 -0.1004
  969POPC   C1B13783  14.284   4.715   6.446 -0.1688  0.1060 -0.0430
  969POPC   C2B13784  14.322   4.904   6.847 -0.1894 -0.2026  0.5571
  969POPC   C3B13785  14.153   5.231   7.144 -0.2584  0.2796 -0.0239
  969POPC   C4B13786  14.097   5.376   7.563  0.1122 -0.1176 -0.2980
  970POPC   NC313787   4.019  13.838   5.849 -0.0844  0.3218 -0.4205
  970POPC   PO413788   4.454  13.741   5.849 -0.1030 -0.1282 -0.0996
  970POPC   GL113789   4.408  13.604   6.318  0.2072  0.3569 -0.0848
  970POPC   GL213790   4.647  13.261   6.457 -0.0673  0.0084 -0.0728
  970POPC   C1A13791   4.194  13.641   6.735 -0.1465  0.3295 -0.3556
  970POPC   D2A13792   4.126  13.791   7.207  0.1972 -0.0278  0.1813
  970POPC   C3A13793   4.331  13.632   7.556  0.4715 -0.0206  0.0237
  970POPC   C4A13794   4.614  13.357   7.571 -0.1480 -0.0083 -0.3028
  970POPC   C1B13795   4.682  13.076   6.927 -0.4757  0.1722 -0.0605
  970POPC   C2B13796   4.919  13.035   7.295 -0.0033 -0.1672  0.0246
  970POPC   C3B13797   5.112  13.126   7.663 -0.2944  0.0659  0.0826
  970POPC   C4B13798   5.395  13.473   7.845 -0.0878 -0.0110  0.2050
  971POPC   NC313799   9.876  13.414   5.367  0.3301  0.5604 -0.0430
  971POPC   PO413800   9.999  13.638   5.750 -0.3107  0.2451  0.3576
  971POPC   GL113801   9.988  13.365   6.148 -0.0496 -0.2626 -0.0616
  971POPC   GL213802   9.993  13.071   5.977 -0.2006 -0.1151  0.0939
  971POPC   C1A13803  10.017  13.227   6.563 -0.1164  0.0722 -0.3567
  971POPC   D2A13804   9.925  13.103   7.073  0.1859 -0.0568  0.1602
  971POPC   C3A13805   9.934  12.606   7.109  0.1534  0.2544 -0.2940
  971POPC   C4A13806   9.947  12.376   7.555 -0.2370  0.1099 -0.1192
  971POPC   C1B13807   9.573  13.021   6.116  0.4273  0.0114 -0.2280
  971POPC   C2B13808   9.258  13.141   6.334  0.3303 -0.3670  0.2991
  971POPC   C3B13809   9.033  13.188   6.692  0.2817  0.1613  0.0459
  971POPC   C4B13810   8.929  13.115   7.130  0.0626 -0.3399  0.1063
  972POPC   NC313811   5.124  11.779   5.068 -0.2070  0.0049  0.1429
  972POPC   PO413812   4.988  11.992   5.487 -0.0655 -0.1508 -0.3322
  972POPC   GL113813   5.239  11.922   5.866  0.0737 -0.3958  0.0386
  972POPC   GL213814   5.084  12.024   6.136  0.1628 -0.0071  0.3466
  972POPC   C1A13815   5.167  11.554   6.211  0.1944  0.1630  0.2024
  972POPC   D2A13816   5.039  11.160   6.489  0.0417 -0.1475 -0.1266
  972POPC   C3A13817   5.380  11.086   6.853 -0.2202 -0.0132  0.2833
  972POPC   C4A13818   5.303  10.784   7.242  0.1334  0.0701  0.1722
  972POPC   C1B13819   5.401  11.920   6.510  0.1090 -0.1265  0.0158
  972POPC   C2B13820   5.772  12.022   6.728  0.1508 -0.1112  0.0385
  972POPC   C3B13821   6.193  11.894   6.980  0.1248 -0.1409  0.1396
  972POPC   C4B13822   6.337  11.852   7.353  0.2500  0.0087  0.4390
  973POPC   NC313823  14.914  12.101   5.726 -0.4334  0.2852  0.1370
  973POPC   PO413824  14.646  11.746   5.686 -0.2372  0.2958 -0.2966
  973POPC   GL113825  14.544  11.615   6.038  0.0062  0.0724  0.3233
  973POPC   GL213826  14.587  11.924   6.320  0.3342  0.0817 -0.0582
  973POPC   C1A13827  14.449  11.437   6.534  0.0670 -0.0818  0.0228
  973POPC   D2A13828  14.668  11.018   6.700  0.1424  0.1035  0.0863
  973POPC   C3A13829  14.663  11.037   7.199  0.2876 -0.1606 -0.0367
  973POPC   C4A13830  14.805  10.969   7.652  0.3640  0.1756 -0.0645
  973POPC   C1B13831  14.560  12.006   6.747  0.2232  0.2204 -0.1671
  973POPC   C2B13832  14.690  12.260   7.147 -0.2532 -0.0208 -0.0347
  973POPC   C3B13833  14.965  12.412   7.481 -0.3910  0.0017 -0.0190
  973POPC   C4B13834  15.303  12.255   7.874  0.0365  0.0184  0.3262
  974POPC   NC313835  16.146   5.005   5.825 -0.0263  0.3636  0.0289
  974POPC   PO413836  16.046   4.713   6.108 -0.0977  0.3249 -0.1595
  974POPC   GL113837  16.170   4.453   6.327 -0.0245 -0.0620  0.2427
  974POPC   GL213838  16.503   4.381   6.355  0.1058  0.0820 -0.1014
  974POPC   C1A13839  16.015   4.309   6.734 -0.0620  0.3303 -0.4417
  974POPC   D2A13840  15.789   4.113   6.968 -0.1787 -0.0030  0.0455
  974POPC   C3A13841  15.735   4.119   7.370 -0.0105  0.3707 -0.1543
  974POPC   C4A13842  15.724   3.912   7.799  0.0185  0.1311  0.0675
  974POPC   C1B13843  16.561   4.241   6.819  0.0376  0.1209 -0.2440
  974POPC   C2B13844  16.260   4.398   7.142  0.0214 -0.0446  0.0635
  974POPC   C3B13845  15.865   4.572   7.086 -0.3346  0.0035 -0.0771
  974POPC   C4B13846  15.499   4.760   7.311  0.3700 -0.1925  0.1525
  975POPC   NC313847   8.493  10.405   5.276  0.0003  0.0964 -0.1896
  975POPC   PO413848   9.096  10.379   5.277 -0.2174 -0.0900  0.0924
  975POPC   GL113849   8.831  10.248   5.597  0.2329  0.0193  0.0231
  975POPC   GL213850   8.566  10.130   5.703 -0.0656  0.2860 -0.1103
  975POPC   C1A13851   8.779  10.487   5.902  0.1213 -0.2852  0.3503
  975POPC   D2A13852   8.855  10.587   6.357 -0.0763  0.2220  0.1776
  975POPC   C3A13853   8.479  10.694   6.662 -0.0177  0.1760 -0.0445
  975POPC   C4A13854   8.043  10.854   6.647  0.0692 -0.2173 -0.0135
  975POPC   C1B13855   8.320  10.085   6.075  0.1855  0.0364 -0.0669
  975POPC   C2B13856   8.092   9.885   6.412 -0.0104 -0.0359  0.0887
  975POPC   C3B13857   7.750   9.852   6.728 -0.0770  0.1660  0.1192
  975POPC   C4B13858   7.557   9.917   7.082  0.1075  0.3531  0.3919
  976POPC   NC313859  14.645  16.001   6.444 -0.1476 -0.1059 -0.1235
  976POPC   PO413860  15.139  15.992   6.649 -0.1582  0.1248 -0.0676
  976POPC   GL113861  15.160  15.861   7.077  0.0195 -0.0465  0.0731
  976POPC   GL213862  14.959  15.992   7.141 -0.2046 -0.1655  0.0138
  976POPC   C1A13863  15.338  15.742   7.401  0.3216  0.1257  0.0853
  976POPC   D2A13864  15.281  15.690   7.868 -0.1877 -0.1131 -0.0290
  976POPC   C3A13865  15.583  15.772   8.198  0.1376  0.0690  0.2464
  976POPC   C4A13866  15.860  15.486   8.497  0.1500  0.0127 -0.0954
  976POPC   C1B13867  14.956  16.015   7.550 -0.1947  0.1843 -0.1026
  976POPC   C2B13868  15.062  16.130   7.980 -0.2394  0.1334 -0.2521
  976POPC   C3B13869  15.238  16.174   8.394  0.2586 -0.0539  0.0876
  976POPC   C4B13870  15.164  16.430   8.831  0.1636  0.1368 -0.1445
  977POPC   NC313871  12.328   7.337   5.440  0.2567  0.1004 -0.2214
  977POPC   PO413872  12.499   6.968   5.456 -0.1000 -0.2228  0.0744
  977POPC   GL113873  12.593   7.104   5.870 -0.1177 -0.0798  0.1373
  977POPC   GL213874  12.620   6.858   6.131 -0.3035 -0.1448 -0.2429
  977POPC   C1A13875  12.556   7.345   6.205  0.2620 -0.2264 -0.0617
  977POPC   D2A13876  12.500   7.470   6.606  0.1138 -0.1196 -0.2990
  977POPC   C3A13877  12.363   7.571   7.028 -0.2950 -0.2560  0.1635
  977POPC   C4A13878  12.238   7.969   7.268 -0.0600 -0.3299  0.0587
  977POPC   C1B13879  12.311   6.966   6.398 -0.2806  0.1901  0.1610
  977POPC   C2B13880  12.045   7.250   6.721 -0.1449  0.0663  0.0005
  977POPC   C3B13881  11.963   7.289   7.236 -0.0605  0.0849 -0.1493
  977POPC   C4B13882  11.804   7.472   7.624  0.0238  0.1643  0.5485
  978POPC   NC313883  13.246   8.577   5.168  0.2285  0.1279  0.1227
  978POPC   PO413884  13.631   8.378   5.225  0.0522 -0.0372 -0.3567
  978POPC   GL113885  13.567   8.423   5.701  0.2167 -0.2260 -0.1444
  978POPC   GL213886  13.287   8.296   5.678 -0.1434  0.0590  0.1999
  978POPC   C1A13887  13.664   8.543   6.142  0.0707 -0.1455  0.0265
  978POPC   D2A13888  13.798   8.533   6.615  0.1165 -0.1108  0.3668
  978POPC   C3A13889  13.451   8.575   6.914 -0.1350 -0.1264 -0.0985
  978POPC   C4A13890  13.367   8.679   7.398  0.0666 -0.2460 -0.1675
  978POPC   C1B13891  13.396   8.117   6.075  0.3715  0.2783 -0.3056
  978POPC   C2B13892  13.588   8.035   6.455  0.0314 -0.1333 -0.3119
  978POPC   C3B13893  13.661   8.090   6.828 -0.0906  0.2556  0.1036
  978POPC   C4B13894  13.396   8.195   7.223  0.3182 -0.1932 -0.2985
  979POPC   NC313895   5.172   0.316   6.124  0.0752  0.0304  0.2134
  979POPC   PO413896   5.347  -0.035   6.322 -0.0392  0.1902 -0.0892
  979POPC   GL113897   5.420   0.195   6.657 -0.0641  0.0215  0.0304
  979POPC   GL213898   5.395   0.471   6.744 -0.0254 -0.0208  0.2489
  979POPC   C1A13899   5.221  -0.014   7.014 -0.2450 -0.0199  0.1380
  979POPC   D2A13900   5.039  -0.034   7.355 -0.1240 -0.2303 -0.0402
  979POPC   C3A13901   4.730   0.001   7.584 -0.1438 -0.1252  0.0715
  979POPC   C4A13902   4.376   0.155   7.907 -0.0434 -0.1991 -0.0499
  979POPC   C1B13903   5.470   0.471   7.189 -0.0226 -0.0667  0.0059
  979POPC   C2B13904   5.416   0.396   7.601 -0.2687  0.2640 -0.0210
  979POPC   C3B13905   5.130   0.191   7.800 -0.1507 -0.0935 -0.4246
  979POPC   C4B13906   4.822   0.136   8.129  0.1146  0.1471 -0.4877
  980POPC   NC313907   6.080  15.296   6.388 -0.0288  0.1979 -0.1798
  980POPC   PO413908   5.694  14.969   6.293  0.0580 -0.2263 -0.2233
  980POPC   GL113909   5.697  14.995   6.783 -0.5618  0.3703  0.3592
  980POPC   GL213910   6.016  15.112   6.909  0.0596  0.3076 -0.2073
  980POPC   C1A13911   5.673  14.673   7.100  0.1218 -0.0043 -0.1549
  980POPC   D2A13912   5.814  14.501   7.462 -0.3339  0.1331  0.1894
  980POPC   C3A13913   5.475  14.332   7.608 -0.0927 -0.2016 -0.3244
  980POPC   C4A13914   5.367  13.950   7.678 -0.2301  0.0192  0.2472
  980POPC   C1B13915   6.125  14.995   7.255  0.1928  0.0499 -0.1933
  980POPC   C2B13916   5.900  15.097   7.646  0.1565 -0.1479 -0.2595
  980POPC   C3B13917   5.942  15.450   7.933 -0.0362 -0.0189  0.2361
  980POPC   C4B13918   6.071  15.793   8.335  0.0820  0.1199 -0.2975
  981YOPC   NC313919  17.513  11.541   6.049  0.0006  0.1806  0.0489
  981YOPC   PO413920  17.868  11.663   6.191  0.0973 -0.1003  0.3244
  981YOPC   GL113921  17.917  11.380   6.544  0.0462 -0.1828 -0.2359
  981YOPC   GL213922  18.217  11.244   6.511 -0.0282  0.3780  0.0831
  981YOPC   C1A13923  17.766  11.196   6.857  0.1259  0.0415  0.1053
  981YOPC   D2A13924  17.612  11.003   7.249 -0.2743 -0.1113  0.1813
  981YOPC   C3A13925  17.731  11.065   7.747  0.0102  0.4190 -0.1930
  981YOPC   C4A13926  17.889  10.966   8.184  0.3045 -0.2323  0.0503
  981YOPC   C1B13927  18.194  11.113   6.941  0.3040 -0.0054 -0.1529
  981YOPC   C2B13928  18.115  11.161   7.381  0.1054  0.2854  0.1238
  981YOPC   D3B13929  18.322  11.123   7.708  0.1308 -0.0077  0.1256
  981YOPC   C4B13930  18.413  11.124   8.207 -0.0402  0.1675 -0.1495
  982YOPC   NC313931   5.495   6.453   5.446 -0.1455 -0.5191 -0.2295
  982YOPC   PO413932   5.708   6.422   5.891 -0.3876 -0.3067 -0.0813
  982YOPC   GL113933   5.710   6.558   6.262 -0.1979  0.1872 -0.2736
  982YOPC   GL213934   5.996   6.512   6.406 -0.2060  0.0209 -0.0079
  982YOPC   C1A13935   5.432   6.427   6.609 -0.3310 -0.2241 -0.2054
  982YOPC   D2A13936   5.088   6.428   6.835  0.2312  0.1928  0.0860
  982YOPC   C3A13937   5.070   6.409   7.272 -0.2395  0.0400 -0.1227
  982YOPC   C4A13938   4.780   6.340   7.710 -0.0766  0.2387 -0.0308
  982YOPC   C1B13939   5.836   6.572   6.817 -0.1973 -0.1386  0.0406
  982YOPC   C2B13940   5.501   6.778   7.130  0.0838  0.0762  0.1879
  982YOPC   D3B13941   5.137   6.885   7.016 -0.2271  0.1365 -0.0514
  982YOPC   C4B13942   4.756   6.944   6.850 -0.2693 -0.0582  0.0412
  983YOPC   NC313943   3.774   2.938   6.232  0.1087  0.1765  0.2866
  983YOPC   PO413944   4.234   2.910   6.161  0.1047  0.1077 -0.1125
  983YOPC   GL113945   4.200   2.881   6.513  0.1042 -0.1144  0.3520
  983YOPC   GL213946   3.991   2.881   6.725 -0.2271 -0.0398  0.1191
  983YOPC   C1A13947   4.445   2.690   6.915  0.1539  0.0116 -0.3634
  983YOPC   D2A13948   4.306   2.363   7.187  0.2890  0.1474 -0.0555
  983YOPC   C3A13949   4.078   2.462   7.474  0.0291  0.0722 -0.2083
  983YOPC   C4A13950   3.796   2.718   7.809 -0.2436 -0.4209 -0.0958
  983YOPC   C1B13951   4.075   2.893   7.174 -0.1545 -0.0767  0.2281
  983YOPC   C2B13952   4.437   3.003   7.385  0.3228 -0.0805  0.3902
  983YOPC   D3B13953   4.455   2.914   7.783  0.1416 -0.0874  0.0385
  983YOPC   C4B13954   4.650   2.659   8.127 -0.2574 -0.3075  0.0075
  984YOPC   NC313955  14.113  13.874   6.404 -0.0361  0.0926 -0.2684
  984YOPC   PO413956  13.900  13.557   6.169  0.0485  0.1418 -0.1982
  984YOPC   GL113957  13.840  13.478   6.613  0.0170 -0.0173  0.0952
  984YOPC   GL213958  14.047  13.188   6.646 -0.2919 -0.4740  0.1484
  984YOPC   C1A13959  13.843  13.468   7.077  0.2870 -0.0736  0.2177
  984YOPC   D2A13960  13.865  13.519   7.512  0.1982  0.0803  0.2207
  984YOPC   C3A13961  13.592  13.570   7.902 -0.0616  0.0968 -0.1769
  984YOPC   C4A13962  13.235  13.774   7.742  0.0502  0.1198 -0.1461
  984YOPC   C1B13963  14.158  13.113   7.029  0.0530  0.0920 -0.2042
  984YOPC   C2B13964  14.147  13.001   7.468  0.0268 -0.1817  0.1667
  984YOPC   D3B13965  14.208  13.300   7.782 -0.1116  0.3814 -0.2868
  984YOPC   C4B13966  14.321  13.516   8.271  0.1834  0.0003  0.1412
  985YOPC   NC313967  11.997   2.940   5.668 -0.3017 -0.1949  0.2585
  985YOPC   PO413968  12.269   3.200   5.876 -0.0481  0.0305 -0.1743
  985YOPC   GL113969  12.518   3.381   6.221  0.2163  0.0328  0.0772
  985YOPC   GL213970  12.724   3.226   6.506  0.0023 -0.0700 -0.2409
  985YOPC   C1A13971  12.516   3.717   6.529 -0.1846  0.2306 -0.2310
  985YOPC   D2A13972  12.234   3.903   6.942 -0.0133 -0.0675  0.0158
  985YOPC   C3A13973  12.427   4.123   7.374 -0.2946 -0.2099 -0.0848
  985YOPC   C4A13974  12.783   4.029   7.423 -0.0029  0.0575  0.0037
  985YOPC   C1B13975  12.878   3.499   6.763 -0.0031  0.0593 -0.2279
  985YOPC   C2B13976  12.953   3.603   7.183 -0.0352  0.4314 -0.0498
  985YOPC   D3B13977  13.187   3.817   7.558  0.0535  0.1011 -0.1540
  985YOPC   C4B13978  13.400   3.874   7.920 -0.1031  0.1476  0.3396
  986YOPC   NC313979   1.221  17.808   6.157 -0.1224  0.3997  0.3637
  986YOPC   PO413980   0.994  17.784   6.461 -0.0577  0.1285 -0.0984
  986YOPC   GL113981   1.267  17.782   6.778 -0.1023 -0.1036 -0.1171
  986YOPC   GL213982   1.486  17.654   6.607 -0.3128 -0.0114  0.0382
  986YOPC   C1A13983   1.342  17.709   7.166  0.1605  0.0302  0.2088
  986YOPC   D2A13984   1.421  17.690   7.514 -0.1417 -0.1245  0.1608
  986YOPC   C3A13985   1.387  17.404   7.843  0.2797  0.0868  0.0047
  986YOPC   C4A13986   0.902  17.358   7.946 -0.1240  0.2055  0.2930
  986YOPC   C1B13987   1.758  17.541   6.981 -0.2100  0.1291  0.0427
  986YOPC   C2B13988   1.822  17.408   7.462 -0.1071 -0.0905  0.1643
  986YOPC   D3B13989   1.833  17.757   7.755  0.2299  0.2437 -0.1379
  986YOPC   C4B13990   1.952  18.184   7.979 -0.1428 -0.3210  0.0170
  987YOPC   NC313991  12.268  13.191   5.581 -0.0917 -0.0097 -0.1746
  987YOPC   PO413992  12.290  13.317   5.966 -0.1800 -0.1398  0.0676
  987YOPC   GL113993  11.994  13.334   6.304  0.1774  0.0666  0.0338
  987YOPC   GL213994  11.699  13.092   6.217  0.0466 -0.1158  0.2002
  987YOPC   C1A13995  11.854  13.239   6.754  0.1050 -0.3871 -0.2195
  987YOPC   D2A13996  12.105  13.197   7.149 -0.1240  0.3931  0.0248
  987YOPC   C3A13997  12.136  13.351   7.543  0.0443  0.2850  0.1187
  987YOPC   C4A13998  12.221  13.533   7.912 -0.1425  0.0198  0.0222
  987YOPC   C1B13999  11.347  12.944   6.464 -0.0805  0.1079  0.1334
  987YOPC   C2B14000  11.008  12.860   6.603  0.1045 -0.2811  0.1704
  987YOPC   D3B14001  10.909  12.810   7.051 -0.1926 -0.1381 -0.1411
  987YOPC   C4B14002  10.933  12.534   7.356 -0.2877  0.1062  0.1231
  988YOPC   NC314003  11.798  10.875   5.766  0.0469 -0.2260 -0.1565
  988YOPC   PO414004  11.727  11.319   5.822  0.2053  0.3607 -0.1630
  988YOPC   GL114005  11.615  11.490   6.206 -0.1308 -0.0349  0.0191
  988YOPC   GL214006  11.740  11.747   6.350 -0.1824  0.0459 -0.0871
  988YOPC   C1A14007  11.434  11.490   6.645  0.2532 -0.2181  0.3234
  988YOPC   D2A14008  11.624  11.516   6.972  0.0057  0.0453  0.1004
  988YOPC   C3A14009  11.680  11.419   7.333  0.2528 -0.2142 -0.3351
  988YOPC   C4A14010  11.328  11.067   7.568 -0.0965 -0.1615  0.0393
  988YOPC   C1B14011  11.640  11.999   6.606 -0.1824 -0.1331 -0.1010
  988YOPC   C2B14012  11.529  12.138   6.910  0.1785  0.0289 -0.3199
  988YOPC   D3B14013  11.392  11.884   7.232  0.4031  0.1827  0.1016
  988YOPC   C4B14014  11.126  11.555   7.472  0.1455  0.3719 -0.0914
  989YOPC   NC314015  10.814   6.216   6.035 -0.2223  0.0332 -0.0396
  989YOPC   PO414016  10.996   6.019   6.338 -0.0970  0.1343  0.1000
  989YOPC   GL114017  10.945   6.042   6.723  0.3136  0.0282  0.0612
  989YOPC   GL214018  10.799   6.379   6.757 -0.1298 -0.0641  0.0150
  989YOPC   C1A14019  10.633   6.058   7.117 -0.0161 -0.2688 -0.1413
  989YOPC   D2A14020  10.430   5.782   7.523 -0.1129  0.0980  0.0486
  989YOPC   C3A14021  10.556   5.378   7.556 -0.0720  0.1402 -0.3122
  989YOPC   C4A14022  10.591   5.010   7.896 -0.1024 -0.2215  0.0512
  989YOPC   C1B14023  10.859   6.555   7.193  0.0424  0.4681 -0.0361
  989YOPC   C2B14024  11.132   6.540   7.565  0.0533  0.0613 -0.0085
  989YOPC   D3B14025  11.291   6.408   7.898 -0.0045  0.1237  0.1440
  989YOPC   C4B14026  11.530   6.489   8.063 -0.2004  0.1667 -0.2276
  990YOPC   NC314027   5.896  18.078   6.164 -0.0961 -0.0977 -0.0092
  990YOPC   PO414028   6.184  18.443   6.154  0.2113  0.0900  0.0156
  990YOPC   GL114029   6.181  18.404   6.603  0.1209  0.1734  0.1951
  990YOPC   GL214030   5.905  18.538   6.767 -0.0584  0.0472 -0.0856
  990YOPC   C1A14031   6.297  18.772   7.004  0.1770  0.0653 -0.3335
  990YOPC   D2A14032   6.262  18.862   7.480 -0.0466  0.3987 -0.0700
  990YOPC   C3A14033   6.080  18.838   7.761  0.0386  0.1514  0.0219
  990YOPC   C4A14034   5.775  18.782   8.013 -0.3088 -0.3708  0.1860
  990YOPC   C1B14035   5.950  18.558   7.267 -0.0726 -0.2154  0.2137
  990YOPC   C2B14036   5.891  18.431   7.574  0.1303 -0.0493 -0.1334
  990YOPC   D3B14037   6.071  18.161   7.579 -0.1166  0.3844  0.2411
  990YOPC   C4B14038   5.885  17.725   7.593  0.0892 -0.1956 -0.0817
  991YOPC   NC314039   7.841   7.643   5.172 -0.0223  0.2942 -0.0311
  991YOPC   PO414040   7.628   7.848   5.433 -0.2528 -0.0097 -0.0540
  991YOPC   GL114041   7.579   7.868   5.896 -0.0095 -0.1527  0.1313
  991YOPC   GL214042   7.509   8.206   5.882  0.1551  0.1796 -0.1821
  991YOPC   C1A14043   7.904   7.987   6.219 -0.0572 -0.2381 -0.0743
  991YOPC   D2A14044   8.073   8.018   6.638 -0.0274 -0.0773 -0.0444
  991YOPC   C3A14045   8.086   7.712   6.912 -0.0475 -0.4898 -0.1219
  991YOPC   C4A14046   8.364   7.514   7.164  0.0877 -0.1985 -0.1990
  991YOPC   C1B14047   7.485   8.298   6.308  0.4062  0.2582 -0.0801
  991YOPC   C2B14048   7.629   8.219   6.626 -0.0727  0.1174 -0.0002
  991YOPC   D3B14049   7.653   8.615   6.692  0.0542  0.1405 -0.2496
  991YOPC   C4B14050   7.578   8.966   6.959 -0.1292 -0.1091 -0.2202
  992YOPC   NC314051   1.320  15.811   5.983  0.0359  0.0617 -0.1381
  992YOPC   PO414052   1.010  15.961   6.395  0.1938 -0.1567  0.2848
  992YOPC   GL114053   1.204  15.933   6.744 -0.0298 -0.1334  0.1093
  992YOPC   GL214054   1.253  16.118   7.041  0.1873 -0.2274  0.1604
  992YOPC   C1A14055   1.694  15.660   6.906 -0.0015 -0.0695 -0.2762
  992YOPC   D2A14056   1.861  15.573   7.217  0.1586  0.0394  0.0453
  992YOPC   C3A14057   2.079  15.187   7.056 -0.0488  0.1088 -0.5048
  992YOPC   C4A14058   2.331  15.085   6.636 -0.1182  0.0812 -0.0529
  992YOPC   C1B14059   1.032  16.482   7.219  0.3212 -0.1509 -0.1931
  992YOPC   C2B14060   0.964  16.831   7.592  0.2189 -0.1268 -0.3480
  992YOPC   D3B14061   0.922  16.577   7.923 -0.0510  0.0418  0.2727
  992YOPC   C4B14062   0.927  16.352   8.218 -0.2167  0.0087 -0.3237
  993YOPC   NC314063  15.625   5.440   5.042  0.0561 -0.0124  0.0781
  993YOPC   PO414064  15.502   5.073   5.283  0.1057  0.1509  0.2543
  993YOPC   GL114065  15.403   5.359   5.593 -0.0240 -0.1186  0.2124
  993YOPC   GL214066  15.377   5.163   5.825 -0.2450 -0.0216  0.0913
  993YOPC   C1A14067  15.185   5.675   5.912  0.2330  0.1191 -0.0685
  993YOPC   D2A14068  15.041   6.006   6.307  0.2232  0.1517  0.0356
  993YOPC   C3A14069  15.185   6.378   6.518 -0.0659 -0.2545  0.4949
  993YOPC   C4A14070  15.087   6.618   6.882  0.0005 -0.2541  0.3372
  993YOPC   C1B14071  15.337   5.199   6.317 -0.0747 -0.0258 -0.0026
  993YOPC   C2B14072  15.544   5.399   6.620 -0.3424  0.1631 -0.2694
  993YOPC   D3B14073  15.496   5.511   7.027  0.1273  0.0101 -0.1084
  993YOPC   C4B14074  15.026   5.695   7.180  0.2099 -0.1229  0.0101
  994YOPC   NC314075   7.132  15.370   5.830 -0.3992  0.0992  0.0117
  994YOPC   PO414076   6.821  15.596   5.957 -0.1867 -0.0037 -0.0221
  994YOPC   GL114077   6.849  15.712   6.378 -0.0539 -0.0883 -0.1397
  994YOPC   GL214078   6.698  15.637   6.628 -0.2955  0.2288  0.0197
  994YOPC   C1A14079   7.207  15.739   6.721  0.1273  0.0622 -0.0526
  994YOPC   D2A14080   7.228  15.785   7.164 -0.0731  0.1566  0.3143
  994YOPC   C3A14081   7.506  15.949   7.482 -0.1021 -0.1629 -0.0032
  994YOPC   C4A14082   7.779  16.013   7.844  0.1665  0.1861 -0.1054
  994YOPC   C1B14083   6.704  15.712   7.108  0.2556 -0.1495 -0.2253
  994YOPC   C2B14084   6.360  15.832   7.447 -0.0924 -0.1950  0.3114
  994YOPC   D3B14085   6.318  16.282   7.496  0.0892  0.2724  0.1310
  994YOPC   C4B14086   6.060  16.487   7.818  0.1751 -0.1897  0.2895
  995YOPC   NC314087   5.769   1.837   5.988  0.0410  0.0305  0.1345
  995YOPC   PO414088   5.945   1.590   6.203  0.3427 -0.3372 -0.4099
  995YOPC   GL114089   5.777   1.432   6.596 -0.1230  0.2281  0.0244
  995YOPC   GL214090   5.973   1.339   6.817 -0.2389 -0.1490  0.2992
  995YOPC   C1A14091   5.441   1.343   6.937 -0.1698 -0.3000  0.0924
  995YOPC   D2A14092   5.377   1.326   7.357 -0.2056  0.3430 -0.0172
  995YOPC   C3A14093   5.301   1.647   7.670 -0.1206 -0.0796 -0.0602
  995YOPC   C4A14094   5.307   1.786   8.135 -0.0035  0.3642  0.0513
  995YOPC   C1B14095   5.880   1.459   7.251 -0.0633  0.1933 -0.0509
  995YOPC   C2B14096   5.844   1.506   7.648 -0.0377  0.0525  0.1517
  995YOPC   D3B14097   5.801   1.588   8.199 -0.2285  0.0257  0.2005
  995YOPC   C4B14098   5.567   1.619   8.538 -0.1238  0.0863  0.1590
  996YOPC   NC314099  15.030  10.891   5.356 -0.1138  0.2223  0.1139
  996YOPC   PO414100  15.321  11.139   5.518  0.1402 -0.0688 -0.0384
  996YOPC   GL114101  15.389  11.179   5.842  0.0654 -0.2419 -0.3268
  996YOPC   GL214102  15.573  11.463   5.968 -0.4854  0.2256 -0.2577
  996YOPC   C1A14103  15.533  10.896   6.330  0.1042 -0.1548 -0.0168
  996YOPC   D2A14104  15.373  10.860   6.799  0.1006  0.0674  0.1924
  996YOPC   C3A14105  15.092  11.086   6.952  0.2488 -0.0226 -0.0446
  996YOPC   C4A14106  15.094  11.264   7.370 -0.0464 -0.0345 -0.1399
  996YOPC   C1B14107  15.423  11.500   6.449 -0.0492 -0.0008  0.3246
  996YOPC   C2B14108  15.322  11.524   6.793  0.0052  0.0893 -0.1135
  996YOPC   D3B14109  15.624  11.601   7.200  0.0644  0.2034 -0.3654
  996YOPC   C4B14110  15.971  11.702   7.474  0.0491  0.1407  0.0044
  997YOPC   NC314111   0.373  13.832   5.775 -0.1156 -0.3254 -0.3153
  997YOPC   PO414112   0.237  14.068   6.071  0.1138  0.0716 -0.0449
  997YOPC   GL114113   0.280  13.986   6.439 -0.0126 -0.2453 -0.0191
  997YOPC   GL214114   0.298  14.161   6.726  0.4928 -0.0887  0.0861
  997YOPC   C1A14115   0.428  13.663   6.753 -0.0303  0.1453  0.1854
  997YOPC   D2A14116   0.303  13.367   6.859 -0.0160  0.5488 -0.1193
  997YOPC   C3A14117   0.517  13.161   7.078  0.2661  0.1124  0.1272
  997YOPC   C4A14118   0.684  12.895   7.395  0.2869 -0.0884 -0.3101
  997YOPC   C1B14119   0.558  14.028   7.063 -0.0403  0.0446  0.1294
  997YOPC   C2B14120   0.758  13.944   7.525  0.0006 -0.0212 -0.0218
  997YOPC   D3B14121   0.877  13.786   7.844 -0.0582 -0.0241 -0.2193
  997YOPC   C4B14122   0.993  13.456   8.154  0.0309  0.0566 -0.0937
  998YOPC   NC314123  12.667   9.299   5.324  0.1903 -0.1882 -0.1508
  998YOPC   PO414124  12.825   8.937   5.098 -0.1188 -0.0769  0.1795
  998YOPC   GL114125  12.866   8.698   5.532  0.1900  0.5393  0.1706
  998YOPC   GL214126  12.886   8.847   5.745 -0.1855  0.2103  0.0661
  998YOPC   C1A14127  12.745   8.254   5.704 -0.0200  0.1039  0.0629
  998YOPC   D2A14128  12.523   8.090   6.024 -0.1175  0.0535 -0.2362
  998YOPC   C3A14129  12.484   7.898   6.349 -0.1774 -0.0580  0.1006
  998YOPC   C4A14130  12.712   7.890   6.801  0.0330  0.3159 -0.0888
  998YOPC   C1B14131  12.608   9.062   5.944 -0.1651  0.0924 -0.3502
  998YOPC   C2B14132  12.441   8.922   6.269 -0.0332  0.2092 -0.0777
  998YOPC   D3B14133  12.068   9.176   6.336 -0.1535 -0.0495 -0.0613
  998YOPC   C4B14134  11.697   9.513   6.396 -0.0110 -0.3494  0.1009
  999YOPC   NC314135   1.033   5.046   5.809  0.2393 -0.2524  0.2209
  999YOPC   PO414136   1.267   4.796   6.084  0.0290  0.3388  0.1148
  999YOPC   GL114137   1.217   4.747   6.512 -0.1168  0.0045 -0.3424
  999YOPC   GL214138   0.985   4.626   6.605  0.0965  0.3414 -0.0337
  999YOPC   C1A14139   1.413   4.951   6.827 -0.1373 -0.2980  0.0244
  999YOPC   D2A14140   1.347   4.978   7.150  0.1849 -0.0013  0.2819
  999YOPC   C3A14141   1.529   5.119   7.560  0.2376  0.1183  0.3058
  999YOPC   C4A14142   1.661   5.243   7.937  0.0161  0.0557  0.0184
  999YOPC   C1B14143   1.068   4.621   7.012  0.0807 -0.0579 -0.2040
  999YOPC   C2B14144   1.157   4.467   7.473 -0.2414  0.0560  0.1292
  999YOPC   D3B14145   1.486   4.176   7.518 -0.0007  0.0831 -0.1800
  999YOPC   C4B14146   1.696   3.840   7.705 -0.1013  0.2397 -0.3385
 1000YOPC   NC314147   1.969   8.310   5.713  0.1325 -0.3762 -0.2457
 1000YOPC   PO414148   2.435   8.285   5.735  0.1483 -0.2707 -0.0422
 1000YOPC   GL114149   2.351   8.398   6.196  0.0773 -0.1218  0.0986
 1000YOPC   GL214150   1.956   8.262   6.253 -0.1200 -0.1445  0.1013
 1000YOPC   C1A14151   2.197   8.373   6.681  0.0517 -0.1746 -0.0079
 1000YOPC   D2A14152   1.968   8.749   6.873  0.2061 -0.2786 -0.2631
 1000YOPC   C3A14153   2.129   9.163   6.810  0.0785 -0.2935 -0.0287
 1000YOPC   C4A14154   2.534   9.344   7.009  0.1307 -0.2030 -0.0546
 1000YOPC   C1B14155   1.716   8.508   6.523  0.0366 -0.0636 -0.0012
 1000YOPC   C2B14156   1.419   8.432   6.958  0.1525  0.0309 -0.3690
 1000YOPC   D3B14157   1.238   8.626   7.159 -0.3063 -0.2513 -0.1386
 1000YOPC   C4B14158   1.131   8.644   7.541 -0.0686  0.0988  0.0034
 1001YOPC   NC314159  16.580  12.750   5.940  0.2334  0.3056  0.0472
 1001YOPC   PO414160  16.765  12.834   6.399  0.2388  0.2011 -0.3486
 1001YOPC   GL114161  16.659  12.970   6.772  0.0925  0.0381 -0.1654
 1001YOPC   GL214162  16.498  12.697   6.843  0.0029  0.0725  0.1057
 1001YOPC   C1A14163  16.609  12.880   7.281 -0.1457  0.4046  0.0338
 1001YOPC   D2A14164  16.758  12.811   7.701 -0.0516  0.0241 -0.0374
 1001YOPC   C3A14165  17.072  12.461   7.780 -0.0353  0.2340 -0.1097
 1001YOPC   C4A14166  17.397  12.258   8.181 -0.2474  0.2303  0.2018
 1001YOPC   C1B14167  16.448  12.400   7.182  0.0703 -0.0269 -0.0315
 1001YOPC   C2B14168  16.224  12.176   7.533  0.0426  0.2559 -0.2158
 1001YOPC   D3B14169  16.436  11.858   7.813 -0.0793 -0.2183 -0.1679
 1001YOPC   C4B14170  16.720  11.483   7.960  0.1347 -0.2414 -0.0813
 1002YOPC   NC314171  10.485   6.075   6.436 -0.0116 -0.2749  0.0886
 1002YOPC   PO414172  10.356   6.402   6.214  0.0321 -0.1637  0.2395
 1002YOPC   GL114173  10.378   6.640   6.642 -0.0175  0.1741 -0.1366
 1002YOPC   GL214174  10.068   6.712   6.540  0.2063 -0.0835  0.3381
 1002YOPC   C1A14175  10.327   6.475   7.125 -0.0068 -0.2325  0.2224
 1002YOPC   D2A14176  10.352   6.333   7.517  0.0525 -0.0673  0.1874
 1002YOPC   C3A14177  10.687   6.439   7.910  0.1035 -0.2322 -0.0839
 1002YOPC   C4A14178  10.904   6.859   7.884 -0.2553 -0.1929  0.2800
 1002YOPC   C1B14179   9.911   6.616   6.987  0.0987  0.0484  0.0514
 1002YOPC   C2B14180   9.998   6.637   7.499  0.3429 -0.3813 -0.0188
 1002YOPC   D3B14181   9.843   6.612   7.955 -0.0400  0.1326 -0.0050
 1002YOPC   C4B14182   9.629   6.696   8.265 -0.0785 -0.0732  0.2296
 1003YOPC   NC314183  10.660  13.927   6.171  0.1187  0.0578 -0.1138
 1003YOPC   PO414184  10.457  13.539   5.942 -0.0210  0.0413 -0.1030
 1003YOPC   GL114185  10.472  13.490   6.436 -0.2307 -0.1400  0.1312
 1003YOPC   GL214186  10.528  13.798   6.611  0.2174  0.0913 -0.5282
 1003YOPC   C1A14187  10.401  13.372   6.868 -0.2656 -0.2012 -0.0300
 1003YOPC   D2A14188  10.596  13.348   7.215 -0.0846  0.1636  0.0506
 1003YOPC   C3A14189  10.767  13.059   7.553 -0.0508  0.2708  0.0411
 1003YOPC   C4A14190  10.780  12.837   7.763  0.0296 -0.4530  0.0287
 1003YOPC   C1B14191  10.354  13.875   7.002 -0.1130  0.0827  0.0049
 1003YOPC   C2B14192  10.190  13.758   7.365 -0.1536  0.1741  0.0476
 1003YOPC   D3B14193  10.154  13.350   7.388 -0.0945  0.2273 -0.2607
 1003YOPC   C4B14194  10.356  13.123   7.838 -0.1811  0.2221  0.1627
 1004YOPC   NC314195  16.395   1.383   5.584 -0.2052  0.0725 -0.5535
 1004YOPC   PO414196  16.583   1.630   5.796  0.0047  0.1070  0.0410
 1004YOPC   GL114197  16.588   1.616   6.227  0.1309 -0.1584 -0.3210
 1004YOPC   GL214198  16.574   1.400   6.424 -0.1023 -0.0210 -0.0844
 1004YOPC   C1A14199  16.681   1.664   6.800  0.3168  0.1566 -0.1036
 1004YOPC   D2A14200  16.814   1.834   7.121 -0.0109  0.2641 -0.2648
 1004YOPC   C3A14201  16.702   1.667   7.624 -0.1263  0.0671 -0.0301
 1004YOPC   C4A14202  16.619   1.796   8.073  0.0251  0.0072  0.2378
 1004YOPC   C1B14203  16.375   1.205   6.793 -0.1560  0.0761  0.0528
 1004YOPC   C2B14204  16.378   1.129   7.158  0.2600  0.1229 -0.3134
 1004YOPC   D3B14205  16.432   1.188   7.607 -0.0337  0.0058 -0.3480
 1004YOPC   C4B14206  16.611   1.261   8.063  0.1079 -0.0421 -0.0243
 1005YOPC   NC314207  16.044   8.016   5.638  0.0742  0.0465 -0.0223
 1005YOPC   PO414208  15.671   7.652   5.516 -0.1782 -0.0924 -0.4751
 1005YOPC   GL114209  15.760   7.771   6.021 -0.1188 -0.0391 -0.1751
 1005YOPC   GL214210  16.034   7.658   6.117 -0.2271 -0.1883 -0.2904
 1005YOPC   C1A14211  15.631   7.838   6.459  0.1795  0.1503 -0.0269
 1005YOPC   D2A14212  15.688   8.045   6.763 -0.1711  0.2200 -0.2590
 1005YOPC   C3A14213  15.953   7.909   7.059 -0.0861  0.1993  0.2942
 1005YOPC   C4A14214  15.995   7.459   7.402 -0.1003 -0.0264 -0.1041
 1005YOPC   C1B14215  15.749   7.297   6.300  0.2264 -0.2342  0.1064
 1005YOPC   C2B14216  15.880   6.856   6.284  0.1129 -0.2297 -0.1425
 1005YOPC   D3B14217  15.866   6.653   6.746 -0.1307 -0.1474 -0.0534
 1005YOPC   C4B14218  15.837   6.236   6.913  0.0171 -0.0029 -0.2559
 1006YOPC   NC314219   0.508   2.177   6.120 -0.1844  0.1218  0.1682
 1006YOPC   PO414220   0.707   1.857   6.317  0.4026 -0.0510  0.1477
 1006YOPC   GL114221   0.629   1.929   6.730 -0.0432 -0.2179  0.1144
 1006YOPC   GL214222   0.391   2.138   6.602 -0.0680 -0.1304  0.0173
 1006YOPC   C1A14223   0.632   2.088   7.095  0.4230 -0.0532 -0.0980
 1006YOPC   D2A14224   0.883   2.227   7.472 -0.1325 -0.0414  0.3936
 1006YOPC   C3A14225   0.744   2.303   7.916  0.1816 -0.0587 -0.2214
 1006YOPC   C4A14226   0.355   2.517   8.044  0.0562  0.0304  0.0543
 1006YOPC   C1B14227   0.459   2.525   6.832  0.0839  0.0957 -0.1131
 1006YOPC   C2B14228   0.819   2.578   7.097 -0.0690  0.2891  0.0062
 1006YOPC   D3B14229   0.768   2.726   7.640  0.1167  0.2728  0.0728
 1006YOPC   C4B14230   0.741   2.838   8.025 -0.2081 -0.2148  0.0601
 1007YOPC   NC314231   5.571  16.206   6.164 -0.0192  0.1271 -0.2949
 1007YOPC   PO414232   5.790  15.729   6.254 -0.2736 -0.1225 -0.1578
 1007YOPC   GL114233   5.785  15.804   6.771 -0.1898  0.1484 -0.1087
 1007YOPC   GL214234   5.508  15.606   6.982  0.0635  0.2394  0.0611
 1007YOPC   C1A14235   6.075  16.110   7.035  0.1957  0.0645 -0.0923
 1007YOPC   D2A14236   5.919  16.523   7.145 -0.5647 -0.2283 -0.1096
 1007YOPC   C3A14237   5.616  16.451   7.560 -0.0254 -0.0986 -0.1433
 1007YOPC   C4A14238   5.297  16.366   7.905 -0.1264  0.0758  0.0141
 1007YOPC   C1B14239   5.714  15.915   7.271 -0.0400  0.1619 -0.2923
 1007YOPC   C2B14240   5.934  15.904   7.631  0.2856 -0.0820  0.0150
 1007YOPC   D3B14241   5.718  16.079   8.007  0.0438  0.2471 -0.3321
 1007YOPC   C4B14242   5.714  16.106   8.449 -0.0764 -0.2224 -0.5207
 1008YOPC   NC314243  14.193  12.897   5.459 -0.0531  0.1571  0.1085
 1008YOPC   PO414244  14.149  12.700   5.854  0.2941 -0.2160  0.1170
 1008YOPC   GL114245  14.264  12.576   6.233  0.1984 -0.0884  0.0797
 1008YOPC   GL214246  14.250  12.253   6.243 -0.1009 -0.0847 -0.1311
 1008YOPC   C1A14247  14.609  12.389   6.510  0.2549 -0.0164 -0.2406
 1008YOPC   D2A14248  15.078  12.519   6.762 -0.6582 -0.2173  0.2022
 1008YOPC   C3A14249  15.450  12.446   6.969 -0.3941  0.2216  0.0433
 1008YOPC   C4A14250  15.487  12.472   7.406 -0.1069 -0.2169  0.0782
 1008YOPC   C1B14251  14.094  12.226   6.789  0.2820  0.1823 -0.0963
 1008YOPC   C2B14252  13.769  12.308   7.045  0.0204  0.1918  0.0083
 1008YOPC   D3B14253  13.841  12.499   7.470  0.1166  0.1924  0.1288
 1008YOPC   C4B14254  13.965  12.657   7.836  0.2808  0.1957 -0.0357
 1009YOPC   NC314255  10.599  12.679   5.689 -0.0353  0.0148 -0.3194
 1009YOPC   PO414256  11.051  12.820   5.713  0.1508 -0.2796 -0.0289
 1009YOPC   GL114257  11.114  12.732   6.128  0.2758 -0.2260  0.0983
 1009YOPC   GL214258  10.831  12.562   6.204 -0.1215  0.1111  0.0603
 1009YOPC   C1A14259  11.317  12.381   6.512  0.2593  0.2323 -0.1093
 1009YOPC   D2A14260  11.344  12.684   6.927 -0.0364  0.1242 -0.0648
 1009YOPC   C3A14261  11.487  12.461   7.288 -0.2295  0.2907  0.0769
 1009YOPC   C4A14262  11.730  12.363   7.445  0.2385  0.1086 -0.1059
 1009YOPC   C1B14263  10.791  12.380   6.535  0.2864  0.2181 -0.0570
 1009YOPC   C2B14264  10.973  12.292   6.884  0.2709  0.2128  0.2055
 1009YOPC   D3B14265  10.829  12.012   7.134 -0.2621  0.1671 -0.2740
 1009YOPC   C4B14266  10.918  12.085   7.606  0.3932  0.1364  0.1268
 1010YOPC   NC314267   2.153  15.380   5.666 -0.1043  0.3010  0.2114
 1010YOPC   PO414268   1.782  15.006   5.624  0.0270 -0.0759 -0.2157
 1010YOPC   GL114269   1.863  15.039   6.065 -0.1609  0.1237 -0.0040
 1010YOPC   GL214270   2.053  15.229   6.161  0.2430 -0.0686 -0.3949
 1010YOPC   C1A14271   1.822  14.930   6.513 -0.2891  0.0782  0.2198
 1010YOPC   D2A14272   2.025  14.745   6.836  0.0222 -0.2464 -0.0901
 1010YOPC   C3A14273   1.872  14.757   7.226  0.2276  0.1013  0.0140
 1010YOPC   C4A14274   1.902  14.949   7.690  0.1658 -0.0887  0.1397
 1010YOPC   C1B14275   1.990  15.445   6.523 -0.3339 -0.0514 -0.0219
 1010YOPC   C2B14276   2.170  15.850   6.743  0.3935 -0.1459 -0.3155
 1010YOPC   D3B14277   2.312  15.812   7.162 -0.3052  0.1350  0.1740
 1010YOPC   C4B14278   2.166  15.765   7.548  0.1462 -0.1760 -0.0431
 1011YOPC   NC314279  10.173   6.859   6.083 -0.1781  0.1189 -0.2135
 1011YOPC   PO414280  10.603   7.154   5.981  0.0506 -0.0213 -0.0924
 1011YOPC   GL114281  10.928   7.177   6.264  0.0670 -0.0632 -0.0830
 1011YOPC   GL214282  11.235   7.369   6.204 -0.1461 -0.2757 -0.1180
 1011YOPC   C1A14283  11.066   7.324   6.714 -0.4101 -0.1257  0.0958
 1011YOPC   D2A14284  10.887   7.313   7.013  0.0122  0.0079 -0.2223
 1011YOPC   C3A14285  10.905   7.754   7.283  0.0587  0.1553 -0.0618
 1011YOPC   C4A14286  10.965   8.210   7.020  0.1271  0.2355  0.0038
 1011YOPC   C1B14287  11.368   7.696   6.395 -0.2795  0.1730  0.1531
 1011YOPC   C2B14288  11.581   8.077   6.560  0.0542 -0.0045 -0.0394
 1011YOPC   D3B14289  11.579   8.158   6.911 -0.1879  0.0499 -0.4344
 1011YOPC   C4B14290  11.538   8.391   7.313 -0.0381 -0.0413  0.2569
 1012YOPC   NC314291  17.015   6.237   5.700 -0.3072  0.1046  0.1160
 1012YOPC   PO414292  16.777   6.650   5.641 -0.1135  0.0380 -0.0012
 1012YOPC   GL114293  16.425   6.711   5.881 -0.0039  0.1110 -0.3373
 1012YOPC   GL214294  16.319   6.992   5.816 -0.0224 -0.1172  0.1923
 1012YOPC   C1A14295  16.275   6.648   6.316  0.0483  0.0057 -0.2480
 1012YOPC   D2A14296  16.377   6.667   6.755 -0.1898  0.1376  0.0045
 1012YOPC   C3A14297  16.282   6.374   7.095 -0.1271  0.0638 -0.1059
 1012YOPC   C4A14298  16.456   5.971   7.063  0.0657  0.0999  0.0249
 1012YOPC   C1B14299  16.210   7.204   6.161 -0.1937 -0.0494 -0.0840
 1012YOPC   C2B14300  16.215   7.206   6.521 -0.1522 -0.1071 -0.0408
 1012YOPC   D3B14301  15.810   7.372   6.785 -0.2287 -0.3189  0.3196
 1012YOPC   C4B14302  15.471   7.394   7.171 -0.0163 -0.4573 -0.1962
 1013YOPC   NC314303   1.932   0.139   6.038  0.2146 -0.0741  0.0049
 1013YOPC   PO414304   1.847   0.520   5.943 -0.1497  0.2812  0.2160
 1013YOPC   GL114305   2.065   0.508   6.420 -0.5350 -0.2135 -0.2356
 1013YOPC   GL214306   1.875   0.416   6.778  0.1508  0.0949  0.0591
 1013YOPC   C1A14307   2.322   0.632   6.807  0.0921 -0.0097 -0.1666
 1013YOPC   D2A14308   2.284   0.701   7.260  0.0828 -0.3712  0.0996
 1013YOPC   C3A14309   2.301   0.328   7.402  0.2569  0.1516 -0.0909
 1013YOPC   C4A14310   2.227  -0.083   7.547 -0.1074  0.1595 -0.0190
 1013YOPC   C1B14311   1.891   0.460   7.132  0.4191 -0.2062 -0.3731
 1013YOPC   C2B14312   1.853   0.362   7.549  0.0057 -0.0395 -0.0923
 1013YOPC   D3B14313   1.981   0.598   7.825  0.2849 -0.1509  0.2259
 1013YOPC   C4B14314   1.862   0.927   8.208 -0.2685  0.3384  0.2018
 1014YOPC   NC314315   8.023   5.953   5.912 -0.0813  0.1045  0.0708
 1014YOPC   PO414316   8.361   5.627   5.876  0.1498  0.5631 -0.0352
 1014YOPC   GL114317   8.194   5.698   6.294 -0.0923 -0.2640  0.0785
 1014YOPC   GL214318   7.828   5.594   6.295  0.2164  0.0594  0.1005
 1014YOPC   C1A14319   8.045   5.823   6.770  0.3239 -0.0646 -0.0779
 1014YOPC   D2A14320   7.792   5.729   7.157  0.1233  0.1251 -0.4164
 1014YOPC   C3A14321   7.962   5.413   7.473  0.1843 -0.0263  0.1799
 1014YOPC   C4A14322   8.103   4.932   7.469  0.2550  0.0332 -0.1251
 1014YOPC   C1B14323   7.693   5.379   6.684  0.2280 -0.0828  0.0874
 1014YOPC   C2B14324   7.633   5.268   7.059  0.3017 -0.0118 -0.0026
 1014YOPC   D3B14325   7.459   5.382   7.446 -0.1552  0.2588  0.0371
 1014YOPC   C4B14326   7.372   5.548   7.857 -0.1281  0.0173  0.1093
 1015YOPC   NC314327  18.037  15.902   6.438  0.1365  0.0991  0.0459
 1015YOPC   PO414328  17.735  16.240   6.317  0.0916  0.1027 -0.1894
 1015YOPC   GL114329  17.512  16.380   6.622 -0.2159  0.1650  0.1332
 1015YOPC   GL214330  17.215  16.211   6.576 -0.0166 -0.0223  0.0940
 1015YOPC   C1A14331  17.386  16.252   7.018  0.2924 -0.1437  0.1118
 1015YOPC   D2A14332  17.354  15.863   7.260 -0.0009  0.0057 -0.3534
 1015YOPC   C3A14333  17.786  15.817   7.453  0.1064 -0.0857 -0.2427
 1015YOPC   C4A14334  17.972  15.943   7.899 -0.0675 -0.0230  0.0284
 1015YOPC   C1B14335  16.923  16.417   6.845  0.0620 -0.1623 -0.2253
 1015YOPC   C2B14336  16.606  16.579   7.066 -0.0434  0.2019 -0.1115
 1015YOPC   D3B14337  16.465  16.464   7.450 -0.1309  0.0892 -0.0255
 1015YOPC   C4B14338  16.594  16.287   7.882  0.1767 -0.3188 -0.2900
 1016YOPC   NC314339   8.736   9.456   5.400 -0.2959  0.1280  0.1208
 1016YOPC   PO414340   8.586   9.846   5.318 -0.0417  0.0244 -0.1659
 1016YOPC   GL114341   8.893   9.706   5.775  0.0201 -0.0745  0.1591
 1016YOPC   GL214342   9.040   9.343   5.771  0.0609 -0.1111 -0.0327
 1016YOPC   C1A14343   8.695   9.599   6.171  0.1466  0.1613 -0.2084
 1016YOPC   D2A14344   8.552   9.673   6.564 -0.0510  0.0750  0.0261
 1016YOPC   C3A14345   8.596   9.450   6.879  0.3968 -0.1160 -0.1723
 1016YOPC   C4A14346   8.386   8.969   6.980 -0.0530 -0.0263 -0.1989
 1016YOPC   C1B14347   8.894   9.083   6.150 -0.0506 -0.0209 -0.0112
 1016YOPC   C2B14348   8.965   8.888   6.384  0.0012  0.0244  0.1501
 1016YOPC   D3B14349   8.971   8.956   6.843  0.4802 -0.0815 -0.1595
 1016YOPC   C4B14350   8.778   8.816   7.234 -0.1041  0.2086 -0.1827
 1017YOPC   NC314351   2.377   0.460   6.055  0.2486  0.1967  0.0270
 1017YOPC   PO414352   2.417   0.022   5.990  0.0584  0.3167 -0.1083
 1017YOPC   GL114353   2.786   0.183   6.273 -0.1393  0.0813  0.2036
 1017YOPC   GL214354   2.951  -0.035   6.305 -0.2629  0.1971  0.2018
 1017YOPC   C1A14355   3.023   0.155   6.735  0.0795  0.1312  0.2975
 1017YOPC   D2A14356   3.028  -0.138   7.122  0.1705  0.2627  0.0790
 1017YOPC   C3A14357   3.277   0.039   7.511 -0.1026 -0.3324  0.0456
 1017YOPC   C4A14358   3.275   0.002   7.977  0.1220  0.0154  0.1218
 1017YOPC   C1B14359   2.744  -0.237   6.742 -0.0470 -0.0306  0.1830
 1017YOPC   C2B14360   2.553  -0.223   7.160 -0.0856  0.0976  0.4321
 1017YOPC   D3B14361   2.804  -0.367   7.579  0.0696 -0.1666 -0.1190
 1017YOPC   C4B14362   2.765  -0.168   8.006 -0.1919 -0.1663 -0.1513
 1018YOPC   NC314363  15.388  13.764   5.863 -0.0511 -0.1186 -0.2777
 1018YOPC   PO414364  15.752  13.661   6.189  0.1994  0.1297  0.0458
 1018YOPC   GL114365  15.699  13.502   6.580 -0.0364  0.2340 -0.2787
 1018YOPC   GL214366  15.787  13.623   6.711  0.1413  0.2713 -0.1000
 1018YOPC   C1A14367  15.546  13.288   6.955 -0.3166  0.1927  0.0026
 1018YOPC   D2A14368  15.614  12.895   7.165  0.0493  0.0204  0.3101
 1018YOPC   C3A14369  15.636  12.883   7.577 -0.0185 -0.1757  0.0150
 1018YOPC   C4A14370  15.524  12.974   8.034  0.1325  0.0785 -0.1734
 1018YOPC   C1B14371  15.771  13.735   7.181  0.0887  0.0621 -0.0527
 1018YOPC   C2B14372  15.503  13.953   7.508 -0.1777  0.0155  0.1033
 1018YOPC   D3B14373  15.571  14.041   7.816  0.1342 -0.0473  0.1960
 1018YOPC   C4B14374  15.392  14.262   8.225 -0.1361  0.3544 -0.1066
 1019YOPC   NC314375   7.226   6.043   5.624 -0.5294 -0.0470  0.2432
 1019YOPC   PO414376   7.525   6.033   5.896  0.0392 -0.0751 -0.0767
 1019YOPC   GL114377   7.415   6.360   6.139  0.0285  0.0855 -0.3783
 1019YOPC   GL214378   7.165   6.377   6.234  0.3996 -0.3127  0.2694
 1019YOPC   C1A14379   7.688   6.534   6.469  0.0172 -0.2920  0.3355
 1019YOPC   D2A14380   8.025   6.855   6.583  0.1610 -0.0904 -0.0498
 1019YOPC   C3A14381   8.356   7.055   6.461 -0.1145  0.0522  0.0014
 1019YOPC   C4A14382   8.783   6.928   6.336 -0.0555 -0.0741  0.0594
 1019YOPC   C1B14383   7.251   6.262   6.645  0.0837  0.3207 -0.0029
 1019YOPC   C2B14384   7.635   6.165   6.925 -0.3101 -0.5394  0.0673
 1019YOPC   D3B14385   7.746   6.287   7.318  0.1009  0.1295 -0.0941
 1019YOPC   C4B14386   7.566   6.315   7.766  0.1052  0.1785  0.4850
 1020YOPC   NC314387   6.736   1.284   6.033  0.1396 -0.1414  0.0309
 1020YOPC   PO414388   6.349   1.279   6.117 -0.2238 -0.0619  0.0487
 1020YOPC   GL114389   6.424   1.425   6.533 -0.2584  0.0714 -0.2751
 1020YOPC   GL214390   6.646   1.700   6.582  0.0126  0.0220 -0.2837
 1020YOPC   C1A14391   6.508   1.312   6.929 -0.1625 -0.3292  0.1342
 1020YOPC   D2A14392   6.320   1.179   7.253 -0.0010  0.0106 -0.0820
 1020YOPC   C3A14393   6.364   1.256   7.691  0.0686  0.0754 -0.1575
 1020YOPC   C4A14394   6.131   1.084   8.015 -0.4097  0.0122 -0.3470
 1020YOPC   C1B14395   6.784   1.737   6.969 -0.1049  0.0667  0.1416
 1020YOPC   C2B14396   6.669   1.493   7.337 -0.3912  0.2544 -0.2323
 1020YOPC   D3B14397   6.693   1.674   7.792  0.0082  0.0135 -0.1707
 1020YOPC   C4B14398   6.955   1.664   8.067  0.0125 -0.2603 -0.4200
 1021YOPC   NC314399  10.347   2.584   6.037 -0.1580 -0.0086  0.0105
 1021YOPC   PO414400  10.229   3.057   6.003 -0.0902 -0.3444  0.0492
 1021YOPC   GL114401  10.235   3.072   6.421 -0.3186  0.0237 -0.0428
 1021YOPC   GL214402  10.362   2.942   6.622  0.0224 -0.2593 -0.1582
 1021YOPC   C1A14403  10.321   3.398   6.677 -0.3800 -0.4583 -0.0032
 1021YOPC   D2A14404  10.142   3.513   7.097  0.2720  0.2104  0.0284
 1021YOPC   C3A14405  10.114   3.486   7.519  0.2099 -0.1985  0.2824
 1021YOPC   C4A14406   9.873   3.386   7.886  0.1089 -0.0493  0.2235
 1021YOPC   C1B14407  10.823   3.014   6.673 -0.1701  0.3113 -0.3588
 1021YOPC   C2B14408  11.117   3.109   7.055 -0.2202 -0.0024  0.0608
 1021YOPC   D3B14409  10.927   3.221   7.379 -0.0326  0.0084  0.1495
 1021YOPC   C4B14410  10.632   3.151   7.610  0.0701  0.0641 -0.2975
 1022YOPC   NC314411   6.049  10.543   5.000 -0.3175 -0.2097 -0.1499
 1022YOPC   PO414412   5.718  10.396   5.105 -0.1616 -0.1850  0.1524
 1022YOPC   GL114413   5.502  10.382   5.528 -0.0201  0.0453 -0.1733
 1022YOPC   GL214414   5.469  10.721   5.683 -0.0511  0.2842  0.2623
 1022YOPC   C1A14415   5.351  10.163   5.855 -0.0960 -0.2179  0.1717
 1022YOPC   D2A14416   5.120   9.816   5.944 -0.0723 -0.1144  0.1468
 1022YOPC   C3A14417   4.991   9.873   6.373  0.0308 -0.2044  0.2083
 1022YOPC   C4A14418   4.806   9.968   6.814 -0.0686  0.0822 -0.0271
 1022YOPC   C1B14419   5.332  10.642   6.093 -0.1044  0.1950  0.0055
 1022YOPC   C2B14420   5.415  10.837   6.420  0.0986  0.0829  0.0776
 1022YOPC   D3B14421   5.774  10.919   6.459 -0.3785 -0.1927  0.0307
 1022YOPC   C4B14422   6.034  11.228   6.308  0.0508 -0.0263  0.0884
 1023YOPC   NC314423   5.858   5.215   5.961 -0.3447  0.0511 -0.0005
 1023YOPC   PO414424   5.453   5.150   5.812  0.1190  0.0141  0.0964
 1023YOPC   GL114425   5.440   5.156   6.236  0.2239 -0.0330 -0.5666
 1023YOPC   GL214426   5.229   4.900   6.468  0.1360 -0.0968 -0.0639
 1023YOPC   C1A14427   5.461   5.452   6.550 -0.1710  0.3228  0.2263
 1023YOPC   D2A14428   5.565   5.665   7.009  0.0357 -0.2852  0.1035
 1023YOPC   C3A14429   5.836   5.559   7.315  0.0016 -0.2264 -0.3836
 1023YOPC   C4A14430   6.230   5.348   7.307 -0.1391 -0.0274  0.0188
 1023YOPC   C1B14431   5.138   4.643   6.706 -0.1104 -0.2225 -0.0124
 1023YOPC   C2B14432   5.078   4.551   7.119 -0.1052 -0.1444  0.0097
 1023YOPC   D3B14433   5.212   4.860   7.266 -0.0512 -0.3130 -0.0508
 1023YOPC   C4B14434   5.280   5.400   7.348  0.1112  0.1526  0.2725
 1024YOPC   NC314435   6.300   9.779   5.109  0.0512  0.1607  0.1871
 1024YOPC   PO414436   6.070   9.551   5.478  0.2092 -0.3045  0.1066
 1024YOPC   GL114437   5.877   9.487   5.872 -0.2310  0.2183 -0.2890
 1024YOPC   GL214438   5.492   9.525   5.901 -0.2105 -0.0138 -0.0701
 1024YOPC   C1A14439   5.927   9.676   6.226  0.1867 -0.1111  0.1594
 1024YOPC   D2A14440   6.125   9.904   6.460 -0.1912  0.2078  0.0263
 1024YOPC   C3A14441   6.554   9.899   6.722  0.0152  0.0273 -0.0737
 1024YOPC   C4A14442   6.764   9.810   7.195  0.0881  0.1409  0.4083
 1024YOPC   C1B14443   5.468   9.752   6.294  0.0817  0.1744  0.1385
 1024YOPC   C2B14444   5.525   9.975   6.685  0.1878  0.2126 -0.2211
 1024YOPC   D3B14445   5.861   9.936   6.913 -0.0220  0.0699 -0.3261
 1024YOPC   C4B14446   6.258   9.774   7.065  0.2640 -0.2968 -0.0442
 1025YOPC   NC314447  18.042   7.806   5.337  0.2467  0.0959  0.0146
 1025YOPC   PO414448  18.338   8.014   5.763  0.1347  0.0977  0.0683
 1025YOPC   GL114449  18.425   7.913   6.106  0.1913 -0.1683  0.0824
 1025YOPC   GL214450  18.577   8.221   6.280 -0.1785  0.2370  0.1988
 1025YOPC   C1A14451  18.170   7.937   6.483 -0.2143 -0.1005 -0.0617
 1025YOPC   D2A14452  18.090   8.002   6.940 -0.0065 -0.1687 -0.0804
 1025YOPC   C3A14453  17.825   7.942   7.231  0.1381 -0.2060  0.2018
 1025YOPC   C4A14454  17.801   7.572   7.563 -0.1649  0.0030 -0.1259
 1025YOPC   C1B14455  18.759   7.939   6.509 -0.0059  0.0835 -0.0767
 1025YOPC   C2B14456  18.963   7.712   6.828  0.0848  0.1133 -0.2846
 1025YOPC   D3B14457  18.885   7.254   6.765  0.1221  0.1342 -0.0202
 1025YOPC   C4B14458  18.563   6.935   6.761 -0.2657 -0.0596  0.0598
 1026YOPC   NC314459   4.350  11.253   5.553  0.1067 -0.3541  0.0558
 1026YOPC   PO414460   4.307  11.679   5.721  0.0132 -0.1507 -0.3436
 1026YOPC   GL114461   4.412  11.841   6.141  0.4034 -0.2850  0.0464
 1026YOPC   GL214462   4.224  11.758   6.444  0.1691  0.0624 -0.0370
 1026YOPC   C1A14463   4.797  11.780   6.489 -0.0106 -0.1890  0.0829
 1026YOPC   D2A14464   5.081  11.580   6.763 -0.3267 -0.0798 -0.1818
 1026YOPC   C3A14465   5.193  11.631   7.230  0.1421 -0.0161 -0.2888
 1026YOPC   C4A14466   5.095  11.525   7.710  0.1443 -0.0966 -0.1079
 1026YOPC   C1B14467   4.072  11.620   6.712 -0.2517  0.0518  0.0094
 1026YOPC   C2B14468   3.738  11.541   7.118  0.0786 -0.1034  0.2650
 1026YOPC   D3B14469   3.919  11.451   7.593 -0.1402 -0.0252 -0.4224
 1026YOPC   C4B14470   4.200  11.479   7.841  0.2771  0.1705 -0.1118
 1027YOPC   NC314471   4.699  12.229   5.818 -0.2532 -0.1622  0.1072
 1027YOPC   PO414472   4.789  12.709   5.847  0.1809 -0.4602 -0.1450
 1027YOPC   GL114473   4.838  12.680   6.204  0.3270 -0.3813  0.0107
 1027YOPC   GL214474   4.727  12.313   6.312 -0.1260  0.0308 -0.4613
 1027YOPC   C1A14475   4.945  12.832   6.538 -0.0226  0.1753 -0.0081
 1027YOPC   D2A14476   5.023  12.585   6.992 -0.0380  0.2493 -0.2729
 1027YOPC   C3A14477   5.252  12.435   7.439 -0.3936  0.1962 -0.4647
 1027YOPC   C4A14478   5.379  12.456   7.777  0.0983 -0.2765  0.3522
 1027YOPC   C1B14479   4.998  12.151   6.725  0.2041  0.2122 -0.0106
 1027YOPC   C2B14480   5.213  12.076   7.011 -0.1089  0.3488 -0.0422
 1027YOPC   D3B14481   5.550  12.392   7.064  0.1853 -0.3244  0.3448
 1027YOPC   C4B14482   5.392  12.885   7.275 -0.0350 -0.2397 -0.1486
 1028YOPC   NC314483  14.426   8.745   5.406  0.0021  0.1855  0.1813
 1028YOPC   PO414484  14.605   9.144   5.443 -0.1672  0.1910 -0.1235
 1028YOPC   GL114485  14.721   9.113   5.908  0.0751 -0.0141 -0.0778
 1028YOPC   GL214486  14.744   9.419   6.041 -0.0071 -0.1973  0.0296
 1028YOPC   C1A14487  15.019   8.839   6.168 -0.1100 -0.1284 -0.0347
 1028YOPC   D2A14488  15.059   8.734   6.479 -0.1521 -0.4313 -0.2576
 1028YOPC   C3A14489  14.730   8.767   6.798 -0.2857  0.0474  0.1864
 1028YOPC   C4A14490  14.719   8.488   7.018 -0.1250  0.0783  0.0063
 1028YOPC   C1B14491  14.699   9.121   6.420  0.1388 -0.1450  0.0991
 1028YOPC   C2B14492  14.673   9.233   6.792  0.1158  0.0056 -0.0033
 1028YOPC   D3B14493  14.694   9.070   7.189 -0.2198 -0.0665 -0.0725
 1028YOPC   C4B14494  14.719   8.734   7.471  0.1487 -0.0707 -0.0641
 1029YOPC   NC314495   2.677   8.270   5.275  0.3189 -0.0101  0.1048
 1029YOPC   PO414496   3.041   8.314   5.708  0.1012  0.0926 -0.1840
 1029YOPC   GL114497   2.838   8.289   6.108  0.0621 -0.1194 -0.0250
 1029YOPC   GL214498   2.690   7.921   6.111  0.4436 -0.0429 -0.2207
 1029YOPC   C1A14499   2.795   8.653   6.340  0.0690 -0.2633 -0.1422
 1029YOPC   D2A14500   2.831   8.894   6.792 -0.0989  0.0619  0.1901
 1029YOPC   C3A14501   2.684   8.599   7.065  0.1436  0.1318 -0.4185
 1029YOPC   C4A14502   2.313   8.420   7.199 -0.3856  0.3514 -0.0443
 1029YOPC   C1B14503   2.694   8.184   6.619 -0.1349  0.0771 -0.1164
 1029YOPC   C2B14504   2.760   8.051   7.019 -0.1134  0.1802 -0.1524
 1029YOPC   D3B14505   2.903   8.283   7.428 -0.0327 -0.3571  0.1759
 1029YOPC   C4B14506   3.029   8.540   7.748  0.0522  0.0213 -0.1709
 1030YOPC   NC314507   3.689   4.980   5.683 -0.0640  0.1039  0.0651
 1030YOPC   PO414508   4.036   5.188   5.582  0.2931 -0.0781 -0.3111
 1030YOPC   GL114509   3.853   5.356   5.964 -0.2021 -0.3249 -0.1767
 1030YOPC   GL214510   3.884   5.715   5.954 -0.0051 -0.1776 -0.4805
 1030YOPC   C1A14511   3.693   5.405   6.301 -0.2152 -0.2619  0.2247
 1030YOPC   D2A14512   3.690   5.242   6.674  0.0877 -0.0314 -0.2854
 1030YOPC   C3A14513   4.118   5.399   6.775  0.0587 -0.0947  0.1235
 1030YOPC   C4A14514   4.361   5.264   6.494 -0.1687  0.0875 -0.0462
 1030YOPC   C1B14515   3.977   5.907   6.345  0.0337  0.1746  0.1405
 1030YOPC   C2B14516   3.838   5.825   6.705 -0.1228  0.3159  0.0962
 1030YOPC   D3B14517   3.926   5.669   7.137 -0.0081  0.1162 -0.1719
 1030YOPC   C4B14518   4.102   5.815   7.487  0.0516 -0.0214  0.0246
 1031YOPC   NC314519   7.490  18.081   6.203 -0.0029 -0.1035 -0.2901
 1031YOPC   PO414520   7.065  18.035   6.142  0.0923 -0.0532  0.0909
 1031YOPC   GL114521   7.144  17.971   6.554  0.2977  0.1094 -0.0677
 1031YOPC   GL214522   7.100  18.223   6.779  0.0041 -0.0336  0.1414
 1031YOPC   C1A14523   7.123  17.684   6.955 -0.1375 -0.0079  0.1098
 1031YOPC   D2A14524   7.480  17.660   7.262  0.1839  0.1485  0.0290
 1031YOPC   C3A14525   7.475  17.346   7.657 -0.2781  0.0909 -0.0011
 1031YOPC   C4A14526   7.368  17.205   8.036 -0.0596 -0.1011  0.3000
 1031YOPC   C1B14527   6.787  18.442   6.997  0.0175 -0.1214 -0.2017
 1031YOPC   C2B14528   6.415  18.391   7.285 -0.1011  0.3547 -0.1429
 1031YOPC   D3B14529   6.252  18.148   7.049 -0.0294 -0.4030  0.0269
 1031YOPC   C4B14530   6.098  17.785   7.121  0.1163  0.1106 -0.1932
 1032YOPC   NC314531  10.491   9.933   5.053  0.0921  0.2813 -0.2063
 1032YOPC   PO414532  10.454  10.208   5.363 -0.1388 -0.3040 -0.2419
 1032YOPC   GL114533  10.545  10.153   5.798 -0.0621  0.0095  0.0121
 1032YOPC   GL214534  10.470  10.332   5.994 -0.1376  0.0522 -0.3851
 1032YOPC   C1A14535  10.699   9.762   5.931  0.1240  0.4023 -0.2820
 1032YOPC   D2A14536  10.700   9.571   6.274 -0.0862 -0.2021 -0.1405
 1032YOPC   C3A14537  10.553   9.640   6.713  0.0031  0.1904  0.0089
 1032YOPC   C4A14538  10.312   9.797   7.002 -0.2573  0.0085  0.0674
 1032YOPC   C1B14539  10.578  10.451   6.438 -0.3826  0.0727 -0.0867
 1032YOPC   C2B14540  10.665  10.720   6.787 -0.1450 -0.1793 -0.0683
 1032YOPC   D3B14541  11.137  10.665   7.055 -0.1385  0.0870 -0.0737
 1032YOPC   C4B14542  11.311  10.529   7.374 -0.1697 -0.2289  0.0547
 1033YOPC   NC314543   2.176  14.204   6.117  0.1759 -0.0138 -0.2901
 1033YOPC   PO414544   2.045  13.749   6.119 -0.3544 -0.2684  0.1265
 1033YOPC   GL114545   2.048  13.763   6.478 -0.3679 -0.1849 -0.1388
 1033YOPC   GL214546   1.713  13.861   6.543  0.0236 -0.0406  0.1046
 1033YOPC   C1A14547   2.029  13.644   7.004 -0.1593  0.1422 -0.1512
 1033YOPC   D2A14548   2.156  13.451   7.432 -0.0423  0.1719 -0.0096
 1033YOPC   C3A14549   1.925  13.725   7.776 -0.1994 -0.0135  0.0098
 1033YOPC   C4A14550   1.683  13.991   8.049 -0.1246  0.1987  0.2222
 1033YOPC   C1B14551   1.502  13.774   6.971 -0.1233 -0.0656 -0.1905
 1033YOPC   C2B14552   1.760  13.959   7.278  0.1446  0.0285  0.0899
 1033YOPC   D3B14553   1.846  14.208   7.611  0.1496  0.1106 -0.2399
 1033YOPC   C4B14554   1.837  14.478   7.858  0.0321 -0.0283  0.2247
 1034YOPC   NC314555   7.257  11.613   5.463 -0.0546 -0.0074 -0.2309
 1034YOPC   PO414556   6.833  11.674   5.418  0.0972  0.3097  0.1968
 1034YOPC   GL114557   6.675  11.691   5.783 -0.0613  0.0218 -0.1770
 1034YOPC   GL214558   6.314  11.468   5.813 -0.2331  0.1409 -0.1804
 1034YOPC   C1A14559   6.934  11.792   6.208 -0.1343  0.0685  0.3479
 1034YOPC   D2A14560   7.069  11.949   6.626 -0.2393 -0.0669  0.0163
 1034YOPC   C3A14561   7.255  12.016   7.029 -0.4417 -0.1716  0.2125
 1034YOPC   C4A14562   7.333  12.151   7.420  0.2386 -0.0293 -0.0385
 1034YOPC   C1B14563   6.464  11.564   6.216  0.1428  0.0128 -0.2682
 1034YOPC   C2B14564   6.577  11.791   6.719  0.0508 -0.2240  0.1744
 1034YOPC   D3B14565   6.794  11.732   7.128  0.4328  0.1232 -0.2957
 1034YOPC   C4B14566   6.842  11.624   7.678  0.0516  0.1022 -0.2856
 1035YOPC   NC314567  14.624   0.149   5.984  0.0070  0.6839 -0.0302
 1035YOPC   PO414568  15.082   0.432   5.770  0.1344  0.0001 -0.1867
 1035YOPC   GL114569  15.109   0.584   6.282  0.2907  0.1941 -0.2198
 1035YOPC   GL214570  15.379   0.441   6.418 -0.2681  0.2572 -0.1772
 1035YOPC   C1A14571  15.109   0.866   6.645 -0.1206  0.1540 -0.1377
 1035YOPC   D2A14572  15.134   1.160   6.914  0.0168 -0.0609 -0.2083
 1035YOPC   C3A14573  15.253   0.943   7.167  0.0913  0.0187 -0.4287
 1035YOPC   C4A14574  15.602   0.908   7.448 -0.0397  0.0962 -0.1974
 1035YOPC   C1B14575  15.246   0.018   6.601  0.3564  0.3695 -0.0276
 1035YOPC   C2B14576  15.028  -0.075   6.857 -0.0090 -0.1379  0.0801
 1035YOPC   D3B14577  15.181  -0.073   7.182 -0.0817 -0.1394  0.1508
 1035YOPC   C4B14578  15.073   0.070   7.589  0.1287  0.1371  0.1159
 1036YOPC   NC314579   7.508  12.508   5.277 -0.0126  0.1191  0.4798
 1036YOPC   PO414580   7.500  12.236   5.582 -0.0179  0.0199  0.0197
 1036YOPC   GL114581   7.782  12.281   5.863 -0.0172  0.0820 -0.0503
 1036YOPC   GL214582   7.771  12.533   6.044 -0.0615  0.3402 -0.0688
 1036YOPC   C1A14583   7.834  12.136   6.295  0.3201  0.1553 -0.1388
 1036YOPC   D2A14584   7.649  12.005   6.721 -0.1512  0.1081  0.2042
 1036YOPC   C3A14585   7.435  11.616   6.763 -0.1009  0.0444  0.0239
 1036YOPC   C4A14586   6.984  11.420   6.653  0.0899 -0.0478  0.2458
 1036YOPC   C1B14587   7.655  12.568   6.510 -0.2947 -0.2870 -0.0261
 1036YOPC   C2B14588   7.625  12.408   7.057  0.0157 -0.1397 -0.0032
 1036YOPC   D3B14589   7.781  12.058   7.195 -0.1928 -0.0554 -0.0807
 1036YOPC   C4B14590   7.751  11.721   7.543 -0.1470  0.1227 -0.0556
 1037YOPC   NC314591   9.244  16.870   5.834 -0.1181  0.3651  0.0916
 1037YOPC   PO414592   8.836  16.963   5.987 -0.1132 -0.0859  0.3365
 1037YOPC   GL114593   8.614  16.777   6.325 -0.2433  0.0043 -0.1612
 1037YOPC   GL214594   8.281  16.961   6.332  0.1143  0.0460 -0.2114
 1037YOPC   C1A14595   8.746  16.532   6.737 -0.1443  0.1512 -0.3282
 1037YOPC   D2A14596   8.958  16.244   6.922 -0.1985  0.0926 -0.2625
 1037YOPC   C3A14597   8.906  16.079   7.283 -0.0569 -0.0666  0.0655
 1037YOPC   C4A14598   9.162  15.960   7.419  0.0208 -0.0811  0.1763
 1037YOPC   C1B14599   8.256  16.864   6.768 -0.2366 -0.0042  0.1344
 1037YOPC   C2B14600   8.283  16.697   7.202 -0.2102  0.1053  0.1344
 1037YOPC   D3B14601   8.012  16.763   7.537 -0.1666 -0.0816  0.1151
 1037YOPC   C4B14602   7.935  16.446   7.847 -0.2151 -0.0411  0.0096
 1038YOPC   NC314603  15.000   5.120   5.424 -0.0504  0.2159 -0.0534
 1038YOPC   PO414604  14.494   5.090   5.585  0.0936 -0.0017 -0.1070
 1038YOPC   GL114605  14.435   5.177   6.021  0.2563 -0.0442  0.0638
 1038YOPC   GL214606  14.545   4.958   6.132 -0.3317 -0.0539  0.1223
 1038YOPC   C1A14607  14.222   5.209   6.479  0.1083 -0.2688 -0.2166
 1038YOPC   D2A14608  13.889   5.425   6.813  0.2359 -0.0255  0.1087
 1038YOPC   C3A14609  14.009   5.725   7.149 -0.1633  0.0536  0.2013
 1038YOPC   C4A14610  14.105   5.902   7.569 -0.1437 -0.1611 -0.1769
 1038YOPC   C1B14611  14.719   4.891   6.604 -0.1363  0.1943  0.0440
 1038YOPC   C2B14612  14.573   4.449   6.871  0.0638 -0.1731  0.0969
 1038YOPC   D3B14613  14.581   4.454   7.340 -0.2523  0.4371  0.3492
 1038YOPC   C4B14614  14.383   4.268   7.675  0.0684 -0.0932 -0.0764
 1039YOPC   NC314615  13.443  11.369   5.993  0.0936  0.0198 -0.2677
 1039YOPC   PO414616  13.764  11.428   5.725  0.1500 -0.0585  0.1945
 1039YOPC   GL114617  13.920  11.313   6.081 -0.0707 -0.2127 -0.0837
 1039YOPC   GL214618  13.788  11.342   6.357  0.0386 -0.2223 -0.1418
 1039YOPC   C1A14619  14.173  11.054   6.503  0.1895 -0.2512 -0.0795
 1039YOPC   D2A14620  14.257  11.096   6.977  0.3138  0.0417  0.0080
 1039YOPC   C3A14621  13.883  11.266   7.175 -0.0119  0.2462 -0.2471
 1039YOPC   C4A14622  13.537  11.371   7.250  0.1527  0.1033  0.3887
 1039YOPC   C1B14623  13.883  11.443   6.719 -0.2400  0.0984 -0.0601
 1039YOPC   C2B14624  14.167  11.623   6.928  0.0853  0.1523  0.2931
 1039YOPC   D3B14625  14.130  11.788   7.263 -0.0572 -0.3253  0.2693
 1039YOPC   C4B14626  14.047  12.091   7.704  0.2227  0.0700  0.3429
 1040YOPC   NC314627   1.121   9.983   5.336  0.0211  0.0420  0.2511
 1040YOPC   PO414628   1.411  10.120   5.651 -0.2026  0.4519 -0.2167
 1040YOPC   GL114629   1.388  10.015   6.154 -0.2581 -0.0046  0.1847
 1040YOPC   GL214630   1.135  10.271   6.325  0.1510 -0.4703  0.0826
 1040YOPC   C1A14631   1.467  10.332   6.624 -0.0961 -0.0709  0.0209
 1040YOPC   D2A14632   1.649  10.293   7.113 -0.1764  0.1935 -0.1055
 1040YOPC   C3A14633   1.499  10.384   7.545  0.0137  0.0195 -0.2041
 1040YOPC   C4A14634   1.531  10.704   7.920  0.1164 -0.1649 -0.0579
 1040YOPC   C1B14635   1.185   9.908   6.576  0.2431  0.1711 -0.0029
 1040YOPC   C2B14636   1.206   9.925   6.951  0.0983 -0.1169  0.0394
 1040YOPC   D3B14637   1.061   9.990   7.424  0.1652 -0.1212  0.1405
 1040YOPC   C4B14638   1.258   9.873   7.781 -0.3644  0.3725  0.1829
 1041YOPC   NC314639   4.101   1.729   6.035  0.0404 -0.0835  0.1043
 1041YOPC   PO414640   4.286   2.049   5.953 -0.1925 -0.1403 -0.0074
 1041YOPC   GL114641   4.508   1.979   6.289  0.1012  0.1259  0.2223
 1041YOPC   GL214642   4.849   1.850   6.436 -0.4889 -0.1437  0.1860
 1041YOPC   C1A14643   4.369   2.188   6.716  0.0236 -0.0123  0.1995
 1041YOPC   D2A14644   4.038   2.404   6.739 -0.0818 -0.0649  0.0837
 1041YOPC   C3A14645   3.839   2.520   7.076 -0.2028  0.1326 -0.0857
 1041YOPC   C4A14646   3.595   2.381   7.475 -0.0422  0.1171 -0.0453
 1041YOPC   C1B14647   4.786   1.818   6.826 -0.1402 -0.0397 -0.0111
 1041YOPC   C2B14648   4.539   1.750   7.123  0.1821  0.1345 -0.0259
 1041YOPC   D3B14649   4.363   1.529   7.549 -0.2374  0.2608 -0.2289
 1041YOPC   C4B14650   4.252   1.632   7.832  0.0515  0.0747 -0.1320
 1042YOPC   NC314651  13.369  10.607   5.570 -0.1056 -0.0971 -0.1976
 1042YOPC   PO414652  13.358  10.887   5.894 -0.1182  0.0057 -0.0282
 1042YOPC   GL114653  13.530  10.837   6.282 -0.0090  0.1730  0.2084
 1042YOPC   GL214654  13.819  10.771   6.309 -0.3319  0.1235 -0.1991
 1042YOPC   C1A14655  13.499  10.955   6.680  0.3760  0.2806 -0.0736
 1042YOPC   D2A14656  13.628  10.777   7.104 -0.1519  0.3928  0.2026
 1042YOPC   C3A14657  13.712  10.921   7.475  0.0052  0.0070 -0.2749
 1042YOPC   C4A14658  13.894  10.985   7.900  0.1985 -0.0153  0.0888
 1042YOPC   C1B14659  13.962  10.616   6.669 -0.3509  0.1117 -0.0662
 1042YOPC   C2B14660  13.938  10.399   7.007  0.3368  0.3606 -0.1717
 1042YOPC   D3B14661  14.278  10.239   7.417  0.1589 -0.0296 -0.2673
 1042YOPC   C4B14662  14.307  10.479   7.764 -0.1244 -0.2017 -0.0359
 1043YOPC   NC314663  13.134  14.892   6.551  0.0497  0.2434 -0.1438
 1043YOPC   PO414664  12.784  14.913   6.545 -0.0574  0.1254 -0.1918
 1043YOPC   GL114665  12.551  14.881   6.893  0.2713 -0.1892  0.4043
 1043YOPC   GL214666  12.141  14.935   6.898  0.1777 -0.0649  0.1591
 1043YOPC   C1A14667  12.435  15.017   7.319  0.0711 -0.0825  0.2096
 1043YOPC   D2A14668  12.411  14.953   7.783  0.2344  0.1474 -0.0540
 1043YOPC   C3A14669  12.753  14.673   7.837  0.1818 -0.0317 -0.2671
 1043YOPC   C4A14670  13.165  14.520   7.813  0.3956 -0.3429  0.2254
 1043YOPC   C1B14671  11.942  15.031   7.227 -0.0592 -0.0343 -0.1054
 1043YOPC   C2B14672  11.926  15.128   7.661 -0.0160  0.0427 -0.0460
 1043YOPC   D3B14673  11.924  14.711   7.927  0.4243 -0.2348 -0.0267
 1043YOPC   C4B14674  12.369  14.502   8.074  0.1146  0.1378 -0.0178
 1044YOPC   NC314675   2.935  15.996   6.141  0.1786 -0.1452  0.0020
 1044YOPC   PO414676   2.958  16.319   6.185  0.0856 -0.0983 -0.1645
 1044YOPC   GL114677   2.839  16.378   6.610  0.0475 -0.2137 -0.0104
 1044YOPC   GL214678   3.059  16.604   6.688  0.0777  0.1029  0.1414
 1044YOPC   C1A14679   2.845  16.095   6.846  0.1064 -0.0340  0.2582
 1044YOPC   D2A14680   2.867  15.816   7.217  0.1234  0.3968 -0.0886
 1044YOPC   C3A14681   2.710  15.818   7.671  0.0591 -0.2604 -0.1239
 1044YOPC   C4A14682   2.290  15.924   7.978  0.0045  0.1153 -0.1039
 1044YOPC   C1B14683   2.988  16.474   7.128  0.0577  0.1254 -0.0688
 1044YOPC   C2B14684   3.017  16.262   7.588  0.0617  0.0376  0.2007
 1044YOPC   D3B14685   2.883  16.223   7.974  0.0562  0.1362 -0.0583
 1044YOPC   C4B14686   2.695  16.164   8.371 -0.2002  0.1222 -0.1144
 1045YOPC   NC314687   8.809   0.113   5.757 -0.2606 -0.2162 -0.1763
 1045YOPC   PO414688   9.115  -0.175   5.860 -0.1560  0.1597 -0.0161
 1045YOPC   GL114689   9.165  -0.439   6.137  0.0109 -0.0805  0.1918
 1045YOPC   GL214690   9.096  -0.775   6.286  0.3432  0.3281 -0.1106
 1045YOPC   C1A14691   9.342  -0.399   6.539 -0.3206  0.3224 -0.2218
 1045YOPC   D2A14692   9.411  -0.237   6.906  0.0949 -0.0260 -0.0098
 1045YOPC   C3A14693   9.351  -0.309   7.349  0.0876 -0.2494 -0.0588
 1045YOPC   C4A14694   9.412  -0.357   7.822  0.2205  0.1901 -0.0951
 1045YOPC   C1B14695   9.052  -0.970   6.685 -0.1026  0.0829  0.1653
 1045YOPC   C2B14696   9.159  -1.296   6.925  0.1800  0.1216  0.1552
 1045YOPC   D3B14697   9.113  -1.145   7.270 -0.0836  0.0436 -0.0861
 1045YOPC   C4B14698   8.836  -1.199   7.686 -0.1889  0.2045 -0.0967
 1046YOPC   NC314699  11.245  11.558   5.807 -0.0764  0.0094  0.0502
 1046YOPC   PO414700  10.893  12.018   5.794 -0.0625 -0.0333  0.1650
 1046YOPC   GL114701  10.879  11.961   6.224  0.0761  0.3892  0.2466
 1046YOPC   GL214702  11.285  11.913   6.222  0.2669 -0.4190 -0.0568
 1046YOPC   C1A14703  10.549  11.827   6.493  0.2242  0.1697  0.2117
 1046YOPC   D2A14704  10.412  11.742   6.957 -0.2170  0.2233  0.2710
 1046YOPC   C3A14705  10.562  11.619   7.350 -0.0106  0.2338  0.0291
 1046YOPC   C4A14706  10.685  11.504   7.686  0.0855  0.3286 -0.4078
 1046YOPC   C1B14707  11.048  11.842   6.676  0.1780  0.0202 -0.0108
 1046YOPC   C2B14708  10.989  11.590   6.945  0.1174  0.1014  0.2466
 1046YOPC   D3B14709  10.956  11.091   6.714  0.0593 -0.0282  0.0144
 1046YOPC   C4B14710  11.071  10.722   6.423  0.1064  0.1999  0.0809
 1047YOPC   NC314711  16.178   8.685   4.795  0.2899 -0.3010 -0.0359
 1047YOPC   PO414712  16.088   8.873   5.257  0.0924 -0.1192  0.1471
 1047YOPC   GL114713  16.066   8.988   5.690  0.1665 -0.0994 -0.0770
 1047YOPC   GL214714  16.070   9.280   5.785 -0.2835  0.1525 -0.0570
 1047YOPC   C1A14715  16.047   8.756   6.072 -0.0425  0.1260 -0.2226
 1047YOPC   D2A14716  16.194   8.361   5.932 -0.2153 -0.0718 -0.0743
 1047YOPC   C3A14717  16.249   8.101   6.280 -0.0770  0.0526  0.2588
 1047YOPC   C4A14718  16.129   7.866   6.597  0.2558  0.0263  0.3628
 1047YOPC   C1B14719  15.770   9.241   6.179 -0.1184 -0.1121  0.2127
 1047YOPC   C2B14720  15.609   8.947   6.440  0.0946  0.0102 -0.0016
 1047YOPC   D3B14721  15.522   8.701   6.785  0.2145  0.2621 -0.0164
 1047YOPC   C4B14722  15.670   8.364   7.134  0.1337  0.0793  0.0014
 1048YOPC   NC314723   5.616   9.416   5.399  0.1736  0.1360  0.0445
 1048YOPC   PO414724   5.381   9.054   5.703  0.3267  0.1549  0.1018
 1048YOPC   GL114725   5.142   9.202   6.026  0.4665  0.0934  0.0386
 1048YOPC   GL214726   4.883   9.007   6.150  0.4236 -0.1319 -0.1006
 1048YOPC   C1A14727   5.126   9.435   6.419 -0.0007 -0.0563 -0.1750
 1048YOPC   D2A14728   5.164   9.505   6.792 -0.0290 -0.0082  0.2851
 1048YOPC   C3A14729   5.278   9.855   7.114  0.2787  0.0482  0.2362
 1048YOPC   C4A14730   5.037  10.294   7.244  0.2842  0.2583 -0.0648
 1048YOPC   C1B14731   4.743   8.700   6.383  0.0091 -0.1035  0.2001
 1048YOPC   C2B14732   4.556   8.617   6.731 -0.0947  0.0915  0.2437
 1048YOPC   D3B14733   4.222   8.920   6.953  0.1440 -0.0017  0.1472
 1048YOPC   C4B14734   4.219   9.199   7.291  0.0480 -0.4451  0.0206
 1049YOPC   NC314735   0.644   9.237   5.344 -0.0851 -0.0127 -0.2933
 1049YOPC   PO414736   0.935   9.183   5.710  0.3644  0.4768  0.0353
 1049YOPC   GL114737   0.991   9.038   6.125  0.0639 -0.1160 -0.3640
 1049YOPC   GL214738   1.347   9.099   6.131 -0.0590 -0.3374  0.0655
 1049YOPC   C1A14739   1.022   9.096   6.590  0.1169  0.1202 -0.2015
 1049YOPC   D2A14740   1.016   9.136   7.112  0.3858 -0.0525 -0.0100
 1049YOPC   C3A14741   1.232   9.473   7.292 -0.0726 -0.0370  0.0688
 1049YOPC   C4A14742   1.530   9.500   7.644  0.1901 -0.2103  0.0729
 1049YOPC   C1B14743   1.298   9.428   6.355  0.3124 -0.1262 -0.1739
 1049YOPC   C2B14744   1.313   9.467   6.805  0.0857 -0.0773  0.1977
 1049YOPC   D3B14745   1.739   9.534   7.061 -0.0200 -0.1865 -0.2167
 1049YOPC   C4B14746   1.696   9.837   7.305  0.0931 -0.0261 -0.0442
 1050YOPC   NC314747  11.727   1.019   6.335 -0.0898 -0.0325  0.1158
 1050YOPC   PO414748  12.074   1.150   6.100 -0.0834 -0.0877  0.0750
 1050YOPC   GL114749  12.100   1.203   6.585  0.0669  0.0323 -0.3321
 1050YOPC   GL214750  12.190   1.429   6.739  0.2224 -0.0439  0.1701
 1050YOPC   C1A14751  12.262   0.923   6.959 -0.1519 -0.0667  0.4018
 1050YOPC   D2A14752  12.075   0.797   7.295  0.2493 -0.0192  0.0052
 1050YOPC   C3A14753  12.273   0.779   7.694  0.0987 -0.1116  0.2802
 1050YOPC   C4A14754  12.495   0.723   8.121  0.1833 -0.1799  0.1601
 1050YOPC   C1B14755  12.379   1.749   7.121  0.0222  0.1278  0.0339
 1050YOPC   C2B14756  12.412   1.737   7.523  0.0426  0.1610  0.0629
 1050YOPC   D3B14757  12.425   2.011   7.864 -0.0168  0.0674  0.0957
 1050YOPC   C4B14758  12.706   2.310   8.036  0.1280 -0.2564  0.4748
 1051YOPC   NC314759  13.548   9.066   5.295  0.1190 -0.0653 -0.2024
 1051YOPC   PO414760  13.379   8.859   5.553 -0.0008  0.2594  0.4792
 1051YOPC   GL114761  13.315   8.829   5.920 -0.1362 -0.2421  0.1752
 1051YOPC   GL214762  13.202   9.237   5.833 -0.2927  0.0673  0.0629
 1051YOPC   C1A14763  13.449   8.933   6.434  0.0009  0.3099 -0.0807
 1051YOPC   D2A14764  13.683   9.054   6.799  0.1614  0.0023  0.0552
 1051YOPC   C3A14765  13.400   9.160   6.941  0.0247  0.3675 -0.1151
 1051YOPC   C4A14766  13.302   9.216   7.411 -0.1707  0.1984 -0.0754
 1051YOPC   C1B14767  13.465   9.345   6.243 -0.0688  0.2348 -0.2885
 1051YOPC   C2B14768  13.607   9.524   6.490  0.0338  0.1630 -0.1074
 1051YOPC   D3B14769  13.960   9.522   6.698 -0.1909  0.0138  0.1785
 1051YOPC   C4B14770  14.052   9.274   7.024  0.1202 -0.1926 -0.0648
 1052YOPC   NC314771   1.613   6.243   5.757 -0.1804  0.0432  0.0242
 1052YOPC   PO414772   1.483   5.887   5.985 -0.3262  0.1040  0.1466
 1052YOPC   GL114773   1.141   5.820   6.264 -0.0172 -0.2729 -0.1063
 1052YOPC   GL214774   0.837   5.796   6.240 -0.1026 -0.0071  0.1498
 1052YOPC   C1A14775   1.137   5.834   6.755  0.1199  0.3099 -0.3658
 1052YOPC   D2A14776   0.996   5.815   7.154  0.0907  0.2454 -0.2004
 1052YOPC   C3A14777   0.582   5.648   7.197  0.1270 -0.0800 -0.2602
 1052YOPC   C4A14778   0.289   5.829   7.027  0.0558  0.0413  0.3866
 1052YOPC   C1B14779   0.560   6.093   6.365 -0.0331 -0.0661  0.3986
 1052YOPC   C2B14780   0.549   6.509   6.607  0.1559 -0.4221  0.1601
 1052YOPC   D3B14781   0.650   6.567   7.017  0.2736  0.3413  0.1066
 1052YOPC   C4B14782   0.478   6.865   7.286  0.0031 -0.1396  0.0558
 1053YOPC   NC314783   5.875  17.279   6.232 -0.0432 -0.1339  0.0461
 1053YOPC   PO414784   5.725  17.645   6.335 -0.1201  0.2712 -0.2948
 1053YOPC   GL114785   5.752  17.518   6.722  0.1693  0.2007  0.3241
 1053YOPC   GL214786   5.454  17.311   6.753 -0.1349  0.2625  0.0187
 1053YOPC   C1A14787   5.685  17.469   7.212 -0.0859  0.0616 -0.2226
 1053YOPC   D2A14788   5.382  17.462   7.547 -0.0553  0.2472 -0.0006
 1053YOPC   C3A14789   5.427  17.547   7.925 -0.2037 -0.0447 -0.0632
 1053YOPC   C4A14790   5.496  17.549   8.316  0.1501 -0.0262  0.0636
 1053YOPC   C1B14791   5.240  17.520   7.061  0.1198 -0.2976 -0.1681
 1053YOPC   C2B14792   4.916  17.675   7.221 -0.1695 -0.0657  0.1001
 1053YOPC   D3B14793   5.063  17.802   7.671  0.0165  0.3111  0.1160
 1053YOPC   C4B14794   5.111  17.945   8.023  0.1109 -0.0310  0.3742
 1054YOPC   NC314795   6.147   6.171   6.038  0.3835  0.0074 -0.3099
 1054YOPC   PO414796   6.451   5.806   6.167  0.1896  0.3109  0.0442
 1054YOPC   GL114797   6.345   5.867   6.569 -0.0556  0.2969 -0.1497
 1054YOPC   GL214798   6.327   6.210   6.653  0.0831  0.0702  0.0430
 1054YOPC   C1A14799   6.160   5.869   7.020 -0.1063  0.1824  0.2249
 1054YOPC   D2A14800   6.279   5.827   7.427  0.1639  0.1591 -0.1707
 1054YOPC   C3A14801   6.097   5.579   7.747 -0.0796 -0.0648 -0.1566
 1054YOPC   C4A14802   5.875   5.267   7.935  0.0520 -0.5447 -0.0956
 1054YOPC   C1B14803   6.206   6.349   7.059  0.1003  0.1748  0.0709
 1054YOPC   C2B14804   5.912   6.532   7.310 -0.0858  0.3102  0.1024
 1054YOPC   D3B14805   5.586   6.478   7.504  0.0885 -0.0727  0.1414
 1054YOPC   C4B14806   5.332   6.011   7.454  0.0814  0.0235  0.1705
 1055YOPC   NC314807   3.097   3.456   6.160  0.0754  0.0303 -0.0202
 1055YOPC   PO414808   3.375   3.084   5.949  0.0465 -0.3299  0.1588
 1055YOPC   GL114809   3.415   3.161   6.432  0.4160  0.1382  0.1432
 1055YOPC   GL214810   3.509   3.506   6.507 -0.0377 -0.0524  0.2160
 1055YOPC   C1A14811   3.589   3.042   6.938  0.1431  0.1995 -0.1864
 1055YOPC   D2A14812   3.573   2.949   7.365  0.0201 -0.0025 -0.1963
 1055YOPC   C3A14813   3.687   3.154   7.674  0.0749  0.1316 -0.2022
 1055YOPC   C4A14814   4.042   3.123   7.968  0.0851  0.0354 -0.2203
 1055YOPC   C1B14815   3.429   3.580   6.892 -0.2991 -0.1307 -0.2360
 1055YOPC   C2B14816   3.538   3.436   7.292  0.3003 -0.3108  0.3709
 1055YOPC   D3B14817   3.284   3.786   7.621  0.3418 -0.2358 -0.0075
 1055YOPC   C4B14818   3.487   3.740   8.055 -0.3251  0.0014  0.0549
 1056YOPC   NC314819  10.150   7.393   5.209 -0.0106 -0.0135 -0.3454
 1056YOPC   PO414820   9.789   7.351   5.403 -0.2760 -0.2991  0.2115
 1056YOPC   GL114821   9.740   7.534   5.936 -0.0094  0.1766 -0.0713
 1056YOPC   GL214822   9.521   7.582   6.143 -0.2367 -0.0290  0.0102
 1056YOPC   C1A14823   9.998   7.520   6.296 -0.0492  0.2131 -0.0949
 1056YOPC   D2A14824  10.076   7.671   6.727  0.0454 -0.0183  0.2322
 1056YOPC   C3A14825  10.085   8.141   6.794  0.0149  0.2070  0.3521
 1056YOPC   C4A14826   9.855   8.401   7.101 -0.1849  0.2534 -0.0413
 1056YOPC   C1B14827   9.577   7.488   6.660 -0.1005  0.0341 -0.3165
 1056YOPC   C2B14828   9.643   7.534   6.980 -0.0992  0.3842 -0.0030
 1056YOPC   D3B14829   9.870   7.910   7.163 -0.1387 -0.2687  0.0604
 1056YOPC   C4B14830   9.848   7.968   7.590  0.3128 -0.1077 -0.0082
 1057YOPC   NC314831   6.384   7.290   5.358 -0.1653 -0.1568 -0.1298
 1057YOPC   PO414832   6.280   7.050   5.727 -0.0804  0.2214  0.0869
 1057YOPC   GL114833   6.064   6.955   6.027 -0.2142 -0.1301  0.0919
 1057YOPC   GL214834   6.351   6.757   6.174 -0.1632  0.2551  0.0840
 1057YOPC   C1A14835   5.984   6.985   6.428  0.1363 -0.2456 -0.0155
 1057YOPC   D2A14836   6.155   6.874   6.746 -0.2410  0.1203 -0.1642
 1057YOPC   C3A14837   5.920   6.987   7.093  0.1391  0.0087 -0.2176
 1057YOPC   C4A14838   5.825   6.940   7.549 -0.1728 -0.0437  0.0548
 1057YOPC   C1B14839   6.578   6.593   6.465 -0.0278 -0.0322  0.1931
 1057YOPC   C2B14840   6.600   6.509   6.907 -0.1827 -0.1269 -0.1349
 1057YOPC   D3B14841   6.805   6.644   7.281  0.4177  0.1916  0.1957
 1057YOPC   C4B14842   6.802   6.680   7.692  0.1813 -0.2696 -0.1773
 1058YOPC   NC314843  14.724   1.134   5.826  0.4925  0.2387  0.0258
 1058YOPC   PO414844  14.294   1.027   6.012  0.1635  0.0197 -0.2121
 1058YOPC   GL114845  14.285   1.176   6.387  0.0403 -0.3787 -0.3641
 1058YOPC   GL214846  13.952   1.272   6.387 -0.0837 -0.2718  0.1060
 1058YOPC   C1A14847  14.293   1.252   6.743  0.0519 -0.1952 -0.0092
 1058YOPC   D2A14848  14.192   1.255   7.109  0.1619 -0.3080 -0.0360
 1058YOPC   C3A14849  14.523   1.418   7.342  0.0543 -0.0433  0.0430
 1058YOPC   C4A14850  14.729   1.529   7.727 -0.0720  0.2212 -0.1705
 1058YOPC   C1B14851  13.698   1.133   6.707  0.4312 -0.0981  0.3215
 1058YOPC   C2B14852  13.681   1.043   7.205  0.1212  0.3300 -0.1048
 1058YOPC   D3B14853  13.825   1.202   7.639 -0.0676 -0.1173 -0.0718
 1058YOPC   C4B14854  13.971   0.913   7.998  0.0629 -0.0308  0.2143
 1059YOPC   NC314855   8.756  12.360   5.405  0.1823 -0.1719 -0.3389
 1059YOPC   PO414856   9.209  12.426   5.567 -0.0110  0.1422  0.3450
 1059YOPC   GL114857   9.417  12.479   5.900  0.1809 -0.0230 -0.0120
 1059YOPC   GL214858   9.574  12.202   5.939  0.3648  0.0580 -0.0436
 1059YOPC   C1A14859   9.384  12.524   6.378  0.0510  0.1043  0.2338
 1059YOPC   D2A14860   9.092  12.691   6.674 -0.2542  0.2717 -0.1293
 1059YOPC   C3A14861   8.993  12.565   6.946  0.2446  0.1319  0.0249
 1059YOPC   C4A14862   9.055  12.676   7.376 -0.1966 -0.1552 -0.3487
 1059YOPC   C1B14863   9.486  12.031   6.290  0.2159 -0.1908 -0.0119
 1059YOPC   C2B14864   9.662  12.157   6.536  0.1074  0.1155  0.0320
 1059YOPC   D3B14865   9.382  12.306   6.910 -0.3879  0.1380  0.0430
 1059YOPC   C4B14866   9.515  12.434   7.286  0.2171  0.1647 -0.0198
 1060YOPC   NC314867   8.828   1.696   6.116  0.1240  0.2457 -0.0377
 1060YOPC   PO414868   9.117   2.111   6.238  0.0337 -0.1483  0.0914
 1060YOPC   GL114869   9.287   2.095   6.656 -0.3702  0.2237 -0.1958
 1060YOPC   GL214870   9.678   1.996   6.798  0.0945  0.3215 -0.0826
 1060YOPC   C1A14871   9.286   2.428   7.011  0.2285  0.0358  0.1131
 1060YOPC   D2A14872   9.345   2.808   7.150 -0.4220  0.0669 -0.0929
 1060YOPC   C3A14873   9.483   2.748   7.511  0.0174 -0.0313  0.1541
 1060YOPC   C4A14874   9.722   2.727   7.884  0.0780  0.2142 -0.1628
 1060YOPC   C1B14875   9.735   2.153   7.212 -0.0683  0.0108  0.0226
 1060YOPC   C2B14876   9.799   2.246   7.677 -0.0227 -0.0594  0.2591
 1060YOPC   D3B14877   9.528   2.162   7.960 -0.0854 -0.1449 -0.2936
 1060YOPC   C4B14878   9.281   2.233   8.362  0.3340 -0.0887  0.0560
 1061YOPC   NC314879   3.526   7.725   5.547  0.0124  0.2978  0.2145
 1061YOPC   PO414880   3.912   7.900   5.478  0.1419 -0.1746 -0.0054
 1061YOPC   GL114881   3.870   7.881   5.966 -0.1536 -0.1479  0.0918
 1061YOPC   GL214882   3.855   8.166   6.144  0.4868  0.0576  0.0313
 1061YOPC   C1A14883   3.661   7.786   6.430  0.1027 -0.1103  0.3219
 1061YOPC   D2A14884   3.659   7.778   6.816 -0.1263 -0.0904 -0.0800
 1061YOPC   C3A14885   3.764   7.796   7.202  0.0030 -0.1699 -0.0660
 1061YOPC   C4A14886   3.795   7.811   7.717 -0.0988 -0.2093 -0.0846
 1061YOPC   C1B14887   3.806   8.307   6.536 -0.0079  0.2101 -0.0371
 1061YOPC   C2B14888   3.692   8.692   6.820 -0.0236  0.1733 -0.0834
 1061YOPC   D3B14889   3.745   9.066   7.012  0.0949  0.0497 -0.0299
 1061YOPC   C4B14890   3.468   9.417   7.022 -0.0624 -0.2045 -0.1045
 1062YOPC   NC314891  11.838   9.617   4.710  0.0024  0.1477 -0.1024
 1062YOPC   PO414892  11.769   9.784   5.107  0.1477  0.3967  0.1022
 1062YOPC   GL114893  11.797   9.777   5.525  0.1400  0.2489 -0.1503
 1062YOPC   GL214894  11.539   9.818   5.746 -0.0222  0.1797  0.0682
 1062YOPC   C1A14895  11.833   9.396   5.866  0.0342  0.0418 -0.1019
 1062YOPC   D2A14896  11.999   8.884   5.850 -0.1012 -0.1127  0.2384
 1062YOPC   C3A14897  12.027   8.687   6.252 -0.0177  0.0562 -0.0751
 1062YOPC   C4A14898  12.085   8.246   6.345  0.2666 -0.1721  0.3104
 1062YOPC   C1B14899  11.908   9.901   5.983  0.2532 -0.1663 -0.3726
 1062YOPC   C2B14900  12.215   9.956   6.270 -0.1033  0.5083  0.0014
 1062YOPC   D3B14901  12.108   9.718   6.603  0.2424 -0.0284  0.1376
 1062YOPC   C4B14902  11.924   9.390   6.819 -0.2948  0.0554 -0.0460
 1063YOPC   NC314903  17.020  16.795   6.387 -0.2347  0.1467 -0.1706
 1063YOPC   PO414904  16.903  17.140   6.447 -0.1492  0.1027  0.3663
 1063YOPC   GL114905  17.168  17.279   6.757  0.0053  0.1615  0.1165
 1063YOPC   GL214906  17.070  17.581   6.816 -0.2822  0.1476  0.0810
 1063YOPC   C1A14907  17.477  17.380   7.016 -0.1173 -0.2621 -0.0135
 1063YOPC   D2A14908  17.711  17.540   7.370 -0.0243  0.0094  0.4164
 1063YOPC   C3A14909  18.077  17.753   7.568 -0.1327  0.1846  0.0824
 1063YOPC   C4A14910  18.354  18.056   7.676  0.0585 -0.1150  0.1442
 1063YOPC   C1B14911  17.071  17.431   7.293  0.1256 -0.0199  0.0533
 1063YOPC   C2B14912  17.301  17.110   7.494  0.0400 -0.1301  0.1385
 1063YOPC   D3B14913  17.592  17.135   7.790  0.0398 -0.1436  0.1522
 1063YOPC   C4B14914  17.814  17.450   7.875 -0.2584  0.1159  0.0258
 1064YOPC   NC314915  14.828  14.453   6.752 -0.0998  0.1121  0.2130
 1064YOPC   PO414916  15.002  14.190   6.492  0.0688 -0.3540 -0.0950
 1064YOPC   GL114917  15.176  14.073   6.938 -0.0101 -0.3256 -0.3066
 1064YOPC   GL214918  15.427  14.274   6.849  0.1628 -0.2255 -0.1717
 1064YOPC   C1A14919  15.111  14.241   7.290  0.1517  0.1689  0.2216
 1064YOPC   D2A14920  15.056  14.315   7.750  0.0709  0.1086 -0.4753
 1064YOPC   C3A14921  14.949  14.645   7.957 -0.0101  0.0380 -0.1854
 1064YOPC   C4A14922  14.753  14.822   8.403  0.2209 -0.0209  0.2735
 1064YOPC   C1B14923  15.788  14.207   7.045  0.1221  0.1725 -0.2638
 1064YOPC   C2B14924  15.978  14.109   7.509  0.0757  0.0077 -0.1019
 1064YOPC   D3B14925  16.345  14.251   7.730  0.1265 -0.1717 -0.1214
 1064YOPC   C4B14926  16.313  14.669   7.795 -0.0047  0.1696 -0.4795
 1065YOPC   NC314927   4.511   9.731   5.501  0.4068  0.2456 -0.1849
 1065YOPC   PO414928   4.916   9.584   5.564 -0.0804 -0.1415  0.0341
 1065YOPC   GL114929   4.759   9.473   6.024  0.0312 -0.0727  0.0154
 1065YOPC   GL214930   4.633   9.844   5.968 -0.1802 -0.3399 -0.1460
 1065YOPC   C1A14931   4.671   9.393   6.489 -0.0277  0.1777  0.1127
 1065YOPC   D2A14932   4.846   9.069   6.813 -0.1825 -0.0731  0.1871
 1065YOPC   C3A14933   5.075   8.631   6.893  0.0208 -0.4103  0.0650
 1065YOPC   C4A14934   5.204   8.134   7.067 -0.0815 -0.0557  0.0857
 1065YOPC   C1B14935   4.416   9.854   6.360  0.1842 -0.2781 -0.1659
 1065YOPC   C2B14936   4.302   9.961   6.852  0.1897  0.2174  0.0437
 1065YOPC   D3B14937   4.049  10.210   7.134  0.1090 -0.1000 -0.1108
 1065YOPC   C4B14938   4.056  10.382   7.646 -0.1066  0.3075  0.1130
 1066YOPC   NC314939  15.526   0.638   5.944  0.5011 -0.0721  0.1163
 1066YOPC   PO414940  15.209   0.920   5.875 -0.0203  0.2556 -0.1792
 1066YOPC   GL114941  15.479   0.958   6.376  0.2493  0.1168 -0.0024
 1066YOPC   GL214942  15.521   1.212   6.547 -0.3150 -0.0168 -0.3510
 1066YOPC   C1A14943  15.698   0.712   6.689  0.5498 -0.0875 -0.0431
 1066YOPC   D2A14944  15.783   0.208   6.786 -0.0842  0.0944  0.2004
 1066YOPC   C3A14945  15.679   0.042   7.173  0.1808 -0.0862  0.2250
 1066YOPC   C4A14946  15.625   0.193   7.558 -0.0355  0.0534 -0.0443
 1066YOPC   C1B14947  15.607   1.181   6.988  0.3099  0.0136  0.2192
 1066YOPC   C2B14948  15.887   1.249   7.350 -0.1594 -0.2353  0.1585
 1066YOPC   D3B14949  16.006   0.981   7.665  0.3686  0.2569 -0.0426
 1066YOPC   C4B14950  16.059   0.992   8.044  0.1521  0.1732  0.1160
 1067YOPC   NC314951   7.006   8.666   5.347 -0.2004  0.4565  0.0789
 1067YOPC   PO414952   6.880   8.263   5.565 -0.0519 -0.3879 -0.2534
 1067YOPC   GL114953   6.951   8.179   6.001 -0.0011 -0.1416  0.0543
 1067YOPC   GL214954   7.130   7.960   6.111 -0.0970 -0.0062  0.2782
 1067YOPC   C1A14955   6.556   8.236   6.309 -0.1264  0.1366 -0.3126
 1067YOPC   D2A14956   6.349   8.331   6.587  0.1139 -0.1460 -0.1207
 1067YOPC   C3A14957   6.504   8.108   6.856  0.1342 -0.2103  0.0143
 1067YOPC   C4A14958   6.674   8.006   7.276  0.1801  0.0111  0.0403
 1067YOPC   C1B14959   7.075   8.087   6.573 -0.2172 -0.0319  0.2877
 1067YOPC   C2B14960   7.190   8.450   6.808 -0.0732 -0.2210 -0.0092
 1067YOPC   D3B14961   7.418   8.535   7.169  0.0628 -0.0235  0.2780
 1067YOPC   C4B14962   7.504   8.327   7.654 -0.1065  0.0007 -0.2097
 1068YOPC   NC314963   0.730  12.054   6.015 -0.0418  0.0911 -0.2483
 1068YOPC   PO414964   0.251  11.794   6.075  0.0723  0.2677  0.0948
 1068YOPC   GL114965   0.271  11.933   6.466  0.0879  0.0088  0.0078
 1068YOPC   GL214966   0.145  11.668   6.709  0.2083 -0.0316 -0.3321
 1068YOPC   C1A14967   0.296  12.350   6.798 -0.1956  0.0294  0.0343
 1068YOPC   D2A14968   0.346  12.698   7.080  0.2045  0.1812  0.0962
 1068YOPC   C3A14969   0.168  12.606   7.481 -0.3251  0.2732 -0.2476
 1068YOPC   C4A14970   0.224  12.406   7.831 -0.0021  0.0815 -0.0078
 1068YOPC   C1B14971   0.128  11.558   7.056 -0.1220  0.2176 -0.2977
 1068YOPC   C2B14972   0.260  11.564   7.544  0.2200 -0.1320 -0.2836
 1068YOPC   D3B14973   0.529  11.448   7.904 -0.2278 -0.3176 -0.2102
 1068YOPC   C4B14974   0.852  11.244   8.226  0.2199  0.1375 -0.1209
 1069YOPC   NC314975  15.014   8.237   5.753  0.1023 -0.2948 -0.4008
 1069YOPC   PO414976  14.742   7.819   5.616  0.1554 -0.1651  0.0497
 1069YOPC   GL114977  14.779   7.799   6.017  0.0215 -0.0635  0.0270
 1069YOPC   GL214978  14.475   7.937   6.101 -0.3295  0.3305  0.3293
 1069YOPC   C1A14979  14.812   7.516   6.357  0.0382  0.1453 -0.1093
 1069YOPC   D2A14980  14.794   7.483   6.718  0.0762  0.2183  0.0925
 1069YOPC   C3A14981  14.667   7.324   7.114 -0.2542  0.3919 -0.1148
 1069YOPC   C4A14982  14.645   7.203   7.504 -0.0222 -0.1783  0.3935
 1069YOPC   C1B14983  14.569   7.922   6.502 -0.0624 -0.0507 -0.0345
 1069YOPC   C2B14984  14.835   7.975   6.918  0.0036 -0.0826  0.0081
 1069YOPC   D3B14985  14.591   8.020   7.233  0.1645 -0.0292 -0.0260
 1069YOPC   C4B14986  14.342   8.345   7.326  0.0199  0.0514 -0.0626
 1070YOPC   NC314987  10.148  16.085   5.941 -0.4381 -0.3063 -0.2754
 1070YOPC   PO414988  10.263  15.714   5.923 -0.0784 -0.0368 -0.0185
 1070YOPC   GL114989  10.310  15.845   6.376  0.0747  0.0858 -0.1481
 1070YOPC   GL214990  10.241  15.599   6.451  0.0833 -0.0244  0.0472
 1070YOPC   C1A14991  10.296  15.910   6.853  0.1891 -0.1824 -0.0263
 1070YOPC   D2A14992  10.265  15.909   7.298 -0.1087  0.3985 -0.1754
 1070YOPC   C3A14993  10.122  16.222   7.590 -0.3613 -0.0585 -0.2743
 1070YOPC   C4A14994   9.850  16.299   7.891  0.1636  0.2377 -0.1001
 1070YOPC   C1B14995  10.580  15.458   6.636  0.0181 -0.2044  0.0110
 1070YOPC   C2B14996  10.711  15.578   6.981  0.0035  0.4349  0.2630
 1070YOPC   D3B14997  10.746  15.486   7.407 -0.0511 -0.0007  0.1815
 1070YOPC   C4B14998  10.474  15.273   7.679 -0.0097  0.1003 -0.0712
 1071YOPC   NC314999  14.119  13.113   6.174 -0.3957 -0.0754  0.1512
 1071YOPC   PO415000  14.384  13.373   6.245  0.1468 -0.4448 -0.1029
 1071YOPC   GL115001  14.533  13.411   6.716 -0.3296 -0.2388 -0.0776
 1071YOPC   GL215002  14.338  13.575   6.866 -0.2768  0.0751  0.1816
 1071YOPC   C1A15003  14.704  13.314   7.125 -0.0102 -0.0415 -0.2656
 1071YOPC   D2A15004  14.668  13.389   7.590 -0.0625  0.0634 -0.3976
 1071YOPC   C3A15005  14.771  13.637   8.039  0.2455  0.3529 -0.1549
 1071YOPC   C4A15006  15.003  13.929   8.138 -0.1039  0.2252 -0.0961
 1071YOPC   C1B15007  14.301  13.578   7.320  0.0078  0.1055  0.0482
 1071YOPC   C2B15008  14.323  13.803   7.561 -0.1318 -0.0982 -0.2810
 1071YOPC   D3B15009  14.071  13.861   7.968 -0.0835  0.3403  0.3656
 1071YOPC   C4B15010  13.716  13.980   8.297  0.0604  0.0715 -0.0947
 1072YOPC   NC315011  15.831   3.667   6.015 -0.3075  0.0292  0.1933
 1072YOPC   PO415012  16.131   3.252   6.105 -0.2522 -0.1579 -0.0312
 1072YOPC   GL115013  16.059   3.431   6.500 -0.1634 -0.2951 -0.1767
 1072YOPC   GL215014  16.351   3.430   6.606  0.2368  0.0398  0.0417
 1072YOPC   C1A15015  15.864   3.645   6.840 -0.1316  0.2211 -0.1426
 1072YOPC   D2A15016  15.912   3.593   7.302  0.2816 -0.3025  0.0350
 1072YOPC   C3A15017  16.267   3.473   7.438  0.2827  0.4891 -0.2461
 1072YOPC   C4A15018  16.732   3.417   7.341 -0.0097  0.0666  0.4206
 1072YOPC   C1B15019  16.522   3.546   6.932 -0.0739 -0.0599  0.0638
 1072YOPC   C2B15020  16.383   3.885   7.151  0.0581  0.1599  0.1865
 1072YOPC   D3B15021  16.523   3.852   7.500 -0.3336 -0.2678  0.3770
 1072YOPC   C4B15022  16.892   3.775   7.754 -0.1974  0.1174  0.0413
 1073YOPC   NC315023   8.555   3.860   5.824  0.1299 -0.0170 -0.0244
 1073YOPC   PO415024   8.214   3.652   6.039 -0.1382  0.0449 -0.0679
 1073YOPC   GL115025   8.331   3.906   6.290 -0.1556 -0.2604 -0.1522
 1073YOPC   GL215026   8.515   3.776   6.499  0.0602  0.0164 -0.3380
 1073YOPC   C1A15027   8.207   4.099   6.764  0.1166  0.0570  0.1518
 1073YOPC   D2A15028   7.959   4.302   7.029 -0.1683  0.3980  0.0098
 1073YOPC   C3A15029   7.986   4.470   7.373  0.0242 -0.2155 -0.2821
 1073YOPC   C4A15030   8.014   4.491   7.837 -0.0927  0.1232 -0.0307
 1073YOPC   C1B15031   8.543   3.713   6.957 -0.0756  0.2611 -0.3132
 1073YOPC   C2B15032   8.674   3.721   7.449 -0.0857 -0.0122  0.2963
 1073YOPC   D3B15033   8.434   4.024   7.821  0.0932 -0.1090 -0.1005
 1073YOPC   C4B15034   8.811   4.085   8.108  0.0651  0.0114 -0.2185
 1074YOPC   NC315035  17.190   9.322   5.404 -0.2418 -0.1300 -0.1638
 1074YOPC   PO415036  16.969   9.658   5.517  0.0880 -0.0472  0.1623
 1074YOPC   GL115037  17.068   9.683   5.902 -0.2133  0.0524  0.2030
 1074YOPC   GL215038  16.792   9.671   6.048  0.2209  0.0068 -0.0523
 1074YOPC   C1A15039  17.238   9.516   6.271 -0.3456 -0.0686 -0.3934
 1074YOPC   D2A15040  17.205   9.106   6.403  0.1262 -0.1141  0.1129
 1074YOPC   C3A15041  16.806   8.832   6.392 -0.3086  0.1069 -0.1349
 1074YOPC   C4A15042  16.450   8.666   6.386  0.1287 -0.2125  0.1592
 1074YOPC   C1B15043  16.783   9.333   6.417  0.0057 -0.2281  0.2112
 1074YOPC   C2B15044  16.710   9.216   6.819 -0.4414  0.2112 -0.0776
 1074YOPC   D3B15045  16.722   9.469   7.280  0.1032 -0.0821 -0.3574
 1074YOPC   C4B15046  16.775   9.500   7.768  0.0425 -0.3051 -0.1144
 1075YOPC   NC315047  17.600   4.496   5.992  0.1821 -0.3685 -0.0044
 1075YOPC   PO415048  17.354   4.131   6.117 -0.1907 -0.1396 -0.2499
 1075YOPC   GL115049  17.171   4.097   6.415  0.1250 -0.1416  0.1373
 1075YOPC   GL215050  17.007   4.186   6.546  0.1325 -0.0336 -0.2297
 1075YOPC   C1A15051  17.404   4.079   6.837 -0.0372 -0.2014  0.1190
 1075YOPC   D2A15052  17.721   4.094   7.101 -0.2865 -0.1762  0.2524
 1075YOPC   C3A15053  17.709   4.202   7.604  0.1557  0.0018 -0.0995
 1075YOPC   C4A15054  17.774   4.518   7.983 -0.1001 -0.0261  0.0247
 1075YOPC   C1B15055  17.021   4.359   6.830 -0.2508 -0.0992  0.2402
 1075YOPC   C2B15056  17.251   4.430   7.201 -0.4020  0.3090 -0.1535
 1075YOPC   D3B15057  17.145   4.246   7.621 -0.0921 -0.0405 -0.0564
 1075YOPC   C4B15058  17.357   3.927   7.822 -0.3943 -0.0801  0.0858
 1076YOPC   NC315059   3.910  16.833   6.288  0.0257 -0.0696  0.2558
 1076YOPC   PO415060   4.115  17.137   6.437 -0.1021 -0.0160 -0.1183
 1076YOPC   GL115061   4.083  17.168   6.825  0.0159  0.1146 -0.1565
 1076YOPC   GL215062   3.905  16.891   6.882  0.0399  0.3822  0.0596
 1076YOPC   C1A15063   4.229  17.106   7.217  0.2870 -0.3306  0.2536
 1076YOPC   D2A15064   4.231  17.136   7.664 -0.2227 -0.1062  0.3151
 1076YOPC   C3A15065   4.618  16.946   7.901 -0.1252  0.0985 -0.1995
 1076YOPC   C4A15066   4.939  16.694   8.141 -0.0788  0.1583 -0.1351
 1076YOPC   C1B15067   3.813  16.917   7.374  0.0307 -0.1445  0.1063
 1076YOPC   C2B15068   3.814  16.905   7.798  0.0799 -0.0102 -0.2832
 1076YOPC   D3B15069   4.153  16.970   8.162 -0.0026  0.1965 -0.1751
 1076YOPC   C4B15070   4.189  17.185   8.600 -0.3801 -0.0303  0.1160
 1077YOPC   NC315071  14.715  14.271   6.110 -0.0754 -0.0529 -0.1111
 1077YOPC   PO415072  14.402  14.276   6.374 -0.1614  0.3438  0.1284
 1077YOPC   GL115073  14.336  14.195   6.768  0.1093 -0.0025 -0.0680
 1077YOPC   GL215074  14.607  14.006   6.789 -0.1229  0.0523  0.2701
 1077YOPC   C1A15075  14.185  14.041   7.171  0.1664  0.0897  0.3016
 1077YOPC   D2A15076  13.811  13.994   7.364  0.1776  0.0347  0.1450
 1077YOPC   C3A15077  13.449  13.766   7.265 -0.2799  0.1950 -0.2543
 1077YOPC   C4A15078  12.980  13.703   7.329  0.2239  0.0581  0.3060
 1077YOPC   C1B15079  14.734  13.820   7.191 -0.1725  0.4317  0.0360
 1077YOPC   C2B15080  14.948  13.852   7.585  0.1294  0.0790  0.1174
 1077YOPC   D3B15081  15.230  13.532   7.882 -0.3107 -0.2845 -0.0826
 1077YOPC   C4B15082  15.126  13.228   8.137  0.2570 -0.3552  0.2614
 1078YOPC   NC315083   5.691   8.656   5.568  0.1620 -0.1361  0.0877
 1078YOPC   PO415084   5.491   8.282   5.500 -0.0699  0.2344  0.0032
 1078YOPC   GL115085   5.631   8.232   5.937 -0.0983  0.0057 -0.2633
 1078YOPC   GL215086   5.962   8.238   5.802 -0.3431  0.0640  0.0578
 1078YOPC   C1A15087   5.696   8.425   6.277  0.1804 -0.0286 -0.5494
 1078YOPC   D2A15088   5.410   8.785   6.413  0.0605  0.0128  0.1542
 1078YOPC   C3A15089   5.383   9.023   6.805 -0.0138  0.1992 -0.0964
 1078YOPC   C4A15090   5.403   9.223   7.266 -0.5411 -0.0018  0.1523
 1078YOPC   C1B15091   6.096   8.061   6.140  0.3590  0.1036  0.2708
 1078YOPC   C2B15092   5.965   7.970   6.566  0.3737  0.0500 -0.1531
 1078YOPC   D3B15093   5.710   7.808   6.849  0.1317  0.2338  0.1806
 1078YOPC   C4B15094   5.506   7.781   7.201 -0.0134  0.1872  0.3588
 1079YOPC   NC315095   6.486   9.309   5.313  0.2049 -0.3474  0.0258
 1079YOPC   PO415096   6.818   9.615   5.340 -0.0624 -0.0418  0.2107
 1079YOPC   GL115097   6.676   9.590   5.767 -0.0916  0.3703 -0.1504
 1079YOPC   GL215098   6.734   9.305   5.834  0.5519 -0.0631  0.0034
 1079YOPC   C1A15099   6.365   9.803   5.958  0.1273  0.0362  0.2105
 1079YOPC   D2A15100   6.352  10.237   6.179 -0.1208  0.4568  0.3716
 1079YOPC   C3A15101   6.306  10.315   6.646  0.1862 -0.2961 -0.5809
 1079YOPC   C4A15102   6.113  10.329   7.040 -0.2545  0.0556 -0.1764
 1079YOPC   C1B15103   7.204   9.618   5.931 -0.0585  0.0808 -0.0312
 1079YOPC   C2B15104   7.265   9.912   6.260 -0.3184 -0.0614  0.1190
 1079YOPC   D3B15105   7.278  10.329   6.187 -0.1824  0.0406  0.2499
 1079YOPC   C4B15106   7.154  10.623   6.502 -0.2202  0.2326  0.0413
 1080YOPC   NC315107  13.364   3.651   5.874 -0.0815  0.0451 -0.1435
 1080YOPC   PO415108  13.603   3.407   6.119 -0.1031 -0.0865 -0.0234
 1080YOPC   GL115109  13.560   3.590   6.446  0.0185  0.0727 -0.1331
 1080YOPC   GL215110  13.454   3.818   6.397  0.0217  0.0357 -0.0272
 1080YOPC   C1A15111  13.407   3.445   6.940  0.2397 -0.1086  0.4033
 1080YOPC   D2A15112  13.468   3.408   7.337  0.2583 -0.1124  0.2534
 1080YOPC   C3A15113  13.382   3.377   7.769 -0.3031 -0.0826 -0.1185
 1080YOPC   C4A15114  13.224   3.402   8.179 -0.0879  0.1041 -0.2238
 1080YOPC   C1B15115  13.204   3.865   6.740  0.0207 -0.2882 -0.2479
 1080YOPC   C2B15116  12.748   3.998   6.840 -0.0430 -0.3358  0.1508
 1080YOPC   D3B15117  12.786   4.403   7.075  0.0404 -0.1186  0.1089
 1080YOPC   C4B15118  12.739   4.814   7.183  0.3564  0.2243  0.0921
 1081YOPC   NC315119   5.017   4.764   5.613  0.2024  0.0536  0.0045
 1081YOPC   PO415120   4.709   4.841   5.931 -0.0741  0.1074  0.2791
 1081YOPC   GL115121   4.670   4.800   6.319  0.0228  0.1075 -0.3397
 1081YOPC   GL215122   4.804   4.494   6.366  0.0134  0.0842 -0.0893
 1081YOPC   C1A15123   4.741   4.959   6.832  0.4772 -0.1321 -0.3743
 1081YOPC   D2A15124   4.613   4.779   7.231  0.1241 -0.0452  0.1289
 1081YOPC   C3A15125   4.520   4.926   7.599  0.1834 -0.2392  0.2379
 1081YOPC   C4A15126   4.459   4.969   8.099  0.1016  0.4383 -0.1925
 1081YOPC   C1B15127   4.662   4.446   6.806 -0.0411 -0.2834 -0.0661
 1081YOPC   C2B15128   4.694   4.257   7.190  0.0886  0.1280 -0.3120
 1081YOPC   D3B15129   4.325   4.422   7.425  0.1763 -0.1956 -0.0693
 1081YOPC   C4B15130   4.103   4.722   7.766 -0.1845  0.0285  0.3743
 1082YOPC   NC315131   0.918  14.634   5.705  0.0771  0.1415  0.1075
 1082YOPC   PO415132   1.236  14.310   5.834 -0.0874  0.1618 -0.0690
 1082YOPC   GL115133   1.261  14.146   6.405  0.1227  0.0117 -0.0613
 1082YOPC   GL215134   1.220  13.914   6.524 -0.3201 -0.1896  0.0598
 1082YOPC   C1A15135   1.431  14.251   6.785  0.0428  0.1440 -0.0663
 1082YOPC   D2A15136   1.604  14.424   7.067  0.3703  0.0911  0.3806
 1082YOPC   C3A15137   1.384  14.578   7.449 -0.0565  0.1315  0.0270
 1082YOPC   C4A15138   1.059  14.517   7.709  0.0121  0.1977 -0.3506
 1082YOPC   C1B15139   1.035  13.957   6.935  0.1360  0.0209 -0.2038
 1082YOPC   C2B15140   1.208  14.169   7.272 -0.2070  0.1379 -0.2634
 1082YOPC   D3B15141   1.347  14.071   7.616  0.3185  0.1260  0.1180
 1082YOPC   C4B15142   1.451  13.604   7.886  0.0209 -0.2678  0.1360
 1083YOPC   NC315143  12.009   4.646   5.782 -0.2336 -0.0371 -0.2255
 1083YOPC   PO415144  11.654   4.365   5.845 -0.1197  0.2650  0.0913
 1083YOPC   GL115145  11.606   4.532   6.263  0.0155  0.1553 -0.0137
 1083YOPC   GL215146  11.781   4.798   6.233 -0.0393  0.0475  0.2096
 1083YOPC   C1A15147  11.391   4.437   6.679 -0.0020  0.2415  0.0384
 1083YOPC   D2A15148  11.146   4.546   6.943 -0.3518 -0.1631 -0.3169
 1083YOPC   C3A15149  10.741   4.597   6.874 -0.0380 -0.1392 -0.2244
 1083YOPC   C4A15150  10.330   4.594   7.008  0.1173 -0.1856 -0.4606
 1083YOPC   C1B15151  12.077   4.649   6.527 -0.0471 -0.2712 -0.1600
 1083YOPC   C2B15152  12.254   4.449   7.003 -0.0562  0.1497  0.1439
 1083YOPC   D3B15153  12.316   4.654   7.418 -0.2169  0.0455  0.4224
 1083YOPC   C4B15154  12.259   4.720   7.827 -0.2144  0.1543  0.1564
 1084YOPC   NC315155   4.520   0.770   5.743 -0.2942 -0.1766 -0.3120
 1084YOPC   PO415156   4.556   1.050   5.987  0.0984  0.0514  0.0582
 1084YOPC   GL115157   4.698   0.955   6.390  0.2248  0.0141 -0.1370
 1084YOPC   GL215158   5.005   0.663   6.459  0.0367 -0.2732 -0.0310
 1084YOPC   C1A15159   4.673   0.837   6.768 -0.0153  0.0461  0.2067
 1084YOPC   D2A15160   4.732   0.933   7.243 -0.2349  0.1363  0.0480
 1084YOPC   C3A15161   4.426   0.955   7.606 -0.3909  0.0350 -0.2537
 1084YOPC   C4A15162   4.140   1.015   7.889  0.0102 -0.4817  0.0727
 1084YOPC   C1B15163   4.927   0.428   6.930 -0.2236  0.0763  0.0241
 1084YOPC   C2B15164   4.944   0.451   7.361 -0.0188  0.1345  0.3716
 1084YOPC   D3B15165   4.705   0.492   7.726 -0.0619 -0.1491 -0.2439
 1084YOPC   C4B15166   4.543   0.700   8.068 -0.1202 -0.2256  0.2788
 1085YOPC   NC315167   7.751   3.746   5.826  0.1979 -0.0129 -0.1980
 1085YOPC   PO415168   7.660   3.310   5.978  0.1792  0.0196  0.0044
 1085YOPC   GL115169   7.896   3.394   6.274 -0.0104 -0.2293 -0.2609
 1085YOPC   GL215170   7.632   3.421   6.487 -0.2172 -0.0075  0.1863
 1085YOPC   C1A15171   8.030   3.588   6.701 -0.2481  0.1568 -0.4138
 1085YOPC   D2A15172   7.864   3.820   7.172 -0.0918 -0.0090  0.0269
 1085YOPC   C3A15173   7.530   4.135   7.323 -0.2155 -0.1060  0.1379
 1085YOPC   C4A15174   7.491   4.444   7.708  0.2540  0.0136 -0.7408
 1085YOPC   C1B15175   7.559   3.152   6.810  0.3357 -0.0172 -0.0409
 1085YOPC   C2B15176   7.792   3.280   7.131  0.1852  0.0508  0.2146
 1085YOPC   D3B15177   8.336   3.248   7.123 -0.0345 -0.2866 -0.0599
 1085YOPC   C4B15178   8.703   3.259   7.209  0.1043  0.0296 -0.0143
 1086YOPC   NC315179   0.916   3.758   5.475 -0.2256  0.2727  0.0277
 1086YOPC   PO415180   1.168   3.759   5.889 -0.3460 -0.1722 -0.1610
 1086YOPC   GL115181   1.141   3.725   6.322 -0.2612  0.0962 -0.1984
 1086YOPC   GL215182   1.246   3.449   6.356  0.0276  0.2152 -0.0168
 1086YOPC   C1A15183   1.050   4.062   6.657 -0.1516 -0.1133 -0.1048
 1086YOPC   D2A15184   0.709   4.299   6.843 -0.1937 -0.0400  0.0978
 1086YOPC   C3A15185   0.696   4.354   7.288 -0.0931 -0.0587 -0.0442
 1086YOPC   C4A15186   0.669   4.269   7.750 -0.1281  0.0291 -0.0465
 1086YOPC   C1B15187   1.049   3.246   6.550 -0.0958 -0.1815  0.0272
 1086YOPC   C2B15188   0.840   3.112   6.959  0.0281 -0.2331  0.0028
 1086YOPC   D3B15189   0.876   3.299   7.321  0.0297 -0.2639  0.2803
 1086YOPC   C4B15190   0.568   3.175   7.587 -0.4013 -0.4059  0.1775
 1087YOPC   NC315191  16.862   2.078   6.095 -0.0503  0.3033  0.4293
 1087YOPC   PO415192  16.501   2.410   6.167 -0.0672 -0.4039 -0.1916
 1087YOPC   GL115193  16.374   2.424   6.579  0.3101 -0.1743 -0.1199
 1087YOPC   GL215194  16.432   2.799   6.528  0.0261 -0.2461 -0.0439
 1087YOPC   C1A15195  16.213   2.522   7.038 -0.1370  0.1353 -0.0451
 1087YOPC   D2A15196  16.261   2.625   7.580  0.2924  0.0659 -0.0770
 1087YOPC   C3A15197  16.124   2.978   7.757 -0.1088  0.1748 -0.0452
 1087YOPC   C4A15198  16.102   3.185   8.002  0.1093 -0.1068 -0.1835
 1087YOPC   C1B15199  16.099   2.991   6.701 -0.0422  0.0675 -0.0429
 1087YOPC   C2B15200  16.134   3.238   7.002  0.0193 -0.1884 -0.1607
 1087YOPC   D3B15201  15.962   2.920   7.302  0.0358 -0.0063  0.0697
 1087YOPC   C4B15202  15.701   2.793   7.605 -0.2368  0.0852 -0.0449
 1088YOPC   NC315203  12.555   5.142   5.243 -0.2960 -0.2188 -0.0304
 1088YOPC   PO415204  12.750   5.406   5.532  0.1737 -0.1369  0.0204
 1088YOPC   GL115205  12.708   5.272   6.029 -0.0894 -0.0122 -0.3874
 1088YOPC   GL215206  12.849   5.508   6.308 -0.1470 -0.1731 -0.1498
 1088YOPC   C1A15207  12.805   5.014   6.317  0.2502  0.0684 -0.1393
 1088YOPC   D2A15208  12.860   4.751   6.622 -0.0104 -0.3796  0.0952
 1088YOPC   C3A15209  12.598   4.408   6.615  0.1037  0.1814 -0.4437
 1088YOPC   C4A15210  12.338   4.148   6.481  0.0577  0.1958 -0.0460
 1088YOPC   C1B15211  12.507   5.369   6.507 -0.0830  0.0584  0.2080
 1088YOPC   C2B15212  12.431   5.025   6.688  0.2582  0.1435  0.3619
 1088YOPC   D3B15213  12.265   5.050   7.089 -0.0650 -0.0679  0.0066
 1088YOPC   C4B15214  11.896   5.389   7.165  0.1203 -0.0454  0.1664
 1089YOPC   NC315215  17.809   2.207   5.880  0.1877  0.2049  0.0218
 1089YOPC   PO415216  18.244   2.268   5.948  0.0931  0.2922  0.1954
 1089YOPC   GL115217  18.148   2.297   6.374 -0.0631 -0.0550  0.0573
 1089YOPC   GL215218  18.238   2.516   6.515 -0.1341 -0.1040 -0.2337
 1089YOPC   C1A15219  18.096   2.247   6.864 -0.0915 -0.1781  0.1328
 1089YOPC   D2A15220  18.159   2.127   7.270  0.5320 -0.0402 -0.2338
 1089YOPC   C3A15221  18.042   2.368   7.661 -0.0499 -0.0371  0.0659
 1089YOPC   C4A15222  17.806   2.155   8.058 -0.2567  0.4635  0.2328
 1089YOPC   C1B15223  17.817   2.601   6.576  0.0168  0.1235  0.1323
 1089YOPC   C2B15224  17.585   2.237   6.654 -0.3466  0.0375  0.2925
 1089YOPC   D3B15225  17.333   2.125   6.908 -0.1267 -0.0585 -0.0291
 1089YOPC   C4B15226  17.218   2.122   7.226  0.1246 -0.3200  0.0098
 1090YOPC   NC315227   5.606   2.442   6.146  0.2333 -0.1208  0.0067
 1090YOPC   PO415228   5.928   2.286   6.188  0.1681 -0.0404  0.0036
 1090YOPC   GL115229   5.805   2.495   6.667  0.2266 -0.0693  0.0839
 1090YOPC   GL215230   5.996   2.821   6.722  0.0687 -0.1334  0.2235
 1090YOPC   C1A15231   5.889   2.322   7.061  0.2302  0.1866 -0.2726
 1090YOPC   D2A15232   5.980   2.321   7.513 -0.0182 -0.0193  0.3065
 1090YOPC   C3A15233   6.134   2.333   7.894  0.1911  0.2462 -0.2548
 1090YOPC   C4A15234   6.161   2.476   8.258 -0.0288 -0.0734  0.3051
 1090YOPC   C1B15235   5.941   3.166   7.128  0.0633  0.3230 -0.0677
 1090YOPC   C2B15236   5.989   3.367   7.526  0.1866 -0.2525  0.2248
 1090YOPC   D3B15237   5.680   3.377   7.850  0.2079  0.2813  0.0575
 1090YOPC   C4B15238   5.490   3.318   8.149  0.1538 -0.2768 -0.2389
 1091YOPC   NC315239   2.243   4.446   5.500 -0.3909  0.1216 -0.2659
 1091YOPC   PO415240   2.013   4.204   5.981  0.3432 -0.0026  0.1902
 1091YOPC   GL115241   1.680   4.487   6.308 -0.1643  0.1120 -0.1518
 1091YOPC   GL215242   1.674   4.877   6.375 -0.1462  0.4110  0.0457
 1091YOPC   C1A15243   1.673   4.532   6.800 -0.0080 -0.2573 -0.0756
 1091YOPC   D2A15244   1.510   4.525   7.139  0.0285 -0.0319  0.1370
 1091YOPC   C3A15245   1.687   4.652   7.620  0.0317 -0.1545  0.0384
 1091YOPC   C4A15246   1.866   4.803   7.965  0.1004  0.1540  0.1411
 1091YOPC   C1B15247   1.899   4.966   6.713  0.1264  0.1736  0.2627
 1091YOPC   C2B15248   1.894   4.932   7.127  0.1724 -0.3349  0.1085
 1091YOPC   D3B15249   2.082   4.646   7.210 -0.0782 -0.1282 -0.0651
 1091YOPC   C4B15250   2.317   4.687   7.589 -0.2021 -0.0719  0.1383
 1092YOPC   NC315251  11.022   7.000   5.637  0.2116  0.1678 -0.0684
 1092YOPC   PO415252  11.056   6.573   5.711  0.3317  0.0464  0.1239
 1092YOPC   GL115253  11.108   6.693   6.148  0.2986  0.1574 -0.3366
 1092YOPC   GL215254  10.700   6.755   6.251 -0.2717  0.0350 -0.1748
 1092YOPC   C1A15255  11.386   6.925   6.538 -0.0142 -0.3215  0.1319
 1092YOPC   D2A15256  11.524   7.105   6.813 -0.1381  0.0094  0.0504
 1092YOPC   C3A15257  11.535   6.977   7.308 -0.1873  0.0597  0.0617
 1092YOPC   C4A15258  11.478   6.969   7.736  0.0217  0.0706 -0.0371
 1092YOPC   C1B15259  10.890   6.837   6.709 -0.1935 -0.0615 -0.0761
 1092YOPC   C2B15260  11.136   6.902   7.049 -0.2606  0.1618  0.1118
 1092YOPC   D3B15261  10.983   7.013   7.420  0.2252  0.1957 -0.1128
 1092YOPC   C4B15262  10.960   7.349   7.654 -0.4416  0.0156  0.1253
 1093YOPC   NC315263  17.409   9.893   5.501 -0.0395  0.1640  0.0993
 1093YOPC   PO415264  17.168  10.150   5.772  0.2228 -0.1417  0.0309
 1093YOPC   GL115265  17.394  10.439   6.138  0.0077  0.0115 -0.0511
 1093YOPC   GL215266  17.157  10.730   6.270 -0.1724  0.1671 -0.1342
 1093YOPC   C1A15267  17.531  10.430   6.563 -0.1322  0.0368  0.3426
 1093YOPC   D2A15268  17.759  10.116   6.628 -0.2337 -0.1181  0.3104
 1093YOPC   C3A15269  17.924   9.999   6.956  0.0053 -0.1637 -0.0732
 1093YOPC   C4A15270  17.959   9.823   7.421 -0.0949  0.1621  0.0704
 1093YOPC   C1B15271  17.026  10.518   6.732 -0.2486  0.1331  0.6208
 1093YOPC   C2B15272  16.739  10.334   7.052 -0.0418  0.4004 -0.0697
 1093YOPC   D3B15273  17.030  10.168   7.294 -0.3847 -0.2693  0.0619
 1093YOPC   C4B15274  16.947   9.965   7.637  0.1343 -0.0205 -0.0516
 1094YOPC   NC315275  16.568   5.747   5.869 -0.1206  0.1220 -0.0227
 1094YOPC   PO415276  16.537   5.290   5.879 -0.0186 -0.0083  0.1365
 1094YOPC   GL115277  16.485   5.369   6.285  0.1493 -0.1662 -0.0204
 1094YOPC   GL215278  16.287   5.212   6.371 -0.3077 -0.2375  0.0342
 1094YOPC   C1A15279  16.813   5.334   6.623 -0.0002  0.0703 -0.1174
 1094YOPC   D2A15280  16.793   5.034   6.916  0.1781  0.1104 -0.0979
 1094YOPC   C3A15281  16.722   4.639   7.078 -0.1391 -0.1073  0.1249
 1094YOPC   C4A15282  16.751   4.236   7.305 -0.0073 -0.0377 -0.0799
 1094YOPC   C1B15283  16.305   5.339   6.739 -0.1454  0.0251 -0.0015
 1094YOPC   C2B15284  16.610   5.467   7.113  0.1120  0.1655 -0.1536
 1094YOPC   D3B15285  16.695   5.151   7.452  0.0577  0.0406  0.2858
 1094YOPC   C4B15286  16.752   5.011   7.925  0.0644  0.0440  0.4637
 1095YOPC   NC315287   3.890  11.921   6.015 -0.0087 -0.2376 -0.2700
 1095YOPC   PO415288   3.858  11.440   5.734  0.1907 -0.1624 -0.1941
 1095YOPC   GL115289   4.064  11.395   6.024  0.2706  0.4005 -0.0656
 1095YOPC   GL215290   3.781  11.519   6.287  0.0304 -0.0661 -0.5981
 1095YOPC   C1A15291   4.128  11.252   6.431  0.1248 -0.0510 -0.2184
 1095YOPC   D2A15292   3.723  11.179   6.760 -0.0584 -0.2285 -0.2984
 1095YOPC   C3A15293   3.906  11.040   7.166  0.1295  0.1696 -0.1591
 1095YOPC   C4A15294   4.027  10.942   7.624  0.1231 -0.0162 -0.0056
 1095YOPC   C1B15295   3.555  11.634   6.666  0.2013 -0.2865 -0.3502
 1095YOPC   C2B15296   3.229  11.579   6.980  0.0096 -0.0752 -0.1095
 1095YOPC   D3B15297   3.293  11.611   7.452  0.0335 -0.1084 -0.0415
 1095YOPC   C4B15298   3.402  11.839   7.803  0.1454 -0.1120 -0.2407
 1096YOPC   NC315299   0.218   9.959   5.819 -0.0254 -0.1691 -0.1325
 1096YOPC   PO415300   0.709   9.756   5.513  0.1008 -0.1957 -0.0912
 1096YOPC   GL115301   0.472   9.460   5.856  0.0156  0.1025 -0.0076
 1096YOPC   GL215302   0.047   9.443   5.832  0.0285  0.1077  0.0690
 1096YOPC   C1A15303   0.429   9.616   6.278  0.0321 -0.0037 -0.1346
 1096YOPC   D2A15304   0.763   9.517   6.612 -0.0500 -0.0121 -0.1591
 1096YOPC   C3A15305   0.795   9.547   7.085 -0.0840  0.2216  0.2721
 1096YOPC   C4A15306   0.758   9.584   7.493 -0.3645  0.1358  0.2219
 1096YOPC   C1B15307  -0.051   9.498   6.204  0.0928 -0.0594 -0.3387
 1096YOPC   C2B15308  -0.187   9.588   6.591  0.0328  0.0485 -0.1131
 1096YOPC   D3B15309  -0.125   9.445   7.059  0.0754 -0.0759  0.1560
 1096YOPC   C4B15310  -0.180   9.301   7.548 -0.1134 -0.1902 -0.0320
 1097YOPC   NC315311  11.183   4.480   6.022  0.3076 -0.4024  0.0466
 1097YOPC   PO415312  11.192   3.998   5.968  0.1245 -0.0045  0.2406
 1097YOPC   GL115313  11.331   3.978   6.378 -0.5416 -0.2649  0.0430
 1097YOPC   GL215314  11.610   4.036   6.344  0.1245  0.0630  0.0728
 1097YOPC   C1A15315  11.109   3.955   6.772 -0.2950 -0.1885 -0.0458
 1097YOPC   D2A15316  11.191   4.089   7.189 -0.1568 -0.0466  0.0981
 1097YOPC   C3A15317  11.665   4.298   7.228 -0.0718 -0.1776 -0.2166
 1097YOPC   C4A15318  11.980   4.325   7.362 -0.1924 -0.2102  0.0612
 1097YOPC   C1B15319  11.815   4.264   6.722  0.1981  0.1518 -0.0728
 1097YOPC   C2B15320  11.852   4.717   6.985 -0.3848  0.1506 -0.1998
 1097YOPC   D3B15321  11.882   5.090   6.722 -0.1206  0.1470  0.0520
 1097YOPC   C4B15322  11.564   5.448   6.809  0.3107 -0.0803 -0.3106
 1098YOPC   NC315323   0.315  10.659   5.205 -0.2557  0.1017 -0.2188
 1098YOPC   PO415324   0.170  10.867   5.644 -0.1788  0.2110 -0.2210
 1098YOPC   GL115325   0.113  10.735   6.041  0.0974  0.0138  0.0698
 1098YOPC   GL215326   0.342  10.917   6.191  0.2238 -0.0138  0.0314
 1098YOPC   C1A15327   0.105  10.438   6.322  0.0214  0.4115  0.0854
 1098YOPC   D2A15328   0.066   9.972   6.472  0.2260 -0.1849 -0.0294
 1098YOPC   C3A15329   0.242   9.682   6.847 -0.0108 -0.1002  0.2710
 1098YOPC   C4A15330   0.294   9.729   7.252 -0.1379  0.1111 -0.0451
 1098YOPC   C1B15331   0.267  10.799   6.614 -0.1597  0.1151  0.2160
 1098YOPC   C2B15332   0.444  10.434   6.711  0.1023 -0.1657  0.3143
 1098YOPC   D3B15333   0.221  10.217   6.851  0.0737 -0.0737 -0.0063
 1098YOPC   C4B15334   0.117  10.203   7.251  0.1522  0.0006  0.4647
 1099YOPC   NC315335   8.477  15.888   5.443 -0.0084  0.0553 -0.1724
 1099YOPC   PO415336   8.486  15.726   5.733  0.0379  0.2443 -0.0128
 1099YOPC   GL115337   8.260  15.701   6.182  0.1277  0.0826  0.1436
 1099YOPC   GL215338   8.031  15.976   6.289 -0.0600 -0.4008  0.0223
 1099YOPC   C1A15339   8.224  15.609   6.638  0.0561 -0.0126  0.3810
 1099YOPC   D2A15340   8.043  15.862   7.001  0.0589  0.0119 -0.2640
 1099YOPC   C3A15341   7.574  15.997   6.875  0.0085  0.0907 -0.2715
 1099YOPC   C4A15342   7.472  16.047   6.450  0.0960  0.2530  0.2001
 1099YOPC   C1B15343   8.152  16.286   6.779  0.0643  0.0656 -0.1561
 1099YOPC   C2B15344   8.416  16.220   7.086 -0.0641  0.0508  0.0875
 1099YOPC   D3B15345   8.428  16.303   7.541  0.1628  0.1724 -0.0695
 1099YOPC   C4B15346   8.300  15.948   7.905  0.0442  0.2666  0.0233
 1100YOPC   NC315347   9.962  11.413   5.262  0.0298  0.0455 -0.2013
 1100YOPC   PO415348   9.855  11.553   5.689  0.2321 -0.1975 -0.0660
 1100YOPC   GL115349   9.903  11.658   6.109 -0.0491  0.2127  0.2059
 1100YOPC   GL215350   9.948  11.881   6.207  0.2129 -0.2474 -0.0796
 1100YOPC   C1A15351   9.642  11.574   6.415 -0.1107  0.2166  0.1308
 1100YOPC   D2A15352   9.485  11.780   6.771 -0.0714  0.0105 -0.0275
 1100YOPC   C3A15353   9.552  11.691   7.248 -0.0012  0.3965 -0.3529
 1100YOPC   C4A15354   9.696  11.915   7.563 -0.0294 -0.1402 -0.2935
 1100YOPC   C1B15355  10.051  11.764   6.607  0.1530  0.0101  0.0696
 1100YOPC   C2B15356   9.895  11.530   6.843  0.0151  0.0793 -0.1390
 1100YOPC   D3B15357  10.055  11.526   7.236 -0.0674 -0.0185 -0.0467
 1100YOPC   C4B15358  10.310  11.213   7.499 -0.0093  0.2559  0.0864
 1101YOPC   NC315359   7.865   8.346   5.499  0.1273 -0.0120 -0.2739
 1101YOPC   PO415360   7.450   8.637   5.561  0.0283 -0.1595  0.2259
 1101YOPC   GL115361   7.153   8.588   5.914 -0.0148 -0.1918  0.1233
 1101YOPC   GL215362   6.929   8.749   5.829  0.1420  0.4761  0.1204
 1101YOPC   C1A15363   6.999   8.535   6.332 -0.0975  0.0987  0.0824
 1101YOPC   D2A15364   6.727   8.636   6.807  0.0573  0.3058  0.1039
 1101YOPC   C3A15365   6.796   8.444   7.201  0.3579 -0.0244 -0.0623
 1101YOPC   C4A15366   7.090   8.544   7.562  0.2313  0.3798  0.2649
 1101YOPC   C1B15367   6.661   8.926   6.089 -0.2103  0.0148  0.1353
 1101YOPC   C2B15368   6.471   8.812   6.380 -0.2485  0.0479 -0.1210
 1101YOPC   D3B15369   6.374   8.977   6.735  0.4691 -0.0195  0.2673
 1101YOPC   C4B15370   6.184   9.170   7.084  0.0448 -0.0082 -0.0292
 1102YOPC   NC315371  11.396   5.837   5.995  0.0719  0.1252 -0.0949
 1102YOPC   PO415372  11.764   5.738   6.020 -0.0248  0.2736 -0.0447
 1102YOPC   GL115373  11.778   5.786   6.357  0.1024  0.3602  0.0279
 1102YOPC   GL215374  11.525   5.945   6.462  0.0906 -0.1995  0.0998
 1102YOPC   C1A15375  12.057   5.583   6.594  0.1405  0.0121  0.1315
 1102YOPC   D2A15376  12.380   5.580   7.023  0.0626  0.0947  0.3796
 1102YOPC   C3A15377  12.312   5.685   7.528  0.0083 -0.0155  0.2081
 1102YOPC   C4A15378  12.364   5.820   7.992  0.3202 -0.0655 -0.2326
 1102YOPC   C1B15379  11.428   5.988   6.901  0.0392  0.0775 -0.1868
 1102YOPC   C2B15380  11.147   6.102   7.173 -0.0428  0.3302 -0.2792
 1102YOPC   D3B15381  11.363   5.939   7.562  0.1113  0.0554  0.1361
 1102YOPC   C4B15382  11.591   5.983   7.900 -0.3109  0.1010  0.1313
 1103YOPC   NC315383   9.316   8.744   5.196  0.1593 -0.0319 -0.2121
 1103YOPC   PO415384   9.337   8.457   5.505  0.0456 -0.4759 -0.0261
 1103YOPC   GL115385   9.330   8.514   5.880  0.0022  0.1396  0.3994
 1103YOPC   GL215386   9.291   8.835   5.984 -0.1539  0.1983 -0.1599
 1103YOPC   C1A15387   9.624   8.526   6.203 -0.1091 -0.1069 -0.3954
 1103YOPC   D2A15388   9.702   8.609   6.627  0.2688  0.1026  0.1538
 1103YOPC   C3A15389   9.530   8.866   6.859 -0.0371  0.3054 -0.1647
 1103YOPC   C4A15390   9.485   8.818   7.308  0.0366 -0.2162 -0.0901
 1103YOPC   C1B15391   9.439   9.025   6.419  0.1595 -0.1011 -0.1839
 1103YOPC   C2B15392   9.537   9.379   6.683  0.1883 -0.0583 -0.0070
 1103YOPC   D3B15393   9.531   9.494   7.076  0.2284 -0.1407  0.1913
 1103YOPC   C4B15394   9.255   9.823   7.236  0.4177 -0.2391 -0.0878
 1104YOPC   NC315395  12.321  15.143   6.459 -0.1118  0.1201  0.1916
 1104YOPC   PO415396  11.789  15.009   6.426 -0.4600  0.4051  0.0692
 1104YOPC   GL115397  11.690  14.795   6.814  0.0325  0.4531  0.1277
 1104YOPC   GL215398  11.484  14.875   7.064  0.3121 -0.2549 -0.0491
 1104YOPC   C1A15399  11.760  14.528   7.225  0.0400  0.0694 -0.1563
 1104YOPC   D2A15400  11.562  14.299   7.592  0.2726  0.0512 -0.1389
 1104YOPC   C3A15401  11.654  14.219   8.052  0.0701  0.2395  0.0916
 1104YOPC   C4A15402  11.737  14.338   8.556  0.1289  0.1801 -0.3106
 1104YOPC   C1B15403  11.469  14.795   7.490 -0.4401 -0.2071  0.0566
 1104YOPC   C2B15404  11.446  15.228   7.769 -0.0803 -0.0337  0.2552
 1104YOPC   D3B15405  11.332  15.289   8.208  0.0512 -0.0804  0.0715
 1104YOPC   C4B15406  11.151  15.611   8.457  0.1954  0.1342 -0.2545
 1105YOPC   NC315407  13.598   2.872   6.155 -0.0148 -0.1270 -0.2696
 1105YOPC   PO415408  13.250   2.619   6.152  0.1981 -0.1298 -0.1357
 1105YOPC   GL115409  13.179   2.876   6.587  0.0034  0.1520  0.0370
 1105YOPC   GL215410  13.274   3.170   6.548 -0.0979  0.2123  0.0717
 1105YOPC   C1A15411  13.567   2.910   6.906  0.0739  0.0240  0.0906
 1105YOPC   D2A15412  13.849   2.917   7.317  0.1396 -0.1301  0.0469
 1105YOPC   C3A15413  13.827   3.148   7.716 -0.0546  0.0209  0.0827
 1105YOPC   C4A15414  13.922   3.520   8.004  0.1629  0.0458  0.0903
 1105YOPC   C1B15415  13.116   3.068   7.046 -0.0806 -0.1110 -0.0445
 1105YOPC   C2B15416  13.329   2.927   7.448  0.0191  0.0303  0.1385
 1105YOPC   D3B15417  13.136   2.818   7.800 -0.1498 -0.1274  0.0829
 1105YOPC   C4B15418  13.071   2.661   8.226  0.1013 -0.3009  0.5498
 1106YOPC   NC315419  16.911   8.440   5.440 -0.2736  0.0137 -0.0123
 1106YOPC   PO415420  16.594   8.088   5.464 -0.2003 -0.1200 -0.1924
 1106YOPC   GL115421  16.526   7.836   5.825  0.0671  0.3362  0.3230
 1106YOPC   GL215422  16.608   7.571   5.943 -0.0522 -0.1368 -0.0954
 1106YOPC   C1A15423  16.495   7.667   6.378  0.2917 -0.5211 -0.2016
 1106YOPC   D2A15424  16.747   7.460   6.549 -0.1604 -0.4616 -0.3096
 1106YOPC   C3A15425  17.162   7.570   6.614 -0.0316 -0.2037  0.0598
 1106YOPC   C4A15426  17.372   7.638   6.307  0.1726  0.2061  0.0139
 1106YOPC   C1B15427  16.970   7.864   6.159  0.0069 -0.0068 -0.0525
 1106YOPC   C2B15428  17.087   8.043   6.496 -0.2688  0.1166 -0.2022
 1106YOPC   D3B15429  16.922   7.927   6.861 -0.0960  0.1661 -0.0804
 1106YOPC   C4B15430  16.959   7.516   7.048 -0.2768  0.2895  0.2348
 1107YOPC   NC315431   5.911   4.334   5.739  0.2629  0.3001 -0.1247
 1107YOPC   PO415432   6.215   4.637   5.921  0.2099  0.0904  0.1547
 1107YOPC   GL115433   6.250   4.385   6.238  0.0473  0.3285  0.1689
 1107YOPC   GL215434   5.975   4.394   6.361  0.1054  0.1345 -0.1416
 1107YOPC   C1A15435   6.467   4.372   6.636 -0.2842 -0.0316  0.0246
 1107YOPC   D2A15436   6.866   4.313   6.786 -0.0496 -0.0705 -0.2210
 1107YOPC   C3A15437   7.062   4.673   6.764 -0.0706  0.3088 -0.0428
 1107YOPC   C4A15438   7.471   4.804   6.645 -0.2050  0.3756 -0.0275
 1107YOPC   C1B15439   6.067   4.591   6.817 -0.1496  0.1890  0.3508
 1107YOPC   C2B15440   6.157   4.729   7.331 -0.0584 -0.0859  0.5742
 1107YOPC   D3B15441   6.621   4.575   7.544 -0.1478  0.0802  0.1931
 1107YOPC   C4B15442   6.976   4.297   7.726  0.3227  0.2208  0.3909
 1108YOPC   NC315443  13.460  17.742   6.245  0.1440  0.0887 -0.0177
 1108YOPC   PO415444  13.713  18.076   6.335 -0.0071  0.0671  0.2329
 1108YOPC   GL115445  14.024  18.100   6.600  0.3453 -0.2259  0.0858
 1108YOPC   GL215446  14.083  18.385   6.570 -0.1988  0.0319 -0.0431
 1108YOPC   C1A15447  14.111  18.086   7.052 -0.0298  0.1941  0.4837
 1108YOPC   D2A15448  13.792  18.020   7.299  0.0255  0.3681  0.1733
 1108YOPC   C3A15449  13.515  18.300   7.559 -0.3846  0.1088 -0.0812
 1108YOPC   C4A15450  13.463  18.398   8.058  0.0119 -0.0235 -0.0931
 1108YOPC   C1B15451  14.287  18.462   6.774 -0.2129 -0.0668 -0.0347
 1108YOPC   C2B15452  14.519  18.479   7.127  0.0658 -0.1286 -0.1210
 1108YOPC   D3B15453  14.937  18.664   7.176  0.2697  0.0296  0.0716
 1108YOPC   C4B15454  15.237  18.729   7.495 -0.0627  0.2049 -0.1930
 1109YOPC   NC315455   6.442   2.801   5.892 -0.3711  0.1349 -0.0202
 1109YOPC   PO415456   6.578   3.116   6.164  0.1046 -0.0088 -0.2951
 1109YOPC   GL115457   6.824   2.686   6.393 -0.1410  0.0729  0.2161
 1109YOPC   GL215458   7.083   2.607   6.264  0.6989  0.0482 -0.0263
 1109YOPC   C1A15459   6.780   2.696   6.874 -0.0108  0.3032 -0.1899
 1109YOPC   D2A15460   6.798   2.776   7.391  0.0878  0.2026 -0.1165
 1109YOPC   C3A15461   7.053   2.488   7.607 -0.0963  0.0214  0.1720
 1109YOPC   C4A15462   7.136   2.543   8.028 -0.0790  0.1705 -0.0523
 1109YOPC   C1B15463   7.253   2.781   6.646 -0.0291 -0.1610 -0.1653
 1109YOPC   C2B15464   7.231   2.672   7.054  0.0006 -0.1101 -0.0617
 1109YOPC   D3B15465   7.328   3.057   7.237  0.0427  0.0018  0.1866
 1109YOPC   C4B15466   7.523   3.069   7.732 -0.1557 -0.0664  0.1470
 1110YOPC   NC315467   9.600   3.141   5.778  0.2272 -0.0807 -0.1135
 1110YOPC   PO415468   9.437   3.032   6.236  0.2498  0.0233 -0.0421
 1110YOPC   GL115469   9.376   2.746   6.588 -0.2104  0.0675 -0.1048
 1110YOPC   GL215470   9.098   2.521   6.546  0.1904 -0.3473 -0.1148
 1110YOPC   C1A15471   9.709   2.632   6.819 -0.2424 -0.0224 -0.1454
 1110YOPC   D2A15472  10.079   2.700   6.936  0.0229 -0.0318  0.1048
 1110YOPC   C3A15473  10.177   2.961   7.153  0.2455 -0.1386  0.3231
 1110YOPC   C4A15474  10.536   3.171   7.130 -0.0150  0.1224  0.1035
 1110YOPC   C1B15475   8.660   2.378   6.719 -0.0455 -0.1180 -0.0346
 1110YOPC   C2B15476   8.396   2.427   7.140 -0.1057  0.0272 -0.0026
 1110YOPC   D3B15477   8.442   2.857   7.426 -0.0517  0.3095 -0.1181
 1110YOPC   C4B15478   8.464   3.262   7.707  0.3282 -0.1625  0.0200
 1111YOPC   NC315479  16.624  13.773   6.100  0.2053 -0.0081 -0.0167
 1111YOPC   PO415480  17.125  13.633   6.227  0.0675 -0.0514 -0.1881
 1111YOPC   GL115481  17.172  13.603   6.742  0.2607  0.1775  0.0946
 1111YOPC   GL215482  16.903  13.461   6.847  0.0905 -0.0287  0.1481
 1111YOPC   C1A15483  17.246  13.587   7.145  0.1635 -0.1569 -0.2281
 1111YOPC   D2A15484  17.213  13.738   7.626 -0.0303 -0.0522 -0.0775
 1111YOPC   C3A15485  16.862  13.693   7.868  0.1951 -0.0150  0.2962
 1111YOPC   C4A15486  16.813  13.632   8.403 -0.2600  0.0464  0.2347
 1111YOPC   C1B15487  16.776  13.809   7.144  0.0108  0.0842 -0.3329
 1111YOPC   C2B15488  16.822  14.129   7.505 -0.0974  0.2029 -0.1109
 1111YOPC   D3B15489  16.812  14.605   7.571  0.0845  0.0249  0.4446
 1111YOPC   C4B15490  16.873  14.940   7.837  0.0824 -0.1292 -0.2404
 1112YOPC   NC315491   5.562   6.958   5.868  0.0338  0.1682 -0.1439
 1112YOPC   PO415492   5.316   6.897   5.463 -0.1250  0.0718 -0.0016
 1112YOPC   GL115493   5.155   7.133   5.945  0.0984  0.0040  0.2527
 1112YOPC   GL215494   4.959   7.396   5.946 -0.1183 -0.3308 -0.1933
 1112YOPC   C1A15495   5.259   7.355   6.291 -0.3196  0.2495  0.0770
 1112YOPC   D2A15496   5.118   7.375   6.730 -0.1185  0.1100 -0.0866
 1112YOPC   C3A15497   4.996   7.357   7.160  0.1246  0.1242 -0.1283
 1112YOPC   C4A15498   5.044   7.466   7.622 -0.0929 -0.2457  0.1388
 1112YOPC   C1B15499   4.860   7.687   6.307  0.2454  0.0529 -0.1601
 1112YOPC   C2B15500   4.791   8.157   6.565  0.1195  0.0207 -0.0952
 1112YOPC   D3B15501   4.748   8.280   6.986  0.1632 -0.1025 -0.2039
 1112YOPC   C4B15502   4.836   8.490   7.365 -0.3076  0.0907  0.1652
 1113YOPC   NC315503   1.010   7.007   5.597 -0.0853 -0.2887  0.4478
 1113YOPC   PO415504   1.276   6.629   5.697 -0.4474  0.1910 -0.2878
 1113YOPC   GL115505   1.469   6.571   6.159  0.1049 -0.4705 -0.2681
 1113YOPC   GL215506   1.596   6.273   6.248  0.0956  0.1549 -0.0284
 1113YOPC   C1A15507   1.494   6.721   6.469 -0.1283 -0.0132 -0.0426
 1113YOPC   D2A15508   1.412   6.901   6.734  0.2314  0.2074 -0.1229
 1113YOPC   C3A15509   1.584   6.683   7.082  0.1117 -0.1698  0.2122
 1113YOPC   C4A15510   1.753   6.690   7.480  0.0485  0.0201  0.0785
 1113YOPC   C1B15511   1.799   6.354   6.642 -0.0077 -0.1551  0.0612
 1113YOPC   C2B15512   1.931   6.378   6.975  0.1926 -0.2291 -0.1281
 1113YOPC   D3B15513   2.224   6.479   7.207 -0.1968  0.0391  0.0236
 1113YOPC   C4B15514   2.495   6.678   7.341  0.5464 -0.1603  0.0066
 1114YOPC   NC315515   2.723  11.372   5.314  0.0721  0.0850  0.2038
 1114YOPC   PO415516   2.437  11.171   5.564  0.1375 -0.1148 -0.0165
 1114YOPC   GL115517   2.825  11.265   5.835  0.0016  0.5064  0.1049
 1114YOPC   GL215518   3.037  11.011   5.907  0.0610  0.1887  0.0717
 1114YOPC   C1A15519   3.071  11.612   6.079  0.1524 -0.0295  0.2772
 1114YOPC   D2A15520   3.334  11.741   6.258  0.0543 -0.2257 -0.0253
 1114YOPC   C3A15521   3.269  12.006   6.661  0.0764 -0.2550  0.1918
 1114YOPC   C4A15522   3.233  12.082   7.152 -0.0056 -0.1109  0.1150
 1114YOPC   C1B15523   2.840  11.106   6.312 -0.1792  0.2269 -0.1070
 1114YOPC   C2B15524   2.871  11.162   6.807  0.0625 -0.0328 -0.3068
 1114YOPC   D3B15525   2.572  11.330   7.198  0.3702 -0.3655  0.1875
 1114YOPC   C4B15526   2.770  11.356   7.588 -0.1901  0.1856 -0.4418
 1115YOPC   NC315527  17.064   1.758   5.662 -0.1420  0.3348 -0.0690
 1115YOPC   PO415528  17.363   2.107   6.056  0.2793 -0.3131  0.0395
 1115YOPC   GL115529  17.114   2.309   6.441  0.0208  0.1820 -0.1159
 1115YOPC   GL215530  16.984   2.635   6.504  0.1722  0.1170 -0.1456
 1115YOPC   C1A15531  16.839   2.251   6.810  0.3186 -0.2049 -0.2016
 1115YOPC   D2A15532  16.733   2.589   7.061  0.0282 -0.1444  0.1285
 1115YOPC   C3A15533  16.858   2.408   7.454  0.2957 -0.1015 -0.0959
 1115YOPC   C4A15534  16.926   2.111   7.791 -0.1275 -0.0682 -0.1959
 1115YOPC   C1B15535  17.226   2.584   6.933 -0.2856 -0.3765 -0.2352
 1115YOPC   C2B15536  17.282   2.584   7.384 -0.0096 -0.0240  0.1091
 1115YOPC   D3B15537  17.577   2.470   7.749  0.0186 -0.1373  0.2025
 1115YOPC   C4B15538  17.362   2.249   8.128 -0.0795 -0.0734 -0.1369
 1116YOPC   NC315539   5.153   2.995   5.727  0.2583  0.1962  0.1939
 1116YOPC   PO415540   5.544   2.966   6.031  0.0868 -0.0155 -0.0228
 1116YOPC   GL115541   5.524   2.868   6.441 -0.2016 -0.0275  0.2583
 1116YOPC   GL215542   5.232   2.817   6.530 -0.1575 -0.0170  0.7001
 1116YOPC   C1A15543   5.482   2.907   6.928 -0.0198 -0.1251 -0.2006
 1116YOPC   D2A15544   5.590   2.760   7.277 -0.0637  0.0833 -0.0639
 1116YOPC   C3A15545   5.430   3.087   7.501 -0.2520 -0.0142  0.3558
 1116YOPC   C4A15546   5.185   3.387   7.742 -0.0073  0.1253 -0.1127
 1116YOPC   C1B15547   4.949   2.734   6.843  0.1258  0.1199  0.2024
 1116YOPC   C2B15548   4.945   2.969   7.270  0.2759 -0.1796  0.1344
 1116YOPC   D3B15549   4.959   2.941   7.709  0.1552  0.0278 -0.0460
 1116YOPC   C4B15550   5.266   2.746   7.940 -0.2688  0.1293  0.2380
 1117YOPC   NC315551  11.467   3.065   5.537 -0.1771 -0.0512  0.1036
 1117YOPC   PO415552  11.202   3.187   5.879  0.0609  0.1281 -0.0884
 1117YOPC   GL115553  11.173   3.160   6.414 -0.1529  0.1992 -0.0118
 1117YOPC   GL215554  11.387   2.956   6.593  0.1110  0.1749  0.2863
 1117YOPC   C1A15555  11.358   3.470   6.795 -0.1676 -0.1062 -0.1774
 1117YOPC   D2A15556  11.315   3.597   7.330 -0.0501 -0.0166  0.0068
 1117YOPC   C3A15557  11.555   3.929   7.523 -0.0265 -0.0023 -0.1576
 1117YOPC   C4A15558  11.909   4.134   7.840  0.2734  0.1596  0.2256
 1117YOPC   C1B15559  11.597   3.074   6.943 -0.0908 -0.0554  0.4375
 1117YOPC   C2B15560  11.910   3.397   7.137  0.0195 -0.0843 -0.1553
 1117YOPC   D3B15561  11.734   3.460   7.582  0.1189  0.2228  0.2577
 1117YOPC   C4B15562  11.712   3.201   7.949  0.2050  0.2107  0.3270
 1118YOPC   NC315563   7.986   1.942   6.150  0.2044  0.0984  0.2005
 1118YOPC   PO415564   8.182   2.256   5.902 -0.4202 -0.0855 -0.4405
 1118YOPC   GL115565   8.280   2.518   6.229  0.2025 -0.3229 -0.0076
 1118YOPC   GL215566   8.387   2.809   6.391  0.0819  0.0693  0.0081
 1118YOPC   C1A15567   8.171   2.481   6.674  0.0503 -0.0241 -0.3019
 1118YOPC   D2A15568   7.903   2.268   7.063 -0.2160 -0.1065 -0.3507
 1118YOPC   C3A15569   8.002   2.425   7.475  0.2349  0.2295 -0.0638
 1118YOPC   C4A15570   8.155   2.617   7.829 -0.1572  0.1526 -0.3089
 1118YOPC   C1B15571   8.590   2.884   6.788 -0.0448 -0.2092 -0.0505
 1118YOPC   C2B15572   8.823   2.716   7.171  0.2962 -0.0528  0.3842
 1118YOPC   D3B15573   9.044   2.905   7.578 -0.0310 -0.4171 -0.0884
 1118YOPC   C4B15574   8.988   3.330   7.675  0.1411  0.0567  0.0493
 1119YOPC   NC315575  12.910   0.535   5.865 -0.1671 -0.1129 -0.0507
 1119YOPC   PO415576  13.234   0.510   6.132 -0.0432 -0.1830 -0.1816
 1119YOPC   GL115577  13.264   0.136   6.546 -0.2014 -0.2850 -0.1189
 1119YOPC   GL215578  13.454  -0.073   6.734  0.1737 -0.0284  0.0448
 1119YOPC   C1A15579  12.917  -0.080   6.768  0.3273 -0.0129 -0.0746
 1119YOPC   D2A15580  12.703   0.073   7.159 -0.5254  0.0860 -0.0097
 1119YOPC   C3A15581  12.358  -0.157   7.384  0.1231  0.1947 -0.0159
 1119YOPC   C4A15582  11.932  -0.041   7.621 -0.0752  0.1589 -0.0026
 1119YOPC   C1B15583  13.263   0.164   7.106 -0.1165  0.0535 -0.1694
 1119YOPC   C2B15584  13.072   0.291   7.458  0.0658  0.2150  0.0811
 1119YOPC   D3B15585  13.253   0.592   7.795 -0.3539  0.0934  0.1748
 1119YOPC   C4B15586  13.477   0.874   8.084 -0.0859  0.0328  0.1506
 1120YOPC   NC315587   8.637   1.001   6.060 -0.1752  0.1140  0.0570
 1120YOPC   PO415588   8.659   0.518   6.001  0.2148  0.1154 -0.0541
 1120YOPC   GL115589   8.593   0.632   6.443  0.2135 -0.0993 -0.1502
 1120YOPC   GL215590   8.581   0.806   6.583 -0.1282  0.1127 -0.1062
 1120YOPC   C1A15591   8.717   0.350   6.728  0.2849  0.2659  0.2634
 1120YOPC   D2A15592   8.944  -0.004   6.842 -0.0450  0.0248  0.3793
 1120YOPC   C3A15593   8.937  -0.106   7.274  0.1000  0.1141 -0.2585
 1120YOPC   C4A15594   8.947  -0.291   7.677  0.0510  0.1886  0.0130
 1120YOPC   C1B15595   8.656   0.993   6.964 -0.2703 -0.2070 -0.3098
 1120YOPC   C2B15596   8.621   0.959   7.440  0.1540  0.0343 -0.2267
 1120YOPC   D3B15597   8.379   0.749   7.745  0.2614  0.0552 -0.4065
 1120YOPC   C4B15598   8.262   0.307   7.910 -0.0624 -0.1575 -0.2777
 1121YOPC   NC315599   5.294   5.569   5.608  0.1743 -0.1181  0.1408
 1121YOPC   PO415600   5.421   5.649   5.977  0.0842 -0.0969 -0.1747
 1121YOPC   GL115601   5.558   5.970   6.265 -0.0242 -0.1301 -0.1348
 1121YOPC   GL215602   5.286   5.948   6.571 -0.0101  0.2378 -0.2880
 1121YOPC   C1A15603   5.772   5.978   6.638  0.1842 -0.1114  0.2343
 1121YOPC   D2A15604   5.655   6.212   7.067 -0.1162  0.4804  0.1574
 1121YOPC   C3A15605   5.853   6.050   7.477  0.2639  0.2973  0.1086
 1121YOPC   C4A15606   5.972   6.332   7.798  0.1417 -0.0144 -0.0935
 1121YOPC   C1B15607   5.094   5.901   6.987 -0.2278 -0.2796  0.0311
 1121YOPC   C2B15608   4.858   5.785   7.310 -0.3125 -0.1319  0.1030
 1121YOPC   D3B15609   4.544   6.025   7.498 -0.0216  0.2177  0.1146
 1121YOPC   C4B15610   4.223   6.333   7.624 -0.1156  0.2239  0.0218
 1122YOPC   NC315611   8.023  13.027   5.570  0.0278  0.0249 -0.0667
 1122YOPC   PO415612   7.588  12.830   5.654  0.2736 -0.1957  0.2043
 1122YOPC   GL115613   7.274  12.659   5.984 -0.2973  0.0369  0.2937
 1122YOPC   GL215614   7.215  12.858   6.252  0.0407  0.0990  0.1307
 1122YOPC   C1A15615   6.850  12.366   5.949 -0.0472 -0.2606  0.0056
 1122YOPC   D2A15616   6.717  12.242   6.361 -0.2289 -0.0200  0.0926
 1122YOPC   C3A15617   6.982  12.437   6.755 -0.2406 -0.1128  0.1925
 1122YOPC   C4A15618   7.115  12.545   7.147 -0.0469 -0.0479 -0.0677
 1122YOPC   C1B15619   7.288  12.847   6.714 -0.1457 -0.0724 -0.0046
 1122YOPC   C2B15620   7.305  12.994   7.146 -0.1505  0.1922  0.1151
 1122YOPC   D3B15621   7.344  13.144   7.567  0.2708  0.0913 -0.1232
 1122YOPC   C4B15622   7.371  13.130   7.957  0.0769  0.3402  0.2082
 1123YOPC   NC315623  13.064  15.547   6.262  0.0032 -0.0616 -0.2504
 1123YOPC   PO415624  13.235  15.615   6.698 -0.0011  0.2196 -0.0768
 1123YOPC   GL115625  13.163  15.681   7.099  0.1460 -0.1234 -0.0356
 1123YOPC   GL215626  13.523  15.532   7.217  0.0871  0.2422 -0.0072
 1123YOPC   C1A15627  13.102  15.703   7.529  0.2676 -0.0822 -0.2750
 1123YOPC   D2A15628  13.007  15.666   7.954  0.0369  0.2533  0.1308
 1123YOPC   C3A15629  12.809  15.284   8.081  0.1860  0.1380 -0.0301
 1123YOPC   C4A15630  12.451  15.089   8.256  0.1957 -0.0514  0.3974
 1123YOPC   C1B15631  13.579  15.624   7.670 -0.1667 -0.0900 -0.0865
 1123YOPC   C2B15632  13.784  15.878   7.797 -0.0838 -0.1946  0.1792
 1123YOPC   D3B15633  13.730  15.860   8.185  0.0181 -0.4673  0.0353
 1123YOPC   C4B15634  13.434  16.027   8.552  0.1171  0.3555  0.1824
 1124YOPC   NC315635   5.036  12.962   5.432  0.0677 -0.2336 -0.0438
 1124YOPC   PO415636   5.423  12.846   5.425 -0.0404  0.1122 -0.0330
 1124YOPC   GL115637   5.273  12.877   5.859 -0.0943  0.1744 -0.0475
 1124YOPC   GL215638   5.141  13.188   6.045 -0.1110 -0.2054 -0.0934
 1124YOPC   C1A15639   5.345  12.688   6.154 -0.3578 -0.0475 -0.1193
 1124YOPC   D2A15640   5.568  12.292   6.241 -0.0467 -0.0304  0.1659
 1124YOPC   C3A15641   5.833  12.168   5.963  0.3660  0.2496  0.0030
 1124YOPC   C4A15642   6.182  11.955   5.797  0.1259 -0.0085 -0.2313
 1124YOPC   C1B15643   5.197  13.375   6.435  0.1636 -0.1524 -0.2191
 1124YOPC   C2B15644   5.252  13.302   6.929  0.1161 -0.1215 -0.1568
 1124YOPC   D3B15645   5.582  13.402   7.219  0.0915 -0.0916  0.0878
 1124YOPC   C4B15646   5.739  13.221   7.462 -0.0263 -0.0122  0.0277
 1125YOPC   NC315647  15.495  15.680   6.763 -0.4098  0.1173  0.0845
 1125YOPC   PO415648  15.836  15.381   6.823  0.1058  0.1563 -0.1653
 1125YOPC   GL115649  16.060  15.225   7.185 -0.0482  0.1550  0.0081
 1125YOPC   GL215650  16.250  15.013   7.076 -0.0718  0.1399 -0.0308
 1125YOPC   C1A15651  16.090  15.010   7.543  0.3302 -0.1040 -0.1705
 1125YOPC   D2A15652  16.011  15.021   8.004 -0.1803  0.2425 -0.0593
 1125YOPC   C3A15653  16.438  14.964   8.238 -0.3547 -0.1227 -0.3591
 1125YOPC   C4A15654  16.535  14.684   8.585 -0.2785 -0.1872  0.3506
 1125YOPC   C1B15655  16.638  14.984   7.261 -0.0658 -0.1601 -0.1932
 1125YOPC   C2B15656  16.996  15.051   7.368  0.1436 -0.0712  0.3248
 1125YOPC   D3B15657  17.349  14.902   7.561  0.3356  0.0509  0.4722
 1125YOPC   C4B15658  17.610  15.019   7.762  0.1997  0.2472 -0.0010
 1126YOPC   NC315659  12.115   5.634   5.702 -0.0155  0.0831  0.5069
 1126YOPC   PO415660  12.484   5.698   5.863 -0.0302  0.1477  0.3113
 1126YOPC   GL115661  12.310   5.820   6.211  0.0082  0.0152 -0.0152
 1126YOPC   GL215662  12.186   6.132   6.113  0.2349  0.2947  0.4168
 1126YOPC   C1A15663  12.361   5.987   6.681 -0.2926 -0.1127  0.1459
 1126YOPC   D2A15664  12.341   6.070   7.152 -0.0021 -0.3763  0.1907
 1126YOPC   C3A15665  12.219   6.474   7.302 -0.0515 -0.0310  0.1369
 1126YOPC   C4A15666  11.945   6.820   7.502  0.1293  0.4548  0.2349
 1126YOPC   C1B15667  11.979   6.220   6.496 -0.3187  0.1726 -0.1391
 1126YOPC   C2B15668  11.905   6.222   6.959  0.1112  0.0612  0.0826
 1126YOPC   D3B15669  11.784   5.943   7.260  0.2955 -0.2551 -0.0731
 1126YOPC   C4B15670  11.838   5.646   7.646  0.0005  0.0862  0.0488
 1127YOPC   NC315671  15.219  17.800   5.935  0.3600  0.3454  0.1865
 1127YOPC   PO415672  15.703  17.689   5.890  0.0373 -0.3112  0.0505
 1127YOPC   GL115673  15.556  17.703   6.336  0.0230  0.3398 -0.1110
 1127YOPC   GL215674  15.746  17.996   6.485  0.1366 -0.0863 -0.0263
 1127YOPC   C1A15675  15.375  17.440   6.649  0.0565  0.3076  0.1732
 1127YOPC   D2A15676  15.237  17.198   7.042 -0.0213 -0.1579 -0.4186
 1127YOPC   C3A15677  15.374  17.246   7.548 -0.0414  0.0829 -0.1036
 1127YOPC   C4A15678  15.525  17.222   7.856 -0.0138 -0.0601 -0.3114
 1127YOPC   C1B15679  15.631  17.754   6.892  0.1872  0.1206 -0.0092
 1127YOPC   C2B15680  15.512  17.585   7.284  0.1072 -0.2083  0.0083
 1127YOPC   D3B15681  15.520  17.865   7.532 -0.3751  0.1453 -0.0259
 1127YOPC   C4B15682  15.490  18.017   7.966  0.3299 -0.1499 -0.0097
 1128YOPC   NC315683   0.707  11.675   5.496  0.0518 -0.0180  0.0381
 1128YOPC   PO415684   0.680  11.562   5.883 -0.1658  0.1044  0.0296
 1128YOPC   GL115685   0.743  11.314   6.218 -0.0560 -0.0782  0.4666
 1128YOPC   GL215686   0.462  11.421   6.314  0.0141 -0.1931 -0.1158
 1128YOPC   C1A15687   1.050  11.349   6.493  0.1898  0.2217  0.1320
 1128YOPC   D2A15688   1.134  11.122   6.820 -0.0159  0.1339 -0.4532
 1128YOPC   C3A15689   0.969  11.385   7.201  0.0336  0.1963  0.1100
 1128YOPC   C4A15690   0.969  11.532   7.689 -0.3132  0.0768  0.5153
 1128YOPC   C1B15691   0.536  11.288   6.751 -0.1347 -0.0478  0.1759
 1128YOPC   C2B15692   0.432  11.170   7.179 -0.0218  0.3046  0.2623
 1128YOPC   D3B15693   0.740  11.114   7.540  0.0489  0.1495 -0.1575
 1128YOPC   C4B15694   0.614  10.913   7.877 -0.0208  0.0877 -0.0494
 1129YOPC   NC315695   3.970   0.981   5.679  0.0101 -0.0211 -0.0324
 1129YOPC   PO415696   4.027   1.173   6.062  0.0044  0.3782  0.2956
 1129YOPC   GL115697   4.267   1.339   6.354 -0.2756  0.0451 -0.1803
 1129YOPC   GL215698   4.209   1.588   6.548  0.0668 -0.1315 -0.1058
 1129YOPC   C1A15699   4.486   1.347   6.827 -0.0627 -0.0591  0.1067
 1129YOPC   D2A15700   4.325   1.185   7.226  0.1860  0.0647  0.0097
 1129YOPC   C3A15701   4.001   0.941   7.300 -0.2409  0.4137 -0.0491
 1129YOPC   C4A15702   3.662   0.804   7.582 -0.0749 -0.0035 -0.1389
 1129YOPC   C1B15703   4.028   1.405   6.895  0.2973  0.0938  0.0065
 1129YOPC   C2B15704   3.738   1.388   7.281  0.1426  0.3199  0.0534
 1129YOPC   D3B15705   3.828   1.351   7.720  0.0941 -0.0677  0.1853
 1129YOPC   C4B15706   3.645   1.062   8.068  0.0999  0.1731  0.2136
 1130YOPC   NC315707   3.926  12.818   5.771  0.0690  0.4103 -0.0627
 1130YOPC   PO415708   4.305  12.815   5.926  0.0506 -0.1362  0.0029
 1130YOPC   GL115709   4.107  12.711   6.271  0.4612  0.1263  0.0713
 1130YOPC   GL215710   4.463  12.773   6.462 -0.1796 -0.2647 -0.2244
 1130YOPC   C1A15711   4.039  12.610   6.711  0.0118 -0.0235  0.1098
 1130YOPC   D2A15712   4.074  12.331   7.053 -0.0523  0.2927 -0.0180
 1130YOPC   C3A15713   3.987  12.456   7.523 -0.2350 -0.2118 -0.0463
 1130YOPC   C4A15714   3.829  12.582   7.888 -0.3170  0.1988  0.1454
 1130YOPC   C1B15715   4.534  12.624   6.870  0.0010 -0.2047 -0.1183
 1130YOPC   C2B15716   4.440  12.539   7.296 -0.2430  0.0654 -0.2328
 1130YOPC   D3B15717   4.669  12.315   7.499  0.1330 -0.0960 -0.0575
 1130YOPC   C4B15718   4.996  11.981   7.589 -0.0914 -0.0344  0.3302
 1131YOPC   NC315719   1.563   3.356   5.818  0.1543 -0.1716  0.1164
 1131YOPC   PO415720   1.816   3.722   5.947  0.1312  0.3950 -0.1411
 1131YOPC   GL115721   1.696   3.702   6.321 -0.0230 -0.0204 -0.2900
 1131YOPC   GL215722   1.556   4.035   6.474  0.1564 -0.2091  0.0458
 1131YOPC   C1A15723   1.489   3.580   6.739 -0.0759  0.2400 -0.1320
 1131YOPC   D2A15724   1.663   3.689   7.199 -0.0627  0.0999  0.0608
 1131YOPC   C3A15725   1.269   3.677   7.474 -0.0612 -0.0516  0.0128
 1131YOPC   C4A15726   0.928   3.905   7.567 -0.0362  0.0011 -0.0876
 1131YOPC   C1B15727   1.422   4.101   6.941  0.1025  0.0276 -0.0692
 1131YOPC   C2B15728   1.069   4.114   7.141  0.2575  0.0648 -0.2259
 1131YOPC   D3B15729   0.782   3.768   7.096 -0.3507  0.0809 -0.0366
 1131YOPC   C4B15730   0.449   3.477   7.041  0.1794  0.1216 -0.0098
 1132YOPC   NC315731   7.538   6.952   5.429 -0.1691  0.0106  0.3929
 1132YOPC   PO415732   7.171   7.034   5.605  0.0393  0.0878  0.0670
 1132YOPC   GL115733   7.287   6.901   5.950 -0.0541 -0.1573  0.0644
 1132YOPC   GL215734   7.000   7.072   6.207  0.0727 -0.2844  0.0568
 1132YOPC   C1A15735   7.587   6.946   6.177 -0.0100 -0.2156 -0.1873
 1132YOPC   D2A15736   7.618   7.151   6.575 -0.1586 -0.3006  0.0837
 1132YOPC   C3A15737   7.962   7.195   6.930 -0.0851  0.2512  0.0274
 1132YOPC   C4A15738   8.160   7.106   7.427 -0.0597  0.0545  0.1542
 1132YOPC   C1B15739   7.086   6.825   6.535 -0.1827 -0.1418  0.1572
 1132YOPC   C2B15740   7.221   6.777   6.946  0.2249 -0.0472 -0.0371
 1132YOPC   D3B15741   7.608   6.778   6.911 -0.1546  0.0926 -0.1205
 1132YOPC   C4B15742   8.019   6.694   7.238 -0.1984  0.0623 -0.2068
 1133YOPC   NC315743   8.765   6.605   5.436  0.1605  0.2106 -0.1153
 1133YOPC   PO415744   8.906   6.365   5.814  0.0893 -0.0350  0.0621
 1133YOPC   GL115745   8.882   6.479   6.147 -0.0698  0.4734  0.2034
 1133YOPC   GL215746   9.116   6.577   6.295  0.2350  0.1421  0.0063
 1133YOPC   C1A15747   8.743   6.223   6.449  0.1505  0.1458 -0.0167
 1133YOPC   D2A15748   8.320   6.164   6.524 -0.1757 -0.2771  0.1172
 1133YOPC   C3A15749   8.271   6.180   7.045 -0.2787  0.1510 -0.1672
 1133YOPC   C4A15750   8.135   6.146   7.553  0.4375  0.0954  0.0872
 1133YOPC   C1B15751   8.983   6.594   6.717  0.0508 -0.0634  0.2413
 1133YOPC   C2B15752   8.951   6.868   6.988 -0.0601  0.0270 -0.0431
 1133YOPC   D3B15753   9.054   6.840   7.381  0.2212  0.2642 -0.3112
 1133YOPC   C4B15754   9.051   6.626   7.606 -0.0752  0.4365  0.1783
 1134YOPC   NC315755  11.447   8.672   5.236  0.1834  0.0250  0.1402
 1134YOPC   PO415756  11.871   8.777   5.318  0.1739 -0.1692 -0.0199
 1134YOPC   GL115757  12.162   8.525   5.532 -0.0754 -0.0278 -0.0294
 1134YOPC   GL215758  12.079   8.184   5.864 -0.2432  0.1057 -0.0536
 1134YOPC   C1A15759  12.417   8.596   5.905 -0.4067  0.3503 -0.1198
 1134YOPC   D2A15760  12.769   8.590   6.133  0.2905  0.0192  0.0448
 1134YOPC   C3A15761  12.602   8.473   6.539 -0.2644  0.1933 -0.4145
 1134YOPC   C4A15762  12.521   8.337   6.837 -0.2167 -0.3141  0.0008
 1134YOPC   C1B15763  11.746   8.405   5.835  0.1672  0.4557  0.0678
 1134YOPC   C2B15764  11.276   8.477   5.807 -0.0673  0.0594  0.2242
 1134YOPC   D3B15765  11.076   8.655   6.143 -0.0362 -0.1274 -0.1226
 1134YOPC   C4B15766  10.822   8.647   6.573  0.3044  0.2091 -0.0803
 1135YOPC   NC315767  11.149  14.206   6.238 -0.2009 -0.2315 -0.1984
 1135YOPC   PO415768  11.110  13.730   6.087  0.2914 -0.2097  0.3261
 1135YOPC   GL115769  10.980  13.669   6.540  0.0167  0.3227 -0.1556
 1135YOPC   GL215770  11.182  13.923   6.649 -0.0391 -0.0132  0.1199
 1135YOPC   C1A15771  10.911  13.733   7.000  0.2320  0.4556 -0.0839
 1135YOPC   D2A15772  10.733  13.861   7.338  0.0747 -0.0421 -0.0161
 1135YOPC   C3A15773  10.697  14.147   7.748 -0.1185  0.1276 -0.2605
 1135YOPC   C4A15774  10.691  14.104   8.210 -0.0843 -0.0446 -0.1574
 1135YOPC   C1B15775  11.367  13.847   7.021  0.3129 -0.1387 -0.1346
 1135YOPC   C2B15776  11.290  13.683   7.366  0.5135  0.4306 -0.1070
 1135YOPC   D3B15777  11.021  13.476   7.545  0.0290  0.3321 -0.3804
 1135YOPC   C4B15778  10.701  13.565   7.724  0.4211  0.0921  0.1346
 1136YOPC   NC315779  17.620   0.140   6.039 -0.3392  0.1584 -0.2189
 1136YOPC   PO415780  17.892   0.370   6.370  0.0012  0.1230 -0.0642
 1136YOPC   GL115781  17.683   0.199   6.721  0.1995  0.1259  0.4019
 1136YOPC   GL215782  17.848  -0.115   6.870 -0.0119 -0.2930 -0.1157
 1136YOPC   C1A15783  17.520   0.329   7.174 -0.0514 -0.1844  0.0468
 1136YOPC   D2A15784  17.510   0.365   7.594  0.0720  0.0969  0.1344
 1136YOPC   C3A15785  17.363   0.665   7.934 -0.1072 -0.1053  0.0875
 1136YOPC   C4A15786  17.619   0.811   8.244  0.1476  0.0299 -0.0560
 1136YOPC   C1B15787  17.743  -0.112   7.326 -0.2490 -0.1980 -0.0365
 1136YOPC   C2B15788  17.821  -0.081   7.766  0.1885  0.1140 -0.1022
 1136YOPC   D3B15789  18.012  -0.072   8.078  0.0279  0.0301  0.0546
 1136YOPC   C4B15790  18.374  -0.343   8.134 -0.1152 -0.0097 -0.5672
 1137YOPC   NC315791   5.805  13.081   5.576  0.0111 -0.3383 -0.2430
 1137YOPC   PO415792   6.106  13.484   5.805 -0.0246  0.4523 -0.0443
 1137YOPC   GL115793   5.978  13.461   6.224 -0.1527  0.3498 -0.0189
 1137YOPC   GL215794   6.161  13.817   6.290  0.0820  0.1390  0.3165
 1137YOPC   C1A15795   5.707  13.322   6.547  0.0151 -0.0101  0.0544
 1137YOPC   D2A15796   5.686  13.070   6.830  0.1595 -0.2219 -0.0568
 1137YOPC   C3A15797   5.446  12.841   6.699  0.1549  0.0907 -0.1641
 1137YOPC   C4A15798   5.329  12.494   6.596  0.2339 -0.2133  0.0062
 1137YOPC   C1B15799   5.774  13.848   6.592  0.2238 -0.0908 -0.0901
 1137YOPC   C2B15800   5.356  13.773   6.769  0.3454 -0.0313  0.1354
 1137YOPC   D3B15801   5.156  13.902   7.104 -0.3852  0.2531 -0.0153
 1137YOPC   C4B15802   5.097  14.311   7.168 -0.0219 -0.1622  0.1710
 1138YOPC   NC315803   8.852   2.881   5.602  0.4827  0.3629 -0.0393
 1138YOPC   PO415804   8.511   3.012   5.911  0.2478  0.0112  0.4105
 1138YOPC   GL115805   8.498   3.312   6.267 -0.0347 -0.1394 -0.4171
 1138YOPC   GL215806   8.357   3.268   6.524  0.1079  0.0167  0.1952
 1138YOPC   C1A15807   8.790   3.408   6.636  0.0263 -0.3348  0.1083
 1138YOPC   D2A15808   9.062   3.056   6.854  0.0353  0.1064 -0.0134
 1138YOPC   C3A15809   9.177   3.346   7.192 -0.1105  0.0804 -0.2848
 1138YOPC   C4A15810   9.454   3.270   7.434 -0.1595  0.0318 -0.0047
 1138YOPC   C1B15811   8.043   3.067   6.729  0.0198  0.1817  0.1176
 1138YOPC   C2B15812   8.107   2.851   7.055 -0.0029  0.0208 -0.0177
 1138YOPC   D3B15813   7.993   3.031   7.537 -0.2363 -0.1228 -0.0718
 1138YOPC   C4B15814   8.017   3.111   7.901  0.1948  0.1083 -0.0953
 1139YOPC   NC315815   7.128   4.198   5.896 -0.0233 -0.0956  0.1202
 1139YOPC   PO415816   7.521   4.176   5.835  0.3591 -0.1986  0.0373
 1139YOPC   GL115817   7.702   4.199   6.205 -0.1412 -0.1464 -0.1476
 1139YOPC   GL215818   7.793   3.894   6.313  0.0107 -0.1857 -0.3509
 1139YOPC   C1A15819   7.828   4.478   6.567 -0.1558 -0.1038 -0.2668
 1139YOPC   D2A15820   7.963   4.828   6.974  0.0039  0.2145  0.0601
 1139YOPC   C3A15821   8.348   4.998   6.985 -0.2379  0.1188 -0.1125
 1139YOPC   C4A15822   8.608   4.954   7.358 -0.3946 -0.0239 -0.0557
 1139YOPC   C1B15823   7.713   4.029   6.744  0.0423 -0.0510  0.3069
 1139YOPC   C2B15824   7.443   4.283   6.866 -0.1507 -0.1553  0.3034
 1139YOPC   D3B15825   7.561   4.575   7.112 -0.0155 -0.0532 -0.0173
 1139YOPC   C4B15826   7.638   4.863   7.392  0.1119 -0.0265  0.2732
 1140YOPC   NC315827   6.991  15.978   5.552 -0.3550 -0.2063 -0.0951
 1140YOPC   PO415828   7.478  16.014   5.609 -0.0248  0.3332 -0.0058
 1140YOPC   GL115829   7.524  16.328   5.956  0.2819  0.0593  0.0027
 1140YOPC   GL215830   7.842  16.524   5.934 -0.2227 -0.0527  0.2306
 1140YOPC   C1A15831   7.345  16.495   6.292  0.0976  0.1133  0.1527
 1140YOPC   D2A15832   6.925  16.655   6.423 -0.1831 -0.1531  0.1506
 1140YOPC   C3A15833   6.806  16.764   6.877  0.2536 -0.1658 -0.3207
 1140YOPC   C4A15834   6.774  16.615   7.308  0.0913  0.1838  0.0606
 1140YOPC   C1B15835   8.195  16.450   6.258 -0.0868  0.0175 -0.0962
 1140YOPC   C2B15836   8.501  16.256   6.431  0.2768 -0.0276  0.1327
 1140YOPC   D3B15837   8.989  16.178   6.384 -0.1434 -0.1011 -0.2079
 1140YOPC   C4B15838   9.276  15.936   6.517 -0.2659 -0.0461 -0.1569
 1141YOPC   NC315839   2.092   8.988   5.198 -0.2071 -0.3577 -0.0648
 1141YOPC   PO415840   2.242   8.922   5.556  0.0945  0.2005  0.2899
 1141YOPC   GL115841   2.234   8.837   5.997 -0.1465  0.0026 -0.2306
 1141YOPC   GL215842   2.498   8.972   6.012  0.2602  0.0564 -0.1434
 1141YOPC   C1A15843   1.898   8.902   6.283  0.0956 -0.2312  0.2547
 1141YOPC   D2A15844   1.680   9.185   6.477 -0.1901 -0.1786 -0.1987
 1141YOPC   C3A15845   1.840   9.535   6.551 -0.1235 -0.1683  0.1117
 1141YOPC   C4A15846   1.726   9.927   6.726 -0.1726 -0.3518 -0.0512
 1141YOPC   C1B15847   2.881   9.160   6.313 -0.0309 -0.1150 -0.0634
 1141YOPC   C2B15848   2.943   9.477   6.630  0.1815  0.0676 -0.2113
 1141YOPC   D3B15849   3.041   9.302   7.042  0.0669  0.0302 -0.2543
 1141YOPC   C4B15850   2.849   9.022   7.310 -0.0089 -0.1127  0.2780
 1142YOPC   NC315851   4.186  17.885   6.185 -0.2615  0.0260 -0.0267
 1142YOPC   PO415852   4.548  18.009   6.284  0.1905 -0.0248 -0.2171
 1142YOPC   GL115853   4.333  18.027   6.673 -0.4379 -0.2903  0.0539
 1142YOPC   GL215854   3.999  18.143   6.670  0.2574  0.1423  0.2677
 1142YOPC   C1A15855   4.007  17.719   6.949  0.1571 -0.0276 -0.0867
 1142YOPC   D2A15856   3.829  17.466   7.101  0.1499 -0.1170  0.1002
 1142YOPC   C3A15857   3.821  17.415   7.515  0.0865  0.2581  0.3659
 1142YOPC   C4A15858   4.045  17.565   7.840  0.0323  0.1301  0.1410
 1142YOPC   C1B15859   3.856  18.310   7.030 -0.0352 -0.0045 -0.1311
 1142YOPC   C2B15860   3.787  18.374   7.462  0.1793  0.0104  0.1799
 1142YOPC   D3B15861   3.537  18.525   7.805  0.1053 -0.1505  0.0571
 1142YOPC   C4B15862   3.364  18.831   8.122 -0.0254  0.1487  0.1860
 1143ERGO   ROH15863   1.919  14.312   6.623 -0.1252  0.3699 -0.0342
 1143ERGO    R115864   2.056  14.195   6.841 -0.2477  0.2309 -0.0310
 1143ERGO    R215865   2.298  14.292   6.934 -0.1839  0.0239  0.0116
 1143ERGO    R315866   2.166  14.301   7.172 -0.2042  0.0985 -0.0010
 1143ERGO    R415867   2.450  14.312   7.244 -0.1913 -0.1585  0.0287
 1143ERGO    R515868   2.302  14.171   7.320 -0.3259 -0.0480 -0.0091
 1143ERGO    C115869   2.414  14.332   7.648 -0.2147 -0.1947  0.0268
 1143ERGO    C215870   2.680  14.560   7.839  0.1492  0.0264  0.0990
 1144ERGO   ROH15871  16.893  10.122   6.184  0.0956 -0.2563 -0.2344
 1144ERGO    R115872  16.850  10.062   6.457  0.0944 -0.0942 -0.1980
 1144ERGO    R215873  16.865   9.804   6.557 -0.0351 -0.0521 -0.0697
 1144ERGO    R315874  17.043   9.916   6.730  0.0466 -0.0620 -0.1465
 1144ERGO    R415875  16.939   9.682   6.872  0.1443 -0.0966 -0.1279
 1144ERGO    R515876  16.943   9.887   6.945  0.1632 -0.1069 -0.0969
 1144ERGO    C115877  17.149   9.715   7.217  0.3255 -0.1319 -0.2339
 1144ERGO    C215878  17.211   9.527   7.493  0.1790  0.2535 -0.0648
 1145ERGO   ROH15879  10.106  13.844   6.269  0.1927 -0.0150 -0.0016
 1145ERGO    R115880   9.919  13.795   6.476  0.2069 -0.1812 -0.0261
 1145ERGO    R215881   9.995  13.713   6.729  0.2665  0.0685  0.0420
 1145ERGO    R315882   9.851  13.929   6.808 -0.0808 -0.0968 -0.1165
 1145ERGO    R415883   9.856  13.754   7.042  0.2106  0.0820  0.0153
 1145ERGO    R515884   9.679  13.839   6.948  0.0663 -0.2699 -0.0444
 1145ERGO    C115885   9.640  13.982   7.299 -0.1479 -0.0653 -0.1491
 1145ERGO    C215886   9.581  13.950   7.685  0.4782 -0.0469  0.1074
 1146ERGO   ROH15887   7.361  11.227   9.592  0.0674  0.0705 -0.0400
 1146ERGO    R115888   7.207  11.228   9.355  0.0426  0.0922 -0.0239
 1146ERGO    R215889   7.130  11.462   9.229  0.1262  0.1032 -0.0573
 1146ERGO    R315890   7.249  11.347   9.013  0.0568  0.0145 -0.0490
 1146ERGO    R415891   6.976  11.403   8.925  0.0687  0.0941 -0.0266
 1146ERGO    R515892   7.078  11.211   8.915 -0.0031  0.0561  0.0002
 1146ERGO    C115893   6.998  11.262   8.546 -0.0299  0.0056 -0.0009
 1146ERGO    C215894   7.093  11.456   8.147 -0.0022  0.2305  0.1290
 1147ERGO   ROH15895  17.737  15.458   6.575  0.1673 -0.1016  0.0146
 1147ERGO    R115896  17.585  15.387   6.803  0.0774 -0.0930 -0.0406
 1147ERGO    R215897  17.698  15.266   7.025 -0.0233 -0.1668 -0.0224
 1147ERGO    R315898  17.582  15.474   7.156  0.0042 -0.1491 -0.0286
 1147ERGO    R415899  17.606  15.263   7.358 -0.0230 -0.1361 -0.0230
 1147ERGO    R515900  17.425  15.371   7.304 -0.0054 -0.1180 -0.0236
 1147ERGO    C115901  17.444  15.456   7.676  0.0031 -0.1018 -0.0291
 1147ERGO    C215902  17.650  15.594   8.000 -0.0951 -0.0660 -0.2082
 1148ERGO   ROH15903   0.656   5.688   7.692 -0.0183  0.1043  0.0292
 1148ERGO    R115904   0.632   5.919   7.854  0.0897  0.1101  0.0373
 1148ERGO    R215905   0.832   6.110   7.871  0.1033  0.1108 -0.1020
 1148ERGO    R315906   0.631   6.279   7.801  0.0560  0.1077  0.0241
 1148ERGO    R415907   0.850   6.454   7.889  0.0908  0.1102 -0.0756
 1148ERGO    R515908   0.644   6.456   7.962  0.1312  0.0912  0.0348
 1148ERGO    C115909   0.672   6.814   7.833  0.0391  0.1069  0.0582
 1148ERGO    C215910   0.828   6.995   7.775  0.3903 -0.0926 -0.2389
 1149ERGO   ROH15911  14.699   3.951   6.373  0.1237 -0.1462  0.0289
 1149ERGO    R115912  14.701   4.004   6.652  0.0540  0.0461 -0.0053
 1149ERGO    R215913  14.838   3.845   6.832 -0.1425  0.0605  0.1603
 1149ERGO    R315914  14.951   4.081   6.904  0.0167  0.0229  0.0389
 1149ERGO    R415915  14.960   3.918   7.147 -0.0130  0.1125  0.0991
 1149ERGO    R515916  14.876   4.118   7.128  0.0994  0.1548  0.0458
 1149ERGO    C115917  15.137   4.183   7.398  0.2117  0.1075 -0.0504
 1149ERGO    C215918  15.503   4.407   7.674 -0.0055  0.0539 -0.1979
 1150ERGO   ROH15919  13.291  10.612   9.763  0.2061 -0.0419  0.0287
 1150ERGO    R115920  13.424  10.694   9.527  0.0913  0.1660  0.0322
 1150ERGO    R215921  13.559  10.517   9.362  0.3448  0.3613  0.0113
 1150ERGO    R315922  13.398  10.624   9.171  0.1831  0.1531  0.0301
 1150ERGO    R415923  13.624  10.510   9.023  0.2613  0.3774 -0.0040
 1150ERGO    R515924  13.550  10.715   9.009  0.0381  0.2893 -0.0236
 1150ERGO    C115925  13.511  10.606   8.646  0.0608  0.1913  0.0049
 1150ERGO    C215926  13.487  10.458   8.366  0.0328 -0.0321  0.0192
 1151ERGO   ROH15927  13.006   9.107   6.291  0.0943  0.2900  0.1832
 1151ERGO    R115928  12.920   8.909   6.474 -0.0832  0.1932 -0.0011
 1151ERGO    R215929  13.052   8.858   6.711 -0.2043 -0.0566  0.0151
 1151ERGO    R315930  12.806   8.900   6.820 -0.2270 -0.0126 -0.0515
 1151ERGO    R415931  12.978   8.831   7.048 -0.2803  0.0484  0.0077
 1151ERGO    R515932  12.790   8.736   6.994 -0.2729  0.0401 -0.0051
 1151ERGO    C115933  12.704   8.855   7.346 -0.3462  0.1508 -0.0591
 1151ERGO    C215934  12.497   8.903   7.597 -0.1052  0.0020  0.3322
 1152ERGO   ROH15935   9.369  16.630   6.503 -0.1876 -0.2250 -0.0075
 1152ERGO    R115936   9.412  16.435   6.704  0.0116 -0.1842 -0.0073
 1152ERGO    R215937   9.615  16.456   6.891 -0.0374  0.0505  0.0261
 1152ERGO    R315938   9.411  16.427   7.068 -0.0351 -0.1951 -0.0081
 1152ERGO    R415939   9.653  16.411   7.231 -0.0395  0.4736  0.0866
 1152ERGO    R515940   9.491  16.266   7.226  0.2582  0.1244  0.1806
 1152ERGO    C115941   9.484  16.358   7.596 -0.0387  0.4894  0.0899
 1152ERGO    C215942   9.310  16.289   7.933  0.3882  0.4872 -0.1934
 1153ERGO   ROH15943   0.470   8.954   6.081 -0.0486  0.2040 -0.0648
 1153ERGO    R115944   0.537   9.066   6.332  0.0041  0.1583 -0.0575
 1153ERGO    R215945   0.350   9.188   6.494  0.0472  0.1780 -0.0190
 1153ERGO    R315946   0.442   9.012   6.679  0.0314  0.1330 -0.0547
 1153ERGO    R415947   0.323   9.228   6.837 -0.0087  0.0752 -0.0113
 1153ERGO    R515948   0.525   9.149   6.857 -0.0077  0.0862 -0.0020
 1153ERGO    C115949   0.395   9.085   7.209 -0.0560 -0.0268 -0.0404
 1153ERGO    C215950   0.302   9.240   7.485  0.1135  0.0169  0.1509
 1154ERGO   ROH15951  12.251   8.410   9.279 -0.0680 -0.1586 -0.0670
 1154ERGO    R115952  12.175   8.365   9.010 -0.0865 -0.1279 -0.0675
 1154ERGO    R215953  12.229   8.545   8.808 -0.1660 -0.0694 -0.0400
 1154ERGO    R315954  12.346   8.329   8.690 -0.1134 -0.0110 -0.0944
 1154ERGO    R415955  12.205   8.465   8.472 -0.2785 -0.0807 -0.0291
 1154ERGO    R515956  12.185   8.256   8.529 -0.1495 -0.0894 -0.0215
 1154ERGO    C115957  12.300   8.216   8.167 -0.2945 -0.0325 -0.0739
 1154ERGO    C215958  12.251   8.206   7.805  0.3635  0.1356  0.1136
 1155ERGO   ROH15959   6.620  17.695   6.841  0.0069 -0.0255  0.0240
 1155ERGO    R115960   6.651  17.685   7.122  0.0453 -0.0590  0.0186
 1155ERGO    R215961   6.687  17.913   7.275  0.0531 -0.0768  0.0417
 1155ERGO    R315962   6.474  17.815   7.412  0.0773 -0.1054  0.0595
 1155ERGO    R415963   6.638  17.947   7.616 -0.0031  0.0599  0.0203
 1155ERGO    R515964   6.565  17.742   7.621  0.0838  0.0298  0.1055
 1155ERGO    C115965   6.408  17.876   7.942 -0.0131  0.1125  0.0245
 1155ERGO    C215966   6.241  18.010   8.259  0.1419  0.0214 -0.0840
 1156ERGO   ROH15967   2.935   6.295   6.444  0.0146 -0.0529 -0.0917
 1156ERGO    R115968   3.035   6.397   6.689 -0.1005  0.0009 -0.0667
 1156ERGO    R215969   2.879   6.419   6.916 -0.1526 -0.1384 -0.0915
 1156ERGO    R315970   3.079   6.273   7.028 -0.0588  0.0038 -0.0702
 1156ERGO    R415971   2.984   6.447   7.244 -0.2207 -0.0683 -0.0751
 1156ERGO    R515972   3.190   6.427   7.174 -0.1921  0.0852 -0.0495
 1156ERGO    C115973   3.233   6.327   7.540 -0.1722  0.1060 -0.0455
 1156ERGO    C215974   3.263   6.029   7.858 -0.1283 -0.0634  0.0317
 1157ERGO   ROH15975  11.508   9.002   5.674  0.1123  0.0124  0.0402
 1157ERGO    R115976  11.448   8.938   5.943  0.1374 -0.1319  0.0126
 1157ERGO    R215977  11.633   8.963   6.147  0.1070 -0.0793  0.0372
 1157ERGO    R315978  11.438   9.114   6.262 -0.0084 -0.2575  0.0783
 1157ERGO    R415979  11.624   9.053   6.480  0.0975 -0.0803  0.0366
 1157ERGO    R515980  11.409   9.017   6.479  0.1299 -0.2802  0.0862
 1157ERGO    C115981  11.437   9.247   6.782 -0.0164 -0.2481  0.0749
 1157ERGO    C215982  11.462   9.291   7.073 -0.1376  0.2547 -0.1624
 1158ERGO   ROH15983  17.459  14.909  10.589 -0.1079  0.0421 -0.0235
 1158ERGO    R115984  17.337  14.965  10.340 -0.0066  0.2049 -0.0371
 1158ERGO    R215985  17.450  15.135  10.155  0.2364  0.0633 -0.0166
 1158ERGO    R315986  17.422  14.922   9.989 -0.0203  0.1029 -0.0299
 1158ERGO    R415987  17.415  15.157   9.811  0.3225  0.1354 -0.0217
 1158ERGO    R515988  17.266  14.997   9.822  0.1013  0.3261 -0.0531
 1158ERGO    C115989  17.369  14.968   9.456  0.1316  0.2146 -0.0373
 1158ERGO    C215990  17.378  14.970   9.148 -0.1529  0.3534 -0.2943
 1159ERGO   ROH15991  12.907  12.114   6.490 -0.0441 -0.0356 -0.0633
 1159ERGO    R115992  13.029  11.938   6.675 -0.1946 -0.1298 -0.0511
 1159ERGO    R215993  13.174  12.028   6.893  0.0774 -0.2341 -0.1837
 1159ERGO    R315994  13.003  11.869   7.031 -0.0836  0.0913  0.0023
 1159ERGO    R415995  13.233  11.904   7.210  0.1702 -0.3016 -0.2275
 1159ERGO    R515996  13.146  11.715   7.146 -0.2426 -0.1579 -0.1233
 1159ERGO    C115997  13.107  11.683   7.524  0.0729 -0.0355 -0.0784
 1159ERGO    C215998  13.220  11.636   7.733 -0.4082 -0.2481 -0.0415
 1160ERGO   ROH15999  10.176  11.271   6.137  0.0846  0.2500  0.0342
 1160ERGO    R116000  10.304  11.350   6.378 -0.1599  0.1121  0.2134
 1160ERGO    R216001  10.208  11.280   6.627 -0.1231 -0.4986  0.0717
 1160ERGO    R316002  10.459  11.183   6.661  0.0676 -0.0596 -0.0068
 1160ERGO    R416003  10.371  11.256   6.931 -0.0594 -0.3906  0.0472
 1160ERGO    R516004  10.554  11.321   6.832 -0.1767  0.0131  0.0757
 1160ERGO    C116005  10.703  11.150   7.139  0.1567  0.0845 -0.0407
 1160ERGO    C216006  10.823  11.092   7.446  0.1547 -0.1783  0.2019
 1161ERGO   ROH16007   9.359  14.766   6.228 -0.0523 -0.2906 -0.1667
 1161ERGO    R116008   9.341  14.644   6.483  0.0751 -0.2333 -0.1294
 1161ERGO    R216009   9.160  14.727   6.675  0.2458 -0.1186 -0.0170
 1161ERGO    R316010   9.087  14.466   6.673  0.1306 -0.0885  0.0858
 1161ERGO    R416011   8.928  14.586   6.888  0.2104  0.0603  0.0658
 1161ERGO    R516012   9.056  14.410   6.904  0.1368  0.0081  0.1111
 1161ERGO    C116013   8.723  14.257   7.010  0.0817  0.1927  0.2104
 1161ERGO    C216014   8.390  14.083   7.200  0.1779  0.1660  0.0528
 1162ERGO   ROH16015   2.163   4.166   6.488 -0.0100  0.4046  0.1213
 1162ERGO    R116016   1.981   4.146   6.704 -0.0444  0.3897  0.0905
 1162ERGO    R216017   2.025   3.978   6.920 -0.1508  0.2666  0.0134
 1162ERGO    R316018   1.990   4.206   7.063 -0.0574  0.2142  0.1221
 1162ERGO    R416019   2.028   3.998   7.264 -0.1144  0.1006  0.0237
 1162ERGO    R516020   1.862   4.139   7.253 -0.0677  0.1676  0.1018
 1162ERGO    C116021   1.997   4.223   7.600 -0.0056 -0.0451  0.1319
 1162ERGO    C216022   1.899   4.322   7.880  0.2402  0.0638  0.1676
 1163ERGO   ROH16023  17.987  16.496   6.681 -0.2085 -0.0900 -0.0545
 1163ERGO    R116024  17.899  16.563   6.942  0.0669  0.2047 -0.0331
 1163ERGO    R216025  17.851  16.373   7.137 -0.3868  0.3592  0.0115
 1163ERGO    R316026  18.024  16.525   7.281  0.0953 -0.0787 -0.0712
 1163ERGO    R416027  17.911  16.336   7.475 -0.5078  0.3492  0.0332
 1163ERGO    R516028  17.915  16.553   7.493  0.1613  0.3715 -0.0832
 1163ERGO    C116029  18.107  16.457   7.808 -0.1257 -0.0676 -0.0319
 1163ERGO    C216030  17.899  16.423   8.122 -0.1784  0.1801  0.1101
 1164ERGO   ROH16031  16.620   5.721   9.819  0.0190  0.0257  0.0582
 1164ERGO    R116032  16.729   5.672   9.563  0.1133 -0.0590  0.1140
 1164ERGO    R216033  16.703   5.429   9.434 -0.1287  0.0025  0.0457
 1164ERGO    R316034  16.601   5.583   9.234  0.1947  0.1839  0.0135
 1164ERGO    R416035  16.743   5.366   9.096 -0.1155 -0.0606  0.0588
 1164ERGO    R516036  16.771   5.580   9.065  0.2559 -0.0976  0.0721
 1164ERGO    C116037  16.671   5.474   8.712  0.1960  0.0730  0.0362
 1164ERGO    C216038  16.680   5.348   8.409 -0.4657  0.0789  0.0149
 1165ERGO   ROH16039   6.791   7.038   9.357  0.2811  0.0484 -0.0601
 1165ERGO    R116040   6.750   6.930   9.098  0.0895  0.0498 -0.0307
 1165ERGO    R216041   6.566   7.035   8.920  0.1051  0.1773  0.0325
 1165ERGO    R316042   6.782   7.045   8.755  0.0474 -0.0198 -0.0593
 1165ERGO    R416043   6.550   7.042   8.575 -0.0333  0.0308  0.0343
 1165ERGO    R516044   6.721   6.907   8.569 -0.1096 -0.0722  0.0261
 1165ERGO    C116045   6.742   7.057   8.219 -0.1679 -0.2395 -0.0509
 1165ERGO    C216046   6.844   7.127   7.948 -0.2624  0.1982  0.0848
 1166ERGO   ROH16047   6.663  16.184   6.435 -0.1661  0.0831  0.2095
 1166ERGO    R116048   6.845  16.133   6.646 -0.1977  0.0906  0.2382
 1166ERGO    R216049   7.092  16.255   6.662 -0.1149 -0.0663  0.1563
 1166ERGO    R316050   7.005  16.325   6.910 -0.0625  0.1477  0.1166
 1166ERGO    R416051   7.283  16.418   6.900 -0.0317  0.0492  0.0130
 1166ERGO    R516052   7.194  16.289   7.052 -0.0567  0.1903  0.1210
 1166ERGO    C116053   7.312  16.578   7.271  0.0659  0.3173 -0.1076
 1166ERGO    C216054   7.501  16.833   7.500 -0.2036 -0.2677  0.2770
 1167ERGO   ROH16055   5.992   6.434   9.579  0.1946 -0.0525  0.1047
 1167ERGO    R116056   6.070   6.354   9.318  0.0324 -0.1248  0.0762
 1167ERGO    R216057   5.902   6.215   9.149 -0.1549  0.0232  0.1319
 1167ERGO    R316058   5.960   6.419   8.978 -0.0312 -0.0257  0.1160
 1167ERGO    R416059   5.840   6.211   8.809  0.0287 -0.0417  0.0990
 1167ERGO    R516060   6.032   6.309   8.778  0.0590 -0.0803  0.1802
 1167ERGO    C116061   5.858   6.399   8.450  0.2517 -0.1255  0.0650
 1167ERGO    C216062   5.728   6.251   8.284  0.2030  0.0317  0.0586
 1168ERGO   ROH16063   9.932   1.390   6.778 -0.1538 -0.0061  0.0629
 1168ERGO    R116064   9.992   1.505   7.030 -0.0031 -0.1275  0.0843
 1168ERGO    R216065   9.824   1.685   7.156  0.2467  0.1094  0.0971
 1168ERGO    R316066   9.842   1.508   7.361 -0.0297  0.0461  0.0704
 1168ERGO    R416067   9.757   1.759   7.486  0.0509  0.0658  0.0686
 1168ERGO    R516068   9.929   1.637   7.543 -0.0779 -0.0638  0.1686
 1168ERGO    C116069   9.736   1.637   7.872 -0.3227 -0.0190  0.0269
 1168ERGO    C216070   9.562   1.708   8.187  0.0697  0.2310  0.0909
 1169ERGO   ROH16071   3.535  15.177   6.722 -0.0099  0.1027 -0.1297
 1169ERGO    R116072   3.353  15.099   6.925  0.0175  0.0072 -0.1405
 1169ERGO    R216073   3.391  14.873   7.080  0.1352  0.0331 -0.1249
 1169ERGO    R316074   3.366  15.049   7.285  0.0190  0.0309 -0.1381
 1169ERGO    R416075   3.349  14.786   7.412  0.0277  0.0354 -0.1382
 1169ERGO    R516076   3.205  14.948   7.431 -0.0128  0.0025 -0.1962
 1169ERGO    C116077   3.300  14.901   7.798 -0.1440  0.0347 -0.1584
 1169ERGO    C216078   3.495  14.788   8.083  0.2636  0.0335  0.2567
 1170ERGO   ROH16079  13.112   8.152   9.530 -0.2442  0.0567  0.1632
 1170ERGO    R116080  13.079   8.132   9.250 -0.1113  0.2121  0.1350
 1170ERGO    R216081  13.195   8.310   9.073  0.1385  0.1950  0.2765
 1170ERGO    R316082  13.296   8.083   8.961  0.0045  0.1574  0.2307
 1170ERGO    R416083  13.205   8.244   8.734 -0.1023  0.1572  0.2750
 1170ERGO    R516084  13.150   8.038   8.777 -0.1289  0.1770  0.3308
 1170ERGO    C116085  13.306   7.994   8.431 -0.3682  0.0999  0.2309
 1170ERGO    C216086  13.476   8.033   8.156  0.0945 -0.0256 -0.1829
 1171ERGO   ROH16087  13.723   9.127   5.837  0.0490 -0.1789 -0.2545
 1171ERGO    R116088  13.903   8.998   6.013  0.0129 -0.1303 -0.1816
 1171ERGO    R216089  14.053   9.135   6.200 -0.0445 -0.0813 -0.1700
 1171ERGO    R316090  13.938   8.960   6.374 -0.0778 -0.0541 -0.1647
 1171ERGO    R416091  14.189   9.041   6.503 -0.0726 -0.0836 -0.1584
 1171ERGO    R516092  14.123   8.837   6.464 -0.1006 -0.0757 -0.1489
 1171ERGO    C116093  14.160   8.822   6.843 -0.1201 -0.0594 -0.1466
 1171ERGO    C216094  14.290   8.801   7.135 -0.1140  0.0601 -0.4000
 1172ERGO   ROH16095   1.165   1.762   6.618  0.2333  0.1181 -0.0456
 1172ERGO    R116096   1.108   1.672   6.880  0.1521 -0.0023 -0.1039
 1172ERGO    R216097   1.281   1.710   7.092  0.0314  0.0106 -0.0079
 1172ERGO    R316098   1.063   1.823   7.208 -0.0812 -0.1397 -0.0697
 1172ERGO    R416099   1.234   1.741   7.433 -0.0173  0.1028 -0.0226
 1172ERGO    R516100   1.024   1.689   7.403  0.0287 -0.1007 -0.0182
 1172ERGO    C116101   1.002   1.865   7.741 -0.1515  0.0154 -0.0893
 1172ERGO    C216102   1.149   2.091   8.091  0.3654  0.1541 -0.3490
 1173ERGO   ROH16103   7.290  13.608   6.318 -0.3228 -0.2290  0.0619
 1173ERGO    R116104   7.298  13.800   6.526 -0.0083 -0.2461  0.0701
 1173ERGO    R216105   7.079  13.858   6.684  0.0884  0.0899  0.0892
 1173ERGO    R316106   7.250  13.801   6.887  0.0194 -0.1873  0.0736
 1173ERGO    R416107   7.015  13.917   7.018  0.1451  0.0303  0.1108
 1173ERGO    R516108   7.222  13.982   7.041  0.2212 -0.2139  0.1451
 1173ERGO    C116109   7.138  13.898   7.404  0.1133 -0.2647  0.1087
 1173ERGO    C216110   7.111  13.977   7.714  0.0382  0.0525  0.0477
 1174ERGO   ROH16111  15.059   6.272   9.654  0.1188 -0.1382 -0.0033
 1174ERGO    R116112  15.063   6.124   9.413  0.0416  0.0138 -0.0990
 1174ERGO    R216113  14.848   6.117   9.239  0.0196  0.1919 -0.0753
 1174ERGO    R316114  15.034   6.196   9.057  0.0192  0.2474 -0.0525
 1174ERGO    R416115  14.830   6.057   8.899  0.1399  0.0606 -0.0594
 1174ERGO    R516116  15.044   6.016   8.900  0.1709  0.1942  0.0117
 1174ERGO    C116117  14.994   6.096   8.531  0.2097  0.0362 -0.0289
 1174ERGO    C216118  15.042   5.896   8.193  0.2238 -0.0443  0.0656
 1175ERGO   ROH16119  12.243  12.919   6.487 -0.1008  0.2176  0.0410
 1175ERGO    R116120  12.253  12.914   6.769 -0.1017  0.0257  0.0383
 1175ERGO    R216121  12.225  12.681   6.915  0.1995 -0.1216 -0.1321
 1175ERGO    R316122  12.462  12.758   7.023  0.0995  0.1117 -0.0710
 1175ERGO    R416123  12.324  12.614   7.239  0.2277 -0.1287 -0.1419
 1175ERGO    R516124  12.408  12.815   7.249 -0.0022 -0.0321 -0.0558
 1175ERGO    C116125  12.605  12.648   7.530  0.1504  0.0863 -0.0901
 1175ERGO    C216126  12.639  12.438   7.845  0.1813  0.1592  0.0619
 1176ERGO   ROH16127  15.631   4.793   6.448  0.1343  0.0384 -0.0704
 1176ERGO    R116128  15.747   4.847   6.700  0.3222  0.1309 -0.1754
 1176ERGO    R216129  15.872   5.087   6.759  0.0021  0.3128 -0.2292
 1176ERGO    R316130  15.698   5.089   6.968  0.2181 -0.0428 -0.0345
 1176ERGO    R416131  15.911   5.274   7.047 -0.0762  0.4275 -0.2911
 1176ERGO    R516132  15.838   5.104   7.161  0.4097  0.2710 -0.1876
 1176ERGO    C116133  15.771   5.385   7.411  0.0810  0.1604 -0.1444
 1176ERGO    C216134  15.515   5.563   7.557 -0.1356 -0.3904 -0.3347
 1177ERGO   ROH16135  11.082  10.114   5.914  0.1315  0.0115 -0.0431
 1177ERGO    R116136  11.001  10.191   6.174  0.0823  0.1316 -0.0939
 1177ERGO    R216137  10.886  10.015   6.353  0.0127  0.2231 -0.0480
 1177ERGO    R316138  11.086  10.101   6.516 -0.0123  0.2594 -0.0358
 1177ERGO    R416139  10.848  10.088   6.688  0.0520 -0.1094  0.0325
 1177ERGO    R516140  10.980  10.260   6.660 -0.1124  0.0372  0.1419
 1177ERGO    C116141  11.014  10.211   7.037  0.0513 -0.2689  0.0907
 1177ERGO    C216142  11.130  10.093   7.326 -0.2429  0.0882  0.1702
 1178ERGO   ROH16143  10.227   0.307   6.562  0.5272  0.1019 -0.0570
 1178ERGO    R116144  10.271   0.372   6.834  0.1861  0.0137  0.0240
 1178ERGO    R216145  10.072   0.473   6.997 -0.0442 -0.1310 -0.1657
 1178ERGO    R316146  10.142   0.264   7.157 -0.1469 -0.1642 -0.1628
 1178ERGO    R416147  10.068   0.479   7.342 -0.0132 -0.1091 -0.1653
 1178ERGO    R516148  10.255   0.366   7.342 -0.0731 -0.2152 -0.1766
 1178ERGO    C116149  10.131   0.287   7.694 -0.0915 -0.1276 -0.1624
 1178ERGO    C216150  10.283   0.163   8.070 -0.1899 -0.3602 -0.0688
 1179ERGO   ROH16151  13.398   0.809   6.530  0.1334  0.2453 -0.0257
 1179ERGO    R116152  13.438   0.656   6.764  0.0167  0.1981 -0.0363
 1179ERGO    R216153  13.606   0.437   6.773 -0.0895  0.1158 -0.0311
 1179ERGO    R316154  13.718   0.571   6.981 -0.0630  0.0380  0.0054
 1179ERGO    R416155  13.811   0.294   7.012 -0.1833 -0.0032 -0.0206
 1179ERGO    R516156  13.710   0.415   7.163 -0.1540  0.0159 -0.0181
 1179ERGO    C116157  14.035   0.337   7.346 -0.2129 -0.1456  0.0198
 1179ERGO    C216158  14.148  -0.014   7.589 -0.1533  0.1406  0.3172
 1180ERGO   ROH16159   9.449   3.382   6.596  0.0450  0.0311  0.0090
 1180ERGO    R116160   9.595   3.504   6.806  0.0447 -0.0982  0.0844
 1180ERGO    R216161   9.581   3.774   6.860  0.2186 -0.0957  0.1065
 1180ERGO    R316162   9.518   3.688   7.110  0.0514 -0.0747  0.0729
 1180ERGO    R416163   9.685   3.925   7.153  0.1580 -0.1575  0.1606
 1180ERGO    R516164   9.716   3.727   7.238  0.0141 -0.1814  0.1694
 1180ERGO    C116165   9.686   3.932   7.558 -0.0343 -0.1737  0.1605
 1180ERGO    C216166   9.782   4.070   7.747  0.0927 -0.1287 -0.4132
 1181ERGO   ROH16167  14.857  17.484   6.718  0.0879  0.1976 -0.0394
 1181ERGO    R116168  14.878  17.613   6.969  0.1972  0.1875 -0.0423
 1181ERGO    R216169  14.785  17.499   7.203  0.0128  0.3097 -0.0526
 1181ERGO    R316170  15.038  17.546   7.288  0.0577  0.0070 -0.0086
 1181ERGO    R416171  14.873  17.575   7.528  0.0113  0.4724 -0.0896
 1181ERGO    R516172  15.016  17.721   7.450  0.2598  0.1923 -0.1741
 1181ERGO    C116173  15.163  17.664   7.797  0.0527  0.2826 -0.0698
 1181ERGO    C216174  15.269  17.612   8.126 -0.0596 -0.0799  0.2701
 1182ERGO   ROH16175  14.487  14.473   7.201  0.2657 -0.2140 -0.0373
 1182ERGO    R116176  14.588  14.347   7.434  0.4404  0.3611  0.2141
 1182ERGO    R216177  14.571  14.461   7.684 -0.5166  0.4663  0.1273
 1182ERGO    R316178  14.453  14.225   7.749  0.4011 -0.0654  0.0423
 1182ERGO    R416179  14.569  14.323   8.001 -0.7376  0.8689  0.3107
 1182ERGO    R516180  14.602  14.127   7.909  0.4779  0.8432  0.6068
 1182ERGO    C116181  14.458  14.021   8.246 -0.0047  0.6042  0.3378
 1182ERGO    C216182  14.186  13.977   8.472  0.0390  0.2141 -0.0180
 1183ERGO   ROH16183  13.529   9.637   9.460 -0.0618  0.1922  0.1780
 1183ERGO    R116184  13.666   9.613   9.213  0.0033  0.1976  0.2131
 1183ERGO    R216185  13.593   9.428   9.021  0.1030  0.1478  0.2212
 1183ERGO    R316186  13.583   9.648   8.861  0.0746  0.1225  0.1889
 1183ERGO    R416187  13.612   9.422   8.676  0.1250  0.1026  0.2234
 1183ERGO    R516188  13.738   9.600   8.685  0.0929  0.1249  0.2053
 1183ERGO    C116189  13.613   9.624   8.325  0.1111  0.0525  0.1943
 1183ERGO    C216190  13.541   9.660   8.025  0.0243 -0.0036  0.0055
 1184ERGO   ROH16191   1.134   7.764   9.575  0.1334 -0.2433 -0.0121
 1184ERGO    R116192   1.200   7.608   9.348  0.0564 -0.1981 -0.0663
 1184ERGO    R216193   1.013   7.532   9.159 -0.0000 -0.1261 -0.0387
 1184ERGO    R316194   1.189   7.648   8.987 -0.0260 -0.1098 -0.0545
 1184ERGO    R416195   1.025   7.471   8.819 -0.0538 -0.0936 -0.0465
 1184ERGO    R516196   1.242   7.473   8.831 -0.0511 -0.0957 -0.0799
 1184ERGO    C116197   1.196   7.544   8.459 -0.1095 -0.0594 -0.0659
 1184ERGO    C216198   1.186   7.484   8.109 -0.1609 -0.2119 -0.0716
 1185ERGO   ROH16199   1.643   7.150   6.322  0.1984  0.1064 -0.1082
 1185ERGO    R116200   1.780   7.208   6.563  0.2061  0.1935 -0.1322
 1185ERGO    R216201   1.835   7.466   6.644 -0.0201  0.2386 -0.0971
 1185ERGO    R316202   1.709   7.388   6.871  0.1083  0.0688 -0.0830
 1185ERGO    R416203   1.831   7.647   6.939 -0.1835  0.1980 -0.0746
 1185ERGO    R516204   1.855   7.459   7.048  0.0516  0.2171 -0.1000
 1185ERGO    C116205   1.709   7.678   7.324 -0.1583  0.0149 -0.0482
 1185ERGO    C216206   1.612   7.886   7.664  0.0231 -0.0698 -0.3326
 1186ERGO   ROH16207  12.159  11.877  10.093  0.0889  0.1566  0.1156
 1186ERGO    R116208  11.988  11.856   9.868  0.0280  0.0831  0.1682
 1186ERGO    R216209  11.859  12.074   9.759  0.0346  0.0548  0.1041
 1186ERGO    R316210  11.979  11.989   9.530 -0.0371 -0.0660  0.1103
 1186ERGO    R416211  11.820  12.223   9.449  0.2861  0.1661  0.1235
 1186ERGO    R516212  11.813  12.024   9.360  0.0345  0.1873  0.0870
 1186ERGO    C116213  11.910  12.230   9.054  0.3653  0.1172  0.1406
 1186ERGO    C216214  11.720  12.482   8.804  0.1583 -0.1985  0.2224
 1187ERGO   ROH16215   2.128   0.223  10.395 -0.3008  0.0585 -0.1101
 1187ERGO    R116216   2.031   0.294  10.139 -0.1716  0.0116 -0.1726
 1187ERGO    R216217   2.172   0.457   9.967 -0.0844 -0.0220 -0.1311
 1187ERGO    R316218   2.138   0.250   9.794  0.0016 -0.0528 -0.1122
 1187ERGO    R416219   2.191   0.483   9.623 -0.2206 -0.0173 -0.1387
 1187ERGO    R516220   2.021   0.346   9.609 -0.1317 -0.1392 -0.0754
 1187ERGO    C116221   2.169   0.303   9.260 -0.2193 -0.0434 -0.1254
 1187ERGO    C216222   2.314   0.328   8.909 -0.0065  0.0587  0.3070
 1188ERGO   ROH16223  10.563  13.051   6.013 -0.0887 -0.2102 -0.0457
 1188ERGO    R116224  10.428  12.995   6.256 -0.1084 -0.0656 -0.0235
 1188ERGO    R216225  10.495  12.782   6.418 -0.2520 -0.0843  0.0077
 1188ERGO    R316226  10.516  12.975   6.608 -0.0934 -0.0655 -0.0264
 1188ERGO    R416227  10.441  12.732   6.756 -0.0041 -0.0496  0.0547
 1188ERGO    R516228  10.339  12.925   6.763  0.0147 -0.0382  0.1113
 1188ERGO    C116229  10.429  12.884   7.131  0.2891 -0.0118  0.0501
 1188ERGO    C216230  10.361  12.743   7.387 -0.1094 -0.4104  0.3851
 1189ERGO   ROH16231   7.387   6.211   9.529  0.0271 -0.0325 -0.1871
 1189ERGO    R116232   7.453   6.194   9.254 -0.1292  0.0834 -0.2334
 1189ERGO    R216233   7.460   5.954   9.116  0.2295  0.0838 -0.2245
 1189ERGO    R316234   7.289   6.083   8.949 -0.1365 -0.2407 -0.1160
 1189ERGO    R416235   7.473   5.942   8.771  0.2021  0.3096 -0.2351
 1189ERGO    R516236   7.426   6.154   8.766 -0.3356  0.2111 -0.1062
 1189ERGO    C116237   7.320   6.055   8.413 -0.1575  0.1366 -0.1395
 1189ERGO    C216238   7.350   6.012   8.095 -0.1656  0.3760  0.4009
 1190ERGO   ROH16239   2.030  10.426   9.752  0.0534 -0.0112  0.0922
 1190ERGO    R116240   2.104  10.518   9.495 -0.0856  0.0155  0.0622
 1190ERGO    R216241   2.166  10.345   9.287 -0.0743  0.0406  0.0520
 1190ERGO    R316242   1.974  10.487   9.156 -0.1904 -0.0611  0.1070
 1190ERGO    R416243   2.171  10.419   8.949 -0.1044  0.2020  0.0850
 1190ERGO    R516244   2.096  10.618   8.996 -0.2834  0.1222  0.1769
 1190ERGO    C116245   1.994  10.594   8.630 -0.2309  0.2005  0.1557
 1190ERGO    C216246   1.914  10.690   8.277 -0.1235 -0.0259 -0.0289
 1191ERGO   ROH16247  12.180   2.744   6.737 -0.3447 -0.0924  0.0472
 1191ERGO    R116248  12.055   2.795   6.985 -0.2099 -0.1608  0.1308
 1191ERGO    R216249  12.176   2.739   7.227 -0.0054 -0.0678  0.0544
 1191ERGO    R316250  12.123   3.001   7.278 -0.1438 -0.0987  0.0713
 1191ERGO    R416251  12.226   2.896   7.531  0.2178  0.0171 -0.0243
 1191ERGO    R516252  12.038   3.003   7.501  0.1039 -0.1270  0.1672
 1191ERGO    C116253  12.205   3.234   7.755  0.2179  0.0375 -0.0544
 1191ERGO    C216254  12.360   3.330   7.939 -0.1014  0.2289  0.2514
 1192ERGO   ROH16255   5.307   2.312   6.646 -0.0644 -0.2335 -0.0396
 1192ERGO    R116256   5.402   2.343   6.911 -0.1426  0.0093 -0.0368
 1192ERGO    R216257   5.259   2.477   7.105 -0.3937 -0.1613 -0.0942
 1192ERGO    R316258   5.292   2.245   7.244 -0.0235 -0.0713 -0.0216
 1192ERGO    R416259   5.211   2.442   7.446 -0.3382 -0.1418 -0.0846
 1192ERGO    R516260   5.388   2.314   7.452 -0.1329  0.1415 -0.0427
 1192ERGO    C116261   5.215   2.204   7.774  0.0418 -0.0459 -0.0108
 1192ERGO    C216262   5.069   2.303   8.106 -0.0787  0.2501  0.2170
 1193ERGO   ROH16263   2.373  16.413   6.732  0.0933  0.1090  0.1362
 1193ERGO    R116264   2.350  16.280   6.981  0.2138  0.0645  0.1240
 1193ERGO    R216265   2.546  16.294   7.176  0.1532  0.3181  0.1703
 1193ERGO    R316266   2.339  16.375   7.332  0.0040  0.0347  0.1264
 1193ERGO    R416267   2.556  16.321   7.520  0.0134  0.2516  0.1803
 1193ERGO    R516268   2.354  16.239   7.528  0.1062  0.0067  0.0993
 1193ERGO    C116269   2.367  16.413   7.867 -0.2080 -0.0529  0.1449
 1193ERGO    C216270   2.502  16.606   8.134 -0.1173 -0.1128  0.0804
 1194ERGO   ROH16271  11.377  13.470   6.401 -0.1205  0.1348 -0.0578
 1194ERGO    R116272  11.371  13.431   6.681 -0.0642  0.0303 -0.0712
 1194ERGO    R216273  11.146  13.336   6.813  0.0233 -0.1998 -0.0849
 1194ERGO    R316274  11.321  13.150   6.907  0.1851 -0.0919 -0.1652
 1194ERGO    R416275  11.161  13.226   7.140  0.1855 -0.2661 -0.1122
 1194ERGO    R516276  11.378  13.227   7.126  0.1801 -0.1006 -0.1624
 1194ERGO    C116277  11.332  12.988   7.419  0.4318 -0.2035 -0.2035
 1194ERGO    C216278  11.260  12.828   7.589 -0.0887 -0.0630  0.0255
 1195ERGO   ROH16279   2.330  11.059   6.048  0.1061 -0.1472 -0.0531
 1195ERGO    R116280   2.314  11.015   6.327 -0.0363 -0.1865 -0.0677
 1195ERGO    R216281   2.314  10.762   6.438  0.2209 -0.1940 -0.0885
 1195ERGO    R316282   2.521  10.861   6.583 -0.0116  0.0727  0.0734
 1195ERGO    R416283   2.384  10.678   6.766  0.2107 -0.3056 -0.1143
 1195ERGO    R516284   2.432  10.887   6.804 -0.1680 -0.2347  0.0552
 1195ERGO    C116285   2.619  10.722   7.093 -0.0135 -0.1202  0.0227
 1195ERGO    C216286   2.667  10.848   7.370  0.0313  0.0159  0.0900
 1196ERGO   ROH16287   8.613   7.779   5.960 -0.1586 -0.0898  0.0063
 1196ERGO    R116288   8.550   7.922   6.195 -0.2086 -0.0654 -0.0219
 1196ERGO    R216289   8.721   8.107   6.308 -0.1500 -0.1936  0.1008
 1196ERGO    R316290   8.505   8.271   6.289 -0.0261 -0.0411 -0.0224
 1196ERGO    R416291   8.688   8.408   6.473 -0.1386 -0.2943  0.2895
 1196ERGO    R516292   8.479   8.359   6.511 -0.2167 -0.1901  0.0176
 1196ERGO    C116293   8.467   8.738   6.552 -0.0158 -0.2097  0.2837
 1196ERGO    C216294   8.507   9.105   6.502  0.2806  0.1526  0.1638
 1197ERGO   ROH16295  17.973   6.784   9.667  0.1269 -0.2057 -0.0367
 1197ERGO    R116296  18.124   6.845   9.436  0.0731 -0.0301 -0.0280
 1197ERGO    R216297  18.157   6.666   9.229  0.1368  0.0762 -0.1149
 1197ERGO    R316298  18.061   6.871   9.078  0.0200  0.0985 -0.0096
 1197ERGO    R416299  18.163   6.676   8.883  0.1965  0.2864 -0.1082
 1197ERGO    R516300  18.216   6.887   8.895  0.0433  0.3177  0.0285
 1197ERGO    C116301  18.076   6.874   8.541  0.1214  0.4298 -0.0056
 1197ERGO    C216302  18.117   6.954   8.201  0.0793  0.2217  0.4028
 1198ERGO   ROH16303   5.692   9.887   5.634  0.0862  0.0678 -0.0271
 1198ERGO    R116304   5.837  10.007   5.845  0.1778 -0.1545  0.0397
 1198ERGO    R216305   5.798  10.270   5.923  0.4452 -0.1286  0.1109
 1198ERGO    R316306   5.760  10.157   6.168  0.2719 -0.1705  0.0696
 1198ERGO    R416307   5.771  10.445   6.220  0.4619 -0.2012  0.1561
 1198ERGO    R516308   5.891  10.291   6.316  0.3129 -0.3132  0.1591
 1198ERGO    C116309   5.720  10.441   6.622  0.3089 -0.2828  0.1438
 1198ERGO    C216310   5.739  10.732   6.932 -0.2580  0.0662  0.1847
 1199ERGO   ROH16311   3.386  14.160   6.586  0.1831  0.0901  0.1550
 1199ERGO    R116312   3.311  14.031   6.827 -0.0008  0.0069  0.0544
 1199ERGO    R216313   3.358  13.763   6.873  0.1239  0.0318  0.0682
 1199ERGO    R316314   3.480  13.856   7.098 -0.1861  0.0810  0.2196
 1199ERGO    R416315   3.469  13.565   7.134  0.3295  0.0199 -0.0261
 1199ERGO    R516316   3.396  13.717   7.273 -0.0406 -0.2226  0.0554
 1199ERGO    C116317   3.648  13.538   7.496  0.1581  0.0590  0.0611
 1199ERGO    C216318   3.908  13.382   7.634  0.3602  0.0392 -0.1754
 1200ERGO   ROH16319   9.939   6.526   9.854 -0.1280 -0.0585 -0.0584
 1200ERGO    R116320   9.865   6.622   9.598 -0.1470 -0.0984 -0.0683
 1200ERGO    R216321  10.050   6.708   9.412 -0.1705  0.0581 -0.0227
 1200ERGO    R316322   9.924   6.527   9.252  0.0034 -0.0299 -0.0616
 1200ERGO    R416323  10.027   6.731   9.068 -0.0981  0.0506 -0.0279
 1200ERGO    R516324   9.821   6.660   9.081 -0.0500 -0.1010 -0.0842
 1200ERGO    C116325   9.896   6.574   8.717  0.1074 -0.0364 -0.0675
 1200ERGO    C216326   9.802   6.325   8.531  0.1655 -0.0058  0.2341
 1201ERGO   ROH16327  17.591   5.364   6.469 -0.0496 -0.2245 -0.0162
 1201ERGO    R116328  17.401   5.322   6.673  0.0799 -0.2793  0.0957
 1201ERGO    R216329  17.468   5.314   6.941  0.2155 -0.0954  0.0729
 1201ERGO    R316330  17.277   5.506   6.962  0.0728 -0.2353  0.0627
 1201ERGO    R416331  17.294   5.389   7.230  0.3153 -0.0477  0.1210
 1201ERGO    R516332  17.114   5.412   7.110  0.2311 -0.2676  0.2124
 1201ERGO    C116333  17.013   5.613   7.418  0.2396 -0.1512  0.1395
 1201ERGO    C216334  16.649   5.773   7.568  0.3484 -0.0599  0.4408
 1202ERGO   ROH16335   1.764  12.159   6.433 -0.2163  0.1819  0.2112
 1202ERGO    R116336   1.688  12.282   6.676 -0.3385 -0.1535  0.3478
 1202ERGO    R216337   1.612  12.137   6.899  0.1932 -0.4910  0.3237
 1202ERGO    R316338   1.806  12.283   7.021 -0.0654 -0.0743  0.2568
 1202ERGO    R416339   1.643  12.177   7.241  0.3379 -0.6076  0.3259
 1202ERGO    R516340   1.695  12.387   7.206 -0.1973 -0.4453  0.3966
 1202ERGO    C116341   1.843  12.338   7.554  0.1793 -0.2844  0.2643
 1202ERGO    C216342   1.876  12.300   7.914 -0.1032  0.2063  0.2531
 1203ERGO   ROH16343  11.151  11.239   9.822 -0.0778  0.0983  0.1130
 1203ERGO    R116344  11.133  11.294   9.545 -0.0756  0.1289  0.1190
 1203ERGO    R216345  11.351  11.375   9.395 -0.0534  0.0501  0.1102
 1203ERGO    R316346  11.281  11.163   9.240 -0.1534  0.0924  0.0962
 1203ERGO    R416347  11.358  11.373   9.049 -0.1138  0.0892  0.1085
 1203ERGO    R516348  11.171  11.261   9.051 -0.1524  0.1534  0.1270
 1203ERGO    C116349  11.296  11.172   8.702 -0.2431  0.1516  0.0943
 1203ERGO    C216350  11.282  11.327   8.363  0.1629  0.0383  0.1674
 1204ERGO   ROH16351   0.105   0.042   6.735  0.1405 -0.0876  0.2543
 1204ERGO    R116352   0.081   0.213   6.959 -0.2327  0.0582  0.1118
 1204ERGO    R216353  -0.160   0.259   7.086 -0.3232 -0.4829  0.1619
 1204ERGO    R316354  -0.022   0.180   7.307 -0.0067  0.0802  0.1819
 1204ERGO    R416355  -0.204   0.389   7.403 -0.3877 -0.1697  0.0275
 1204ERGO    R516356   0.013   0.383   7.430 -0.3463  0.3192 -0.0954
 1204ERGO    C116357  -0.099   0.392   7.795 -0.1283  0.5413 -0.0319
 1204ERGO    C216358   0.003   0.630   8.043  0.0107 -0.0437  0.1535
 1205ERGO   ROH16359   8.425   6.523   9.817 -0.1165 -0.0278 -0.1226
 1205ERGO    R116360   8.538   6.415   9.580  0.0303  0.0607 -0.0945
 1205ERGO    R216361   8.416   6.214   9.435  0.2303 -0.0454 -0.1226
 1205ERGO    R316362   8.443   6.391   9.230  0.1333 -0.0233 -0.1164
 1205ERGO    R416363   8.391   6.135   9.099  0.2167 -0.0322 -0.1244
 1205ERGO    R516364   8.558   6.268   9.060  0.1573  0.0341 -0.1393
 1205ERGO    C116365   8.402   6.254   8.712  0.1175 -0.0039 -0.1198
 1205ERGO    C216366   8.500   6.439   8.451 -0.1566  0.0367  0.2175
 1206ERGO   ROH16367  16.452   9.119   6.115  0.1836  0.0764  0.2753
 1206ERGO    R116368  16.318   9.201   6.350  0.1246  0.0513  0.2496
 1206ERGO    R216369  16.111   9.057   6.462  0.1414  0.0092  0.2139
 1206ERGO    R316370  16.266   9.068   6.685  0.0956  0.0496  0.2458
 1206ERGO    R416371  16.004   8.977   6.781  0.1467 -0.2082  0.1638
 1206ERGO    R516372  16.118   9.147   6.856 -0.0048 -0.1390  0.2525
 1206ERGO    C116373  16.088   8.941   7.176  0.1066 -0.2967  0.1645
 1206ERGO    C216374  16.007   8.696   7.352 -0.2143 -0.4319  0.0957
 1207ERGO   ROH16375   3.579   7.677   9.578 -0.1294  0.0167 -0.1383
 1207ERGO    R116376   3.470   7.568   9.341 -0.0685 -0.0643 -0.1293
 1207ERGO    R216377   3.351   7.724   9.146 -0.1448 -0.1458 -0.1473
 1207ERGO    R316378   3.530   7.600   8.983 -0.0778 -0.0710 -0.1318
 1207ERGO    R416379   3.349   7.740   8.801 -0.0305 -0.0205 -0.1433
 1207ERGO    R516380   3.400   7.528   8.796 -0.0093 -0.0153 -0.2022
 1207ERGO    C116381   3.515   7.632   8.447  0.0988  0.1228 -0.1265
 1207ERGO    C216382   3.522   7.688   8.097  0.0222  0.0819  0.0069
 1208ERGO   ROH16383  17.869   8.978   9.590  0.0930 -0.2121 -0.1380
 1208ERGO    R116384  17.847   9.140   9.359  0.0206 -0.1280 -0.0731
 1208ERGO    R216385  18.043   9.148   9.163  0.0389  0.0749 -0.0487
 1208ERGO    R316386  17.835   9.086   8.999  0.0960  0.0155 -0.0977
 1208ERGO    R416387  18.060   9.133   8.819  0.1377  0.0239 -0.0417
 1208ERGO    R516388  17.865   9.228   8.809  0.1259 -0.0102 -0.1114
 1208ERGO    C116389  17.876   9.067   8.464  0.2492 -0.0614 -0.0836
 1208ERGO    C216390  17.754   8.888   8.172  0.1837 -0.3692  0.1673
 1209ERGO   ROH16391   8.853  16.123  10.156 -0.0993 -0.0774 -0.0858
 1209ERGO    R116392   8.689  16.198   9.938  0.0149  0.1148 -0.1067
 1209ERGO    R216393   8.777  16.367   9.737  0.2903 -0.1014 -0.1703
 1209ERGO    R316394   8.699  16.163   9.576 -0.0560 -0.0350 -0.0954
 1209ERGO    R416395   8.692  16.400   9.403  0.4156 -0.0841 -0.2016
 1209ERGO    R516396   8.530  16.259   9.436  0.1413  0.2231 -0.1694
 1209ERGO    C116397   8.569  16.227   9.058  0.1633 -0.0119 -0.1496
 1209ERGO    C216398   8.611  16.299   8.717 -0.3259  0.2180 -0.2696
 1210ERGO   ROH16399  17.006   1.151   6.491  0.0643  0.0936 -0.0040
 1210ERGO    R116400  16.903   1.203   6.749  0.0010 -0.0088 -0.0078
 1210ERGO    R216401  16.884   1.008   6.944 -0.0325 -0.0819 -0.0841
 1210ERGO    R316402  17.026   1.186   7.092 -0.0781 -0.1282  0.0154
 1210ERGO    R416403  16.865   1.036   7.288 -0.1353 -0.1983 -0.0798
 1210ERGO    R516404  16.874   1.253   7.264 -0.1318 -0.1890 -0.0062
 1210ERGO    C116405  16.988   1.220   7.627 -0.2384 -0.3096  0.0162
 1210ERGO    C216406  16.937   1.018   7.889 -0.0999 -0.1847  0.3412
 1211ERGO   ROH16407   7.215   4.111   6.422  0.0675 -0.1843 -0.0198
 1211ERGO    R116408   7.143   3.922   6.621  0.2831 -0.4297 -0.1671
 1211ERGO    R216409   7.316   3.727   6.710  0.7164  0.0367  0.0669
 1211ERGO    R316410   7.258   3.833   6.954  0.0263 -0.1489  0.0011
 1211ERGO    R416411   7.426   3.599   7.012  0.8069  0.4280  0.2056
 1211ERGO    R516412   7.229   3.642   7.096  0.5252 -0.2659 -0.0404
 1211ERGO    C116413   7.435   3.623   7.417  0.2117  0.4816  0.2248
 1211ERGO    C216414   7.691   3.581   7.597 -0.1112 -0.2702  0.1473
 1212ERGO   ROH16415   7.716  15.542   6.366 -0.0613 -0.0137 -0.1626
 1212ERGO    R116416   7.663  15.578   6.641 -0.0600  0.0638 -0.1733
 1212ERGO    R216417   7.565  15.375   6.801 -0.1203  0.1316 -0.1345
 1212ERGO    R316418   7.782  15.434   6.954 -0.1120  0.1037 -0.1330
 1212ERGO    R416419   7.585  15.322   7.142 -0.2239  0.3327 -0.0944
 1212ERGO    R516420   7.688  15.514   7.160 -0.1125  0.2916 -0.1983
 1212ERGO    C116421   7.801  15.347   7.484 -0.2766  0.4238 -0.0695
 1212ERGO    C216422   7.742  15.079   7.703 -0.0341 -0.2604 -0.0879
 1213ERGO   ROH16423   6.378  14.542   6.611 -0.2322 -0.0020  0.1989
 1213ERGO    R116424   6.536  14.700   6.786 -0.1680  0.0601  0.0856
 1213ERGO    R216425   6.455  14.764   7.043 -0.0870  0.1749  0.0819
 1213ERGO    R316426   6.695  14.656   7.110 -0.0749  0.1856  0.0578
 1213ERGO    R416427   6.648  14.864   7.311 -0.0911  0.1427  0.0975
 1213ERGO    R516428   6.825  14.842   7.186 -0.0912  0.1837  0.0904
 1213ERGO    C116429   6.985  14.820   7.531 -0.0822  0.1341  0.0839
 1213ERGO    C216430   6.860  14.687   7.846  0.0625 -0.2800 -0.2217
 1214ERGO   ROH16431  10.334  17.605   6.618 -0.1218 -0.1044 -0.1362
 1214ERGO    R116432  10.377  17.501   6.878 -0.0605  0.0299 -0.0915
 1214ERGO    R216433  10.541  17.626   7.063 -0.0594  0.1570 -0.1737
 1214ERGO    R316434  10.319  17.612   7.220 -0.0352  0.1836 -0.1370
 1214ERGO    R416435  10.540  17.664   7.406  0.0016  0.1051 -0.1675
 1214ERGO    R516436  10.395  17.502   7.419 -0.0306  0.1385 -0.1666
 1214ERGO    C116437  10.331  17.672   7.754  0.0597  0.1000 -0.1294
 1214ERGO    C216438  10.408  17.789   8.105 -0.1114 -0.0314  0.2097
 1215ERGO   ROH16439   5.251   2.404  10.452 -0.2359 -0.0055  0.0728
 1215ERGO    R116440   5.142   2.384  10.192 -0.1097 -0.0315  0.0196
 1215ERGO    R216441   5.167   2.585  10.003 -0.0398 -0.0355  0.0149
 1215ERGO    R316442   5.269   2.385   9.851  0.0574 -0.0365  0.0834
 1215ERGO    R416443   5.212   2.599   9.661 -0.0046 -0.1271  0.0166
 1215ERGO    R516444   5.144   2.393   9.648  0.0829 -0.1519  0.0686
 1215ERGO    C116445   5.334   2.419   9.319  0.1070 -0.1814  0.0820
 1215ERGO    C216446   5.249   2.400   8.976 -0.2619 -0.0936  0.0331
 1216ERGO   ROH16447  12.750  10.048   6.165  0.4136  0.2018  0.1501
 1216ERGO    R116448  12.762   9.967   6.436  0.3135  0.0622  0.1147
 1216ERGO    R216449  12.576  10.048   6.624  0.3265  0.0875  0.1215
 1216ERGO    R316450  12.550   9.781   6.666  0.1533  0.0812 -0.0174
 1216ERGO    R416451  12.506   9.902   6.929  0.0950 -0.0259  0.0157
 1216ERGO    R516452  12.648   9.745   6.881  0.0263 -0.0819  0.0118
 1216ERGO    C116453  12.440   9.566   7.146 -0.2024 -0.0979 -0.1764
 1216ERGO    C216454  12.449   9.350   7.421 -0.0526 -0.2944 -0.2330
 1217ERGO   ROH16455  17.655   3.760   6.277  0.0242 -0.0533  0.0344
 1217ERGO    R116456  17.779   3.663   6.512 -0.0693  0.0343  0.1180
 1217ERGO    R216457  17.658   3.677   6.760 -0.2632 -0.0836  0.0223
 1217ERGO    R316458  17.708   3.410   6.763 -0.0390 -0.0449  0.0505
 1217ERGO    R416459  17.664   3.481   7.045 -0.3469 -0.0813  0.0278
 1217ERGO    R516460  17.837   3.376   6.963 -0.1780  0.0637  0.1683
 1217ERGO    C116461  17.715   3.116   7.214 -0.1857 -0.0438  0.0574
 1217ERGO    C216462  17.847   2.904   7.529 -0.2478  0.0896  0.0466
 1218ERGO   ROH16463   5.681  13.023   6.112 -0.1474  0.0941  0.1524
 1218ERGO    R116464   5.846  12.832   6.240 -0.2058 -0.0332  0.0403
 1218ERGO    R216465   6.002  12.893   6.459  0.1170 -0.1061 -0.1594
 1218ERGO    R316466   5.871  12.682   6.570  0.0088  0.0805  0.0768
 1218ERGO    R416467   6.125  12.698   6.717  0.1777 -0.1088 -0.1902
 1218ERGO    R516468   6.044  12.523   6.616 -0.1085 -0.0769 -0.0243
 1218ERGO    C116469   6.073  12.387   6.972  0.1115  0.0648  0.0137
 1218ERGO    C216470   6.184  12.341   7.279 -0.0392 -0.0882  0.0518
 1219ERGO   ROH16471  13.453  16.193  10.412 -0.3510 -0.2208 -0.1062
 1219ERGO    R116472  13.349  16.320  10.181 -0.2863 -0.1838 -0.1156
 1219ERGO    R216473  13.501  16.490  10.024 -0.2805 -0.0505  0.0285
 1219ERGO    R316474  13.424  16.322   9.825 -0.0919 -0.0155 -0.0751
 1219ERGO    R416475  13.513  16.564   9.687 -0.1567  0.0848  0.0617
 1219ERGO    R516476  13.321  16.464   9.663 -0.0900 -0.0106 -0.0699
 1219ERGO    C116477  13.448  16.448   9.303  0.0923  0.1965 -0.0162
 1219ERGO    C216478  13.523  16.508   8.856  0.2252  0.1064 -0.1124
 1220ERGO   ROH16479   7.920   2.050   6.625  0.2818  0.1019  0.1131
 1220ERGO    R116480   7.789   1.889   6.817  0.2640  0.0870  0.0891
 1220ERGO    R216481   7.915   1.683   6.949  0.2453  0.0591  0.0677
 1220ERGO    R316482   7.828   1.814   7.171  0.2493  0.0396  0.0802
 1220ERGO    R416483   7.939   1.562   7.273  0.3232  0.0688  0.0652
 1220ERGO    R516484   7.740   1.642   7.311  0.3122  0.0217  0.0959
 1220ERGO    C116485   7.871   1.616   7.668  0.3724  0.0562  0.0757
 1220ERGO    C216486   7.957   1.696   7.934  0.1341  0.2122 -0.1418
 1221ERGO   ROH16487   2.030  18.117   6.993 -0.0628  0.0117 -0.1895
 1221ERGO    R116488   1.793  18.072   7.141  0.0599  0.0035  0.0057
 1221ERGO    R216489   1.779  18.107   7.415  0.1842  0.3896 -0.0432
 1221ERGO    R316490   1.570  18.269   7.350 -0.0149  0.1034 -0.1584
 1221ERGO    R416491   1.507  18.171   7.618  0.2640  0.4158  0.0584
 1221ERGO    R516492   1.379  18.160   7.442  0.1464  0.0331  0.1362
 1221ERGO    C116493   1.153  18.359   7.676  0.1235  0.1623  0.0094
 1221ERGO    C216494   0.835  18.576   7.633 -0.0192  0.1677  0.0710
 1222ERGO   ROH16495   7.188   7.499   5.954  0.0594 -0.1171  0.0363
 1222ERGO    R116496   7.317   7.482   6.205  0.1647  0.0055 -0.0082
 1222ERGO    R216497   7.542   7.629   6.267  0.0831  0.1766 -0.1161
 1222ERGO    R316498   7.393   7.708   6.480  0.1020  0.0988 -0.0633
 1222ERGO    R416499   7.670   7.711   6.578  0.1501  0.2522 -0.1622
 1222ERGO    R516500   7.500   7.607   6.668  0.2287  0.1530 -0.0971
 1222ERGO    C116501   7.604   7.832   6.958  0.2070  0.2233 -0.1396
 1222ERGO    C216502   7.771   8.015   7.200  0.2458  0.2216 -0.2568
 1223ERGO   ROH16503   5.610   6.812   9.494 -0.0836  0.0507  0.0838
 1223ERGO    R116504   5.681   6.740   9.230 -0.1003  0.0864  0.0700
 1223ERGO    R216505   5.526   6.572   9.074 -0.0719  0.0486  0.0846
 1223ERGO    R316506   5.537   6.779   8.898 -0.1596  0.0610  0.0923
 1223ERGO    R416507   5.500   6.541   8.731  0.1884  0.0192  0.0654
 1223ERGO    R516508   5.657   6.691   8.710  0.0560  0.1774  0.1709
 1223ERGO    C116509   5.496   6.717   8.366  0.2576  0.0137  0.0614
 1223ERGO    C216510   5.599   6.681   7.988 -0.0176 -0.2791 -0.1225
 1224ERGO   ROH16511  13.505  16.500   7.128 -0.1237  0.1561  0.0120
 1224ERGO    R116512  13.447  16.591   7.390 -0.0914  0.0203  0.0671
 1224ERGO    R216513  13.207  16.711   7.456 -0.0379  0.0929  0.1313
 1224ERGO    R316514  13.199  16.517   7.647 -0.1369 -0.0243  0.0105
 1224ERGO    R416515  12.993  16.709   7.728 -0.0097  0.0524  0.1535
 1224ERGO    R516516  13.158  16.636   7.851 -0.0414 -0.1270  0.0905
 1224ERGO    C116517  12.862  16.526   8.065 -0.0862 -0.0811  0.0529
 1224ERGO    C216518  12.498  16.687   8.068 -0.1972  0.2983 -0.4197
 1225ERGO   ROH16519   5.969   9.221   9.464  0.2252  0.1682 -0.1919
 1225ERGO    R116520   5.736   9.281   9.315  0.0667 -0.0079 -0.0240
 1225ERGO    R216521   5.705   9.517   9.174 -0.2380  0.0024  0.0399
 1225ERGO    R316522   5.655   9.349   8.967 -0.2229 -0.0074  0.0403
 1225ERGO    R416523   5.603   9.615   8.859 -0.3095 -0.0197  0.0580
 1225ERGO    R516524   5.468   9.445   8.855 -0.2648 -0.0565  0.0710
 1225ERGO    C116525   5.497   9.514   8.481 -0.3370 -0.0417  0.0690
 1225ERGO    C216526   5.494   9.631   8.166 -0.1181 -0.3521  0.0109
 1226ERGO   ROH16527   7.872   7.381   9.580 -0.0692 -0.1894  0.1826
 1226ERGO    R116528   7.858   7.198   9.364 -0.1991 -0.1160  0.1279
 1226ERGO    R216529   7.659   7.209   9.173 -0.1403  0.1410  0.0771
 1226ERGO    R316530   7.869   7.217   9.001 -0.0845 -0.0243  0.1358
 1226ERGO    R416531   7.649   7.106   8.843 -0.1047  0.0777  0.0957
 1226ERGO    R516532   7.846   7.018   8.870 -0.1665 -0.0376  0.1715
 1226ERGO    C116533   7.840   7.052   8.490 -0.0317 -0.1143  0.1617
 1226ERGO    C216534   7.961   6.974   8.185 -0.1758  0.2799 -0.1714
 1227ERGO   ROH16535   5.711   8.952   6.039  0.0881  0.2816  0.0097
 1227ERGO    R116536   5.801   9.148   6.221  0.2433  0.0772  0.1561
 1227ERGO    R216537   5.629   9.298   6.375  0.3404  0.3166  0.0304
 1227ERGO    R316538   5.782   9.205   6.580 -0.0070 -0.0019  0.1580
 1227ERGO    R416539   5.666   9.456   6.681  0.4398  0.2673  0.0450
 1227ERGO    R516540   5.878   9.403   6.676  0.3441 -0.1876  0.2123
 1227ERGO    C116541   5.832   9.461   7.050  0.1716 -0.0605  0.1733
 1227ERGO    C216542   5.829   9.529   7.376 -0.2312 -0.0203  0.2153
 1228ERGO   ROH16543   0.801  14.197   6.548  0.0007  0.0955 -0.1844
 1228ERGO    R116544   0.745  14.427   6.704 -0.0921  0.0735 -0.1853
 1228ERGO    R216545   0.521  14.584   6.663 -0.2246 -0.0949 -0.0975
 1228ERGO    R316546   0.480  14.537   6.927 -0.0666 -0.0910 -0.0706
 1228ERGO    R416547   0.318  14.773   6.869 -0.2056 -0.1618 -0.0165
 1228ERGO    R516548   0.467  14.754   7.026 -0.1117 -0.0820 -0.0879
 1228ERGO    C116549   0.161  14.839   7.237 -0.0461 -0.1970  0.0559
 1228ERGO    C216550  -0.194  14.947   7.273  0.2480 -0.1193 -0.1364
 1229ERGO   ROH16551  10.918   8.815   9.618 -0.0550 -0.2228  0.0412
 1229ERGO    R116552  10.986   8.677   9.380 -0.1412 -0.1667 -0.0174
 1229ERGO    R216553  10.904   8.763   9.130 -0.0672  0.0058  0.0101
 1229ERGO    R316554  11.170   8.750   9.075 -0.0708 -0.1596  0.0286
 1229ERGO    R416555  11.041   8.764   8.813 -0.0316 -0.0413  0.0260
 1229ERGO    R516556  11.185   8.614   8.879 -0.1374 -0.1396  0.0152
 1229ERGO    C116557  11.371   8.753   8.577 -0.0143 -0.2242  0.0525
 1229ERGO    C216558  11.401   8.744   8.262  0.0554  0.2885  0.0388
 1230ERGO   ROH16559   2.592   0.696   6.423  0.0209  0.2381  0.0624
 1230ERGO    R116560   2.792   0.606   6.602 -0.0965 -0.0341  0.0624
 1230ERGO    R216561   2.973   0.779   6.721  0.1584 -0.2786  0.0382
 1230ERGO    R316562   2.880   0.664   6.950  0.0025 -0.1262  0.0536
 1230ERGO    R416563   3.129   0.797   7.029  0.0348 -0.2094  0.0980
 1230ERGO    R516564   3.077   0.588   7.063 -0.0817 -0.1700  0.1750
 1230ERGO    C116565   3.133   0.700   7.423 -0.1836 -0.0260  0.1472
 1230ERGO    C216566   3.185   0.691   7.697  0.1906 -0.3053  0.0181
 1231ERGO   ROH16567  12.314   0.863  10.574 -0.2542 -0.1167  0.1819
 1231ERGO    R116568  12.306   0.974  10.314 -0.2205 -0.0023  0.2288
 1231ERGO    R216569  12.499   0.921  10.123 -0.1490  0.1474  0.2548
 1231ERGO    R316570  12.284   0.849   9.973 -0.0855  0.1413  0.1663
 1231ERGO    R416571  12.494   0.905   9.778  0.0044  0.0972  0.2544
 1231ERGO    R516572  12.295   0.991   9.781  0.0103  0.1110  0.1505
 1231ERGO    C116573  12.290   0.829   9.436  0.1533  0.0622  0.1713
 1231ERGO    C216574  12.313   0.742   9.089  0.0834  0.0241 -0.0670
 1232ERGO   ROH16575  13.850  17.634   6.654  0.2544  0.1262 -0.0908
 1232ERGO    R116576  13.848  17.663   6.936 -0.0508  0.0540 -0.0813
 1232ERGO    R216577  13.675  17.521   7.099  0.0085 -0.2572 -0.2777
 1232ERGO    R316578  13.906  17.448   7.223  0.0148  0.0642 -0.0870
 1232ERGO    R416579  13.703  17.439   7.434 -0.1822 -0.3598 -0.2858
 1232ERGO    R516580  13.891  17.547   7.440 -0.3592 -0.0514 -0.0528
 1232ERGO    C116581  13.935  17.322   7.745 -0.2873 -0.1179 -0.1116
 1232ERGO    C216582  14.044  17.335   7.972  0.2528  0.1261 -0.2181
 1233ERGO   ROH16583   3.154   3.925   6.581 -0.0516 -0.2446 -0.0860
 1233ERGO    R116584   2.998   3.911   6.817  0.0810 -0.0912  0.0139
 1233ERGO    R216585   2.864   3.682   6.894 -0.0966  0.0316  0.1002
 1233ERGO    R316586   3.001   3.719   7.126  0.0932 -0.0946  0.0095
 1233ERGO    R416587   2.743   3.607   7.209 -0.1405  0.5814  0.2243
 1233ERGO    R516588   2.835   3.791   7.283  0.3268  0.4329  0.0302
 1233ERGO    C116589   2.802   3.598   7.610  0.0122  0.7831  0.2113
 1233ERGO    C216590   2.585   3.631   7.960  0.2613 -0.0118 -0.0245
 1234ERGO   ROH16591   4.377   7.710   6.021 -0.4531 -0.3996  0.0052
 1234ERGO    R116592   4.353   7.851   6.265 -0.2758 -0.2548 -0.0587
 1234ERGO    R216593   4.136   7.822   6.433 -0.1652 -0.1401  0.1075
 1234ERGO    R316594   4.328   7.766   6.618 -0.0437 -0.0472  0.0107
 1234ERGO    R416595   4.140   7.945   6.756  0.0307  0.0020  0.0524
 1234ERGO    R516596   4.356   7.972   6.738  0.0190  0.0082 -0.0967
 1234ERGO    C116597   4.323   7.965   7.118  0.2588  0.1721 -0.0706
 1234ERGO    C216598   4.254   7.920   7.434  0.0103 -0.2320 -0.2506
 1235ERGO   ROH16599   8.804  17.882   6.492 -0.0482 -0.1018 -0.0511
 1235ERGO    R116600   8.796  17.670   6.679 -0.0413 -0.0833 -0.0301
 1235ERGO    R216601   8.970  17.654   6.893 -0.0635 -0.0379 -0.0101
 1235ERGO    R316602   8.740  17.635   7.037 -0.0767 -0.0540 -0.0325
 1235ERGO    R416603   8.946  17.519   7.211 -0.0816 -0.0250 -0.0057
 1235ERGO    R516604   8.758  17.426   7.151 -0.0667 -0.0474 -0.0205
 1235ERGO    C116605   8.716  17.423   7.530 -0.1045 -0.0326 -0.0241
 1235ERGO    C216606   8.713  17.393   7.919  0.0958  0.4329  0.2137
 1236ERGO   ROH16607  13.321  12.468  10.606 -0.1616  0.1471 -0.0114
 1236ERGO    R116608  13.385  12.479  10.330 -0.2026  0.0577 -0.0243
 1236ERGO    R216609  13.213  12.386  10.134 -0.3272  0.1982  0.0183
 1236ERGO    R316610  13.246  12.636  10.033 -0.1102  0.1575 -0.0155
 1236ERGO    R416611  13.245  12.461   9.798 -0.1121  0.1095  0.0175
 1236ERGO    R516612  13.398  12.606   9.850 -0.0381  0.0188  0.0638
 1236ERGO    C116613  13.295  12.739   9.507  0.2168  0.0199 -0.0147
 1236ERGO    C216614  13.347  12.694   9.146  0.3356 -0.0118  0.2008
 1237ERGO   ROH16615  16.701  17.865   6.948 -0.0655  0.1199 -0.1097
 1237ERGO    R116616  16.718  17.752   7.207 -0.1861 -0.0154 -0.1578
 1237ERGO    R216617  16.836  17.884   7.419  0.1259 -0.3030 -0.1362
 1237ERGO    R316618  16.598  17.836   7.541  0.0651  0.0810 -0.0912
 1237ERGO    R416619  16.779  17.910   7.759  0.2101 -0.1913 -0.1303
 1237ERGO    R516620  16.657  17.730   7.747 -0.0755  0.0022 -0.0967
 1237ERGO    C116621  16.521  17.879   8.071  0.2020  0.2343 -0.0848
 1237ERGO    C216622  16.273  17.964   8.268  0.2075  0.0945  0.0800
 1238ERGO   ROH16623  18.138  14.520   6.876 -0.1146  0.0534  0.0660
 1238ERGO    R116624  18.173  14.369   7.113 -0.0599  0.0132  0.0329
 1238ERGO    R216625  18.413  14.360   7.249  0.0014 -0.0859 -0.0745
 1238ERGO    R316626  18.259  14.437   7.460  0.1205 -0.0555  0.0022
 1238ERGO    R416627  18.435  14.230   7.569  0.0677 -0.1540 -0.1068
 1238ERGO    R516628  18.218  14.235   7.581  0.0762 -0.0571 -0.0191
 1238ERGO    C116629  18.303  14.227   7.952  0.2182 -0.1650 -0.0536
 1238ERGO    C216630  18.484  14.027   8.259  0.0764 -0.0211 -0.3517
 1239ERGO   ROH16631  12.308  11.471   9.761 -0.2477  0.1248  0.0591
 1239ERGO    R116632  12.328  11.669   9.560 -0.0235  0.0563  0.0122
 1239ERGO    R216633  12.450  11.623   9.316 -0.1883 -0.1809 -0.0206
 1239ERGO    R316634  12.212  11.711   9.218 -0.0947  0.1656  0.0470
 1239ERGO    R416635  12.409  11.783   9.013 -0.0613 -0.3817 -0.1476
 1239ERGO    R516636  12.266  11.917   9.108  0.2311 -0.0212 -0.1749
 1239ERGO    C116637  12.162  11.960   8.744  0.1006 -0.1734 -0.1580
 1239ERGO    C216638  11.913  12.030   8.588 -0.0538 -0.1995  0.1127
 1240ERGO   ROH16639   4.851   5.835   5.891  0.1093  0.1206  0.1923
 1240ERGO    R116640   4.821   5.774   6.166 -0.0398 -0.0699  0.1345
 1240ERGO    R216641   4.799   5.514   6.259  0.1798 -0.1479 -0.0364
 1240ERGO    R316642   5.007   5.587   6.417 -0.0259 -0.0016  0.1768
 1240ERGO    R416643   4.876   5.369   6.562  0.2375 -0.4198 -0.1771
 1240ERGO    R516644   4.922   5.567   6.640 -0.1322 -0.4306  0.1102
 1240ERGO    C116645   5.117   5.353   6.888  0.0780 -0.4409 -0.0588
 1240ERGO    C216646   5.340   5.122   6.849 -0.2007 -0.1716 -0.1756
 1241ERGO   ROH16647   5.338  14.521   6.697  0.2378 -0.0183 -0.0498
 1241ERGO    R116648   5.437  14.274   6.793  0.1564 -0.0404 -0.0243
 1241ERGO    R216649   5.700  14.238   6.869  0.0817 -0.0453  0.2285
 1241ERGO    R316650   5.587  14.151   7.101 -0.1432 -0.1256  0.0936
 1241ERGO    R416651   5.856  14.033   7.100 -0.1250 -0.1072  0.3168
 1241ERGO    R516652   5.668  13.927   7.126 -0.1492 -0.1306  0.0985
 1241ERGO    C116653   5.842  13.833   7.452 -0.4564 -0.2187  0.2416
 1241ERGO    C216654   5.830  13.695   7.649  0.0198 -0.2916  0.0317
 1242ERGO   ROH16655  11.157   3.648  10.232 -0.1315 -0.1656  0.0276
 1242ERGO    R116656  11.247   3.475  10.027  0.0140 -0.0479 -0.0088
 1242ERGO    R216657  11.083   3.388   9.822  0.0944 -0.1201 -0.0416
 1242ERGO    R316658  11.280   3.490   9.665  0.0319  0.0660 -0.0031
 1242ERGO    R416659  11.098   3.356   9.478  0.1130  0.0273 -0.0556
 1242ERGO    R516660  11.312   3.324   9.495  0.1343  0.1531 -0.0706
 1242ERGO    C116661  11.291   3.433   9.130  0.0650  0.2880 -0.0275
 1242ERGO    C216662  11.273   3.402   8.813  0.1461  0.0986  0.1394
 1243ERGO   ROH16663  14.348   1.390  10.264 -0.1641  0.0366  0.0934
 1243ERGO    R116664  14.434   1.337   9.999 -0.0689  0.1075  0.1076
 1243ERGO    R216665  14.295   1.170   9.828  0.1864 -0.1571  0.1314
 1243ERGO    R316666  14.304   1.387   9.664 -0.1422 -0.1686  0.0960
 1243ERGO    R416667  14.349   1.159   9.486  0.2814 -0.1079  0.1462
 1243ERGO    R516668  14.475   1.335   9.505 -0.0239  0.1030  0.1428
 1243ERGO    C116669  14.388   1.355   9.134  0.0281 -0.0900  0.1214
 1243ERGO    C216670  14.381   1.379   8.786 -0.0396 -0.0237 -0.0770
 1244ERGO   ROH16671   7.461  17.551   6.568  0.0552  0.2479  0.0314
 1244ERGO    R116672   7.498  17.411   6.811 -0.0079  0.2380  0.0335
 1244ERGO    R216673   7.683  17.208   6.840 -0.1313  0.1336  0.0253
 1244ERGO    R316674   7.769  17.359   7.048 -0.0197  0.0848  0.0178
 1244ERGO    R416675   7.930  17.115   7.063  0.1997  0.1887 -0.3063
 1244ERGO    R516676   7.811  17.202   7.223  0.3018  0.0051 -0.1155
 1244ERGO    C116677   8.155  17.204   7.388  0.4972  0.1750 -0.5065
 1244ERGO    C216678   8.307  17.218   7.684 -0.0975  0.1155  0.4744
 1245ERGO   ROH16679   1.160   5.267   6.270  0.2923  0.0152  0.0121
 1245ERGO    R116680   1.020   5.324   6.510  0.1656  0.0371 -0.0665
 1245ERGO    R216681   0.962   5.130   6.698  0.0857  0.0605 -0.0711
 1245ERGO    R316682   1.088   5.302   6.867 -0.0162  0.0926 -0.0266
 1245ERGO    R416683   0.906   5.150   7.039  0.1042 -0.1047 -0.0573
 1245ERGO    R516684   0.919   5.367   7.023 -0.0514 -0.0842  0.0160
 1245ERGO    C116685   0.991   5.323   7.395  0.0194 -0.1708 -0.0075
 1245ERGO    C216686   1.182   5.384   7.758 -0.1322 -0.1280 -0.0850
 1246ERGO   ROH16687   7.755   7.709   9.224  0.1153 -0.0091 -0.1922
 1246ERGO    R116688   7.696   7.598   8.971  0.1279 -0.0684 -0.1698
 1246ERGO    R216689   7.584   7.745   8.766  0.0902 -0.1276 -0.1952
 1246ERGO    R316690   7.799   7.655   8.626  0.1047 -0.1107 -0.1829
 1246ERGO    R416691   7.570   7.597   8.454  0.1219 -0.1734 -0.1748
 1246ERGO    R516692   7.722   7.455   8.520  0.1429 -0.1366 -0.1565
 1246ERGO    C116693   7.764   7.426   8.142  0.1540 -0.1843 -0.1512
 1246ERGO    C216694   7.847   7.293   7.831  0.0928 -0.0339 -0.2241
 1247ERGO   ROH16695   4.774   5.152   9.973 -0.1311  0.1912  0.1566
 1247ERGO    R116696   4.641   5.034   9.753  0.0081 -0.0072  0.1770
 1247ERGO    R216697   4.529   5.183   9.548 -0.0828 -0.1811  0.1035
 1247ERGO    R316698   4.684   5.024   9.391  0.0776 -0.1099  0.1862
 1247ERGO    R416699   4.478   5.129   9.211  0.0944 -0.2261  0.0821
 1247ERGO    R516700   4.529   4.919   9.242  0.1946 -0.2028  0.1211
 1247ERGO    C116701   4.593   4.948   8.867  0.3482 -0.1854  0.1475
 1247ERGO    C216702   4.513   4.950   8.566 -0.0487 -0.0176 -0.2483
 1248ERGO   ROH16703  13.069   1.192  10.360 -0.0585 -0.0180 -0.0880
 1248ERGO    R116704  12.970   1.233  10.098  0.0096 -0.0836 -0.1245
 1248ERGO    R216705  12.991   1.475   9.967 -0.1989 -0.0362 -0.0747
 1248ERGO    R316706  13.109   1.324   9.774  0.0523  0.1228 -0.0497
 1248ERGO    R416707  12.982   1.544   9.628 -0.1513 -0.0013 -0.0685
 1248ERGO    R516708  12.956   1.331   9.591  0.1104 -0.0316 -0.1067
 1248ERGO    C116709  13.088   1.442   9.250  0.1124  0.1682 -0.0415
 1248ERGO    C216710  13.013   1.417   8.881 -0.1123 -0.1150  0.0832
 1249ERGO   ROH16711   8.820   9.281   9.310  0.2733 -0.0255 -0.0254
 1249ERGO    R116712   8.812   9.395   9.051  0.1436 -0.0482 -0.0323
 1249ERGO    R216713   8.992   9.326   8.853  0.1300  0.0349 -0.0742
 1249ERGO    R316714   8.765   9.275   8.711  0.1197 -0.0988 -0.0114
 1249ERGO    R416715   8.977   9.302   8.508  0.0510  0.0123 -0.0693
 1249ERGO    R516716   8.787   9.411   8.514 -0.0094 -0.0941 -0.0234
 1249ERGO    C116717   8.756   9.241   8.174 -0.0048 -0.1264 -0.0075
 1249ERGO    C216718   8.983   9.077   7.971  0.0517 -0.0776  0.0014
 1250ERGO   ROH16719  15.767  15.751   7.203 -0.0416 -0.0626 -0.0443
 1250ERGO    R116720  15.842  15.714   7.473  0.0723  0.0124 -0.0656
 1250ERGO    R216721  15.744  15.507   7.627 -0.0550  0.1999  0.1030
 1250ERGO    R316722  16.007  15.455   7.668 -0.0822 -0.0499 -0.0137
 1250ERGO    R416723  15.890  15.465   7.937  0.0937  0.3938  0.0619
 1250ERGO    R516724  16.062  15.579   7.866  0.1838  0.1238 -0.1858
 1250ERGO    C116725  16.223  15.391   8.157  0.1546  0.2722 -0.0715
 1250ERGO    C216726  16.343  15.452   8.453  0.0522  0.1955 -0.1499
 1251ERGO   ROH16727   6.451   7.271   6.092  0.0182 -0.1521  0.0293
 1251ERGO    R116728   6.418   7.245   6.372 -0.0471  0.3596  0.0767
 1251ERGO    R216729   6.545   7.050   6.519 -0.6703  0.1313  0.3364
 1251ERGO    R316730   6.632   7.262   6.666  0.0515  0.0823  0.0254
 1251ERGO    R416731   6.700   7.026   6.828 -0.8604  0.0395  0.4276
 1251ERGO    R516732   6.586   7.200   6.893 -0.2757  0.5937  0.1186
 1251ERGO    C116733   6.872   7.212   7.145 -0.2934 -0.0601  0.1887
 1251ERGO    C216734   7.047   7.114   7.477 -0.3295 -0.0143 -0.1557
 1252ERGO   ROH16735   0.959   8.462   9.741 -0.2821  0.0159  0.0502
 1252ERGO    R116736   0.858   8.516   9.483 -0.1204  0.1442  0.0124
 1252ERGO    R216737   0.997   8.667   9.297  0.1695 -0.0843  0.0387
 1252ERGO    R316738   0.959   8.448   9.140 -0.1149 -0.0467  0.0507
 1252ERGO    R416739   0.959   8.674   8.954  0.2659 -0.0582  0.0283
 1252ERGO    R516740   0.805   8.522   8.972  0.0320  0.1681  0.0052
 1252ERGO    C116741   0.901   8.474   8.606  0.0550 -0.0077  0.0334
 1252ERGO    C216742   1.061   8.374   8.294  0.3373  0.2736  0.0403
 1253ERGO   ROH16743  17.794   4.882   9.913  0.0205  0.0333  0.0100
 1253ERGO    R116744  17.908   4.912   9.656  0.0354 -0.0261  0.0105
 1253ERGO    R216745  18.024   4.702   9.518 -0.1765 -0.1100 -0.0340
 1253ERGO    R316746  17.850   4.776   9.323 -0.1142  0.0957 -0.0157
 1253ERGO    R416747  18.095   4.707   9.180 -0.1496 -0.0400 -0.0284
 1253ERGO    R516748  17.984   4.894   9.164 -0.0110  0.0560  0.0352
 1253ERGO    C116749  17.973   4.779   8.800 -0.0755  0.1939 -0.0079
 1253ERGO    C216750  17.884   4.818   8.361  0.0380 -0.1356 -0.0043
 1254ERGO   ROH16751  14.081   3.603   6.417  0.0601  0.2788 -0.0056
 1254ERGO    R116752  14.009   3.724   6.663  0.0103  0.3943 -0.0751
 1254ERGO    R216753  13.870   3.962   6.676 -0.2863  0.2386 -0.2198
 1254ERGO    R316754  13.699   3.817   6.830 -0.0428  0.1460 -0.0312
 1254ERGO    R416755  13.640   4.097   6.896 -0.2485  0.1218 -0.1086
 1254ERGO    R516756  13.689   3.938   7.037  0.0005  0.2245 -0.0748
 1254ERGO    C116757  13.345   4.039   7.168  0.0022 -0.0331  0.1333
 1254ERGO    C216758  13.210   4.306   7.379  0.0840 -0.1816  0.0191
 1255ERGO   ROH16759   5.902  17.991   6.696  0.3987  0.0990  0.1867
 1255ERGO    R116760   5.734  18.078   6.907  0.2243  0.1718  0.0207
 1255ERGO    R216761   5.609  17.902   7.080  0.0175  0.2267 -0.0668
 1255ERGO    R316762   5.731  18.054   7.270 -0.1169  0.2223  0.0239
 1255ERGO    R416763   5.507  17.924   7.409 -0.1378  0.1262 -0.1070
 1255ERGO    R516764   5.550  18.138   7.403 -0.2009  0.1385 -0.0391
 1255ERGO    C116765   5.562  18.079   7.780 -0.3542  0.0635 -0.0452
 1255ERGO    C216766   5.778  18.146   8.087 -0.2599  0.0171  0.1385
 1256ERGO   ROH16767  12.923   6.981   9.624  0.2176  0.0150 -0.0253
 1256ERGO    R116768  12.791   7.063   9.388  0.1697  0.0007 -0.0032
 1256ERGO    R216769  12.923   7.185   9.178  0.1119  0.0638 -0.0017
 1256ERGO    R316770  12.811   6.984   9.033  0.1588  0.0461 -0.0142
 1256ERGO    R416771  12.886   7.186   8.834 -0.0972  0.1799  0.0188
 1256ERGO    R516772  12.689   7.096   8.860 -0.0234  0.0364  0.1040
 1256ERGO    C116773  12.760   6.998   8.498 -0.1749  0.2309  0.0192
 1256ERGO    C216774  12.859   6.916   8.157  0.0317 -0.2855 -0.0707
 1257ERGO   ROH16775   9.998   7.979   6.037 -0.0326 -0.0690 -0.1453
 1257ERGO    R116776   9.874   8.093   6.265  0.0933 -0.0222 -0.0985
 1257ERGO    R216777   9.602   8.072   6.311  0.0772  0.2078 -0.0753
 1257ERGO    R316778   9.684   7.970   6.550  0.0144  0.0639 -0.1140
 1257ERGO    R416779   9.408   8.060   6.597  0.0331  0.1143 -0.1087
 1257ERGO    R516780   9.585   8.115   6.713  0.0308  0.0074 -0.0543
 1257ERGO    C116781   9.372   7.958   6.988 -0.0515 -0.0754 -0.1644
 1257ERGO    C216782   9.279   7.955   7.280 -0.0452  0.2206  0.0975
 1258ERGO   ROH16783   2.735  11.950   6.115 -0.3675 -0.1272  0.1893
 1258ERGO    R116784   2.848  12.072   6.343 -0.1549 -0.1090  0.0756
 1258ERGO    R216785   2.727  12.283   6.474 -0.0533 -0.1311  0.1926
 1258ERGO    R316786   2.753  12.122   6.691  0.1908 -0.1180  0.1778
 1258ERGO    R416787   2.714  12.390   6.803 -0.2119 -0.1608  0.1969
 1258ERGO    R516788   2.877  12.252   6.849  0.0043  0.0684  0.1847
 1258ERGO    C116789   2.730  12.300   7.198 -0.0752 -0.1657  0.1854
 1258ERGO    C216790   2.783  12.242   7.552 -0.1467  0.0867 -0.2606
 1259ERGO   ROH16791  15.503   3.393   6.568  0.0447  0.2795  0.2118
 1259ERGO    R116792  15.486   3.200   6.774 -0.2864  0.0944  0.0175
 1259ERGO    R216793  15.634   3.217   7.007 -0.1327 -0.4741 -0.0320
 1259ERGO    R316794  15.390   3.196   7.125 -0.1334 -0.0594  0.0610
 1259ERGO    R416795  15.580   3.205   7.348 -0.0216 -0.2804 -0.0052
 1259ERGO    R516796  15.427   3.053   7.314 -0.2785 -0.0655  0.0942
 1259ERGO    C116797  15.319   3.179   7.658  0.0425  0.2217  0.0978
 1259ERGO    C216798  15.326   3.286   8.027  0.0006  0.3013  0.2003
 1260ERGO   ROH16799   6.476   8.497   9.398  0.0400 -0.1013  0.0540
 1260ERGO    R116800   6.463   8.635   9.151 -0.0362  0.0604  0.1478
 1260ERGO    R216801   6.524   8.515   8.910  0.2407  0.3139  0.0882
 1260ERGO    R316802   6.277   8.605   8.840  0.1455  0.0266  0.0404
 1260ERGO    R416803   6.427   8.596   8.588  0.2714  0.3807  0.0948
 1260ERGO    R516804   6.319   8.767   8.669  0.0045  0.1913  0.1571
 1260ERGO    C116805   6.138   8.727   8.335  0.2000  0.1497  0.0538
 1260ERGO    C216806   6.074   8.841   7.922 -0.0177  0.1233 -0.1261
 1261ERGO   ROH16807   8.618  17.865   8.592 -0.0888 -0.1382  0.2452
 1261ERGO    R116808   8.507  17.605   8.577  0.0361 -0.1892  0.1983
 1261ERGO    R216809   8.346  17.523   8.368 -0.1005 -0.1591  0.2902
 1261ERGO    R316810   8.528  17.322   8.349 -0.0070 -0.0539  0.0254
 1261ERGO    R416811   8.310  17.243   8.169 -0.1259 -0.0818  0.1843
 1261ERGO    R516812   8.395  17.124   8.330  0.0851 -0.1165  0.0489
 1261ERGO    C116813   8.461  16.891   8.035 -0.0529  0.0622 -0.1258
 1261ERGO    C216814   8.380  16.638   7.843  0.1142  0.1173 -0.0178
 1262ERGO   ROH16815  16.402  11.435   9.949  0.1107  0.0760  0.0338
 1262ERGO    R116816  16.265  11.526   9.718 -0.0877 -0.1866  0.0453
 1262ERGO    R216817  16.388  11.676   9.521 -0.4165  0.1467  0.0908
 1262ERGO    R316818  16.294  11.479   9.358  0.0452 -0.0406  0.0345
 1262ERGO    R416819  16.353  11.703   9.178 -0.5152  0.1916  0.1035
 1262ERGO    R516820  16.165  11.595   9.194 -0.2649 -0.2876  0.0891
 1262ERGO    C116821  16.245  11.535   8.826 -0.1392  0.0419  0.0579
 1262ERGO    C216822  16.299  11.481   8.502  0.1585  0.0598  0.1347
 1263ERGO   ROH16823   4.487   0.371   6.704 -0.1449  0.0370  0.1310
 1263ERGO    R116824   4.363   0.351   6.957 -0.1608  0.0575  0.1252
 1263ERGO    R216825   4.505   0.300   7.189 -0.2097 -0.2244  0.0979
 1263ERGO    R316826   4.382   0.526   7.276  0.0583 -0.1187  0.2111
 1263ERGO    R416827   4.315   0.324   7.477 -0.0788 -0.1069  0.1753
 1263ERGO    R516828   4.175   0.450   7.368  0.0113  0.0726  0.2656
 1263ERGO    C116829   4.090   0.550   7.726  0.2490  0.0608  0.3267
 1263ERGO    C216830   3.974   0.540   8.081 -0.1979  0.1499 -0.1074
 1264ERGO   ROH16831   3.703   0.266   6.196 -0.3066  0.2115 -0.2028
 1264ERGO    R116832   3.514   0.120   6.349 -0.1706  0.0148 -0.2195
 1264ERGO    R216833   3.562  -0.137   6.438  0.1305  0.1000 -0.1317
 1264ERGO    R316834   3.502  -0.029   6.681 -0.0831  0.0936 -0.1791
 1264ERGO    R416835   3.550  -0.313   6.736 -0.1172  0.0877 -0.1463
 1264ERGO    R516836   3.373  -0.198   6.791 -0.1739  0.0819 -0.2952
 1264ERGO    C116837   3.487  -0.314   7.136 -0.4620  0.0749 -0.1994
 1264ERGO    C216838   3.781  -0.270   7.335 -0.4216  0.1040 -0.2430
 1265ERGO   ROH16839   2.234   6.507  10.089  0.2280  0.1214  0.0188
 1265ERGO    R116840   2.211   6.370   9.843  0.2027  0.0559  0.0566
 1265ERGO    R216841   1.984   6.383   9.686  0.1447 -0.0656  0.1213
 1265ERGO    R316842   2.160   6.460   9.494  0.0594 -0.0394  0.0538
 1265ERGO    R416843   1.943   6.327   9.348 -0.0331  0.0590  0.1208
 1265ERGO    R516844   2.156   6.281   9.335 -0.0549  0.0206 -0.0054
 1265ERGO    C116845   2.085   6.366   8.970 -0.2167  0.1561  0.0570
 1265ERGO    C216846   2.109   6.336   8.624 -0.1212 -0.0521 -0.3794
 1266ERGO   ROH16847  17.554   7.957   9.611 -0.1380  0.2125  0.0147
 1266ERGO    R116848  17.433   7.985   9.357 -0.0835  0.0966 -0.0261
 1266ERGO    R216849  17.533   8.154   9.162 -0.0735  0.0558 -0.0661
 1266ERGO    R316850  17.530   7.928   9.010  0.0176 -0.0022  0.0195
 1266ERGO    R416851  17.517   8.148   8.817  0.0597 -0.0924 -0.0696
 1266ERGO    R516852  17.380   7.979   8.831  0.0838 -0.1014 -0.0577
 1266ERGO    C116853  17.506   7.933   8.474  0.2229 -0.2331  0.0086
 1266ERGO    C216854  17.496   7.926   8.160 -0.1933  0.2151 -0.2343
 1267ERGO   ROH16855  10.225  10.398   9.315 -0.2314 -0.1113  0.0288
 1267ERGO    R116856  10.107  10.321   9.069 -0.2309 -0.0897  0.0205
 1267ERGO    R216857  10.131  10.471   8.839 -0.0582 -0.1694 -0.0213
 1267ERGO    R316858  10.223  10.237   8.735 -0.2079 -0.2712  0.0748
 1267ERGO    R416859  10.099  10.376   8.508  0.1893 -0.1374 -0.0552
 1267ERGO    R516860  10.056  10.173   8.575 -0.1075 -0.0866 -0.1020
 1267ERGO    C116861  10.167  10.101   8.218  0.1928 -0.2145  0.0150
 1267ERGO    C216862  10.242  10.001   7.936 -0.2075  0.2196 -0.0553
 1268ERGO   ROH16863   4.246  12.247   6.512  0.0462  0.0731 -0.1097
 1268ERGO    R116864   4.476  12.137   6.635  0.0410  0.0630 -0.1095
 1268ERGO    R216865   4.528  12.164   6.905  0.0269  0.0359 -0.1060
 1268ERGO    R316866   4.545  11.893   6.896  0.0323  0.0368 -0.1304
 1268ERGO    R416867   4.609  11.963   7.174  0.1759  0.0293 -0.1545
 1268ERGO    R516868   4.729  11.840   7.040  0.1125  0.0392 -0.2273
 1268ERGO    C116869   4.671  11.591   7.322  0.2678  0.0263 -0.2058
 1268ERGO    C216870   4.717  11.327   7.420 -0.2715  0.1475  0.0551
 1269ERGO   ROH16871  15.434  11.706  10.097 -0.0594 -0.1701  0.0365
 1269ERGO    R116872  15.499  11.844   9.859 -0.0140 -0.0743  0.1031
 1269ERGO    R216873  15.621  11.720   9.644  0.1043  0.0297  0.1064
 1269ERGO    R316874  15.409  11.820   9.507  0.1215  0.0069  0.0633
 1269ERGO    R416875  15.593  11.724   9.300  0.1959  0.0933  0.0990
 1269ERGO    R516876  15.506  11.923   9.314  0.1476  0.0666  0.1119
 1269ERGO    C116877  15.377  11.819   8.970  0.2656  0.1088  0.0542
 1269ERGO    C216878  15.400  11.782   8.649  0.3703  0.2884 -0.1980
 1270ERGO   ROH16879   3.903   2.017   6.507  0.0934 -0.0222  0.0550
 1270ERGO    R116880   3.866   1.915   6.768 -0.0576  0.0234  0.0519
 1270ERGO    R216881   4.074   1.880   6.946 -0.1415 -0.0693  0.1322
 1270ERGO    R316882   3.918   2.033   7.108 -0.1217  0.0292  0.0602
 1270ERGO    R416883   4.059   1.850   7.290 -0.1911  0.0530  0.1415
 1270ERGO    R516884   3.843   1.881   7.278 -0.1827  0.1063  0.1042
 1270ERGO    C116885   3.904   1.975   7.642 -0.2015  0.2166  0.0794
 1270ERGO    C216886   4.077   2.165   7.932  0.0945  0.0557 -0.3078
 1271ERGO   ROH16887   8.942  11.978   5.813  0.1223  0.0277 -0.0518
 1271ERGO    R116888   9.057  11.975   6.072  0.1342 -0.0678 -0.0573
 1271ERGO    R216889   9.052  12.195   6.239  0.3223 -0.0615 -0.0531
 1271ERGO    R316890   8.939  12.020   6.413  0.1853  0.0262 -0.0529
 1271ERGO    R416891   9.050  12.230   6.583 -0.0133  0.1376 -0.0715
 1271ERGO    R516892   9.087  12.016   6.601  0.0038  0.1576  0.0919
 1271ERGO    C116893   8.942  12.085   6.947 -0.3374  0.3359 -0.0821
 1271ERGO    C216894   9.137  12.100   7.311 -0.1124  0.2081  0.0541
 1272ERGO   ROH16895  18.067  10.896  10.088 -0.2518 -0.0930  0.1252
 1272ERGO    R116896  17.952  10.944   9.833 -0.1492  0.1093  0.1150
 1272ERGO    R216897  18.043  11.144   9.664  0.1959 -0.0226  0.1366
 1272ERGO    R316898  18.066  10.938   9.487 -0.1176 -0.0537  0.1267
 1272ERGO    R416899  17.986  11.168   9.324  0.2837  0.1002  0.1304
 1272ERGO    R516900  17.888  10.974   9.331 -0.0422  0.2553  0.1033
 1272ERGO    C116901  17.974  10.990   8.960  0.0407  0.1426  0.1176
 1272ERGO    C216902  17.968  11.128   8.658  0.2526  0.0361  0.1508
 1273ERGO   ROH16903  12.957  13.945  10.562 -0.0624 -0.1035  0.0067
 1273ERGO    R116904  13.144  13.956  10.350 -0.0599  0.1065  0.0172
 1273ERGO    R216905  13.132  13.786  10.132  0.1943  0.0285  0.0590
 1273ERGO    R316906  13.134  14.019   9.991 -0.1269  0.0004  0.0001
 1273ERGO    R416907  13.260  13.822   9.813  0.1709  0.1318  0.0612
 1273ERGO    R516908  13.343  14.015   9.874 -0.1080  0.2695  0.0193
 1273ERGO    C116909  13.336  14.062   9.495 -0.1442  0.1655  0.0070
 1273ERGO    C216910  13.249  14.034   9.124  0.0984 -0.1934 -0.2098
 1274ERGO   ROH16911  11.772   7.613   9.690 -0.0406 -0.0482  0.1366
 1274ERGO    R116912  11.809   7.434   9.474 -0.2159  0.0435  0.0270
 1274ERGO    R216913  11.688   7.470   9.229 -0.1533  0.3332  0.0285
 1274ERGO    R316914  11.943   7.451   9.136 -0.1597  0.1128  0.0546
 1274ERGO    R416915  11.775   7.397   8.902 -0.1678  0.1229  0.0717
 1274ERGO    R516916  11.936   7.271   8.979 -0.2654  0.0493  0.1384
 1274ERGO    C116917  12.065   7.336   8.626 -0.1821 -0.2064  0.1213
 1274ERGO    C216918  12.149   7.336   8.316  0.1340 -0.2341 -0.1143
 1275ERGO   ROH16919   9.666  13.768   6.118 -0.2703 -0.1344 -0.0022
 1275ERGO    R116920   9.511  13.611   6.297 -0.0396 -0.3020  0.0545
 1275ERGO    R216921   9.626  13.444   6.485  0.2175  0.0353  0.2100
 1275ERGO    R316922   9.470  13.585   6.657 -0.1049 -0.1271  0.0606
 1275ERGO    R416923   9.622  13.401   6.828  0.2088  0.2850  0.2425
 1275ERGO    R516924   9.405  13.425   6.823  0.1559 -0.1323  0.1615
 1275ERGO    C116925   9.473  13.509   7.189 -0.0990  0.2779  0.1212
 1275ERGO    C216926   9.701  13.501   7.408  0.2743 -0.3607  0.0236
 1276ERGO   ROH16927  11.052   6.329   9.780  0.3062  0.0632 -0.0860
 1276ERGO    R116928  11.040   6.193   9.533  0.2584  0.0795 -0.0925
 1276ERGO    R216929  10.952   6.314   9.300  0.0853  0.0541 -0.0384
 1276ERGO    R316930  11.192   6.230   9.203  0.0828  0.1861 -0.1633
 1276ERGO    R416931  11.016   6.240   8.969  0.0041  0.2781 -0.1062
 1276ERGO    R516932  11.135   6.069   9.035  0.0780  0.2707 -0.2458
 1276ERGO    C116933  11.278   6.118   8.685 -0.0455  0.5325 -0.2629
 1276ERGO    C216934  11.328   6.090   8.369 -0.1454  0.0533  0.1300
 1277ERGO   ROH16935   8.824  11.489   9.532 -0.0459  0.0329 -0.0761
 1277ERGO    R116936   8.725  11.636   9.311 -0.0762  0.0119 -0.0758
 1277ERGO    R216937   8.865  11.662   9.075 -0.1499 -0.0887 -0.1299
 1277ERGO    R316938   8.636  11.566   8.966 -0.2193 -0.0417 -0.0291
 1277ERGO    R416939   8.761  11.722   8.751 -0.2287 -0.1530 -0.1172
 1277ERGO    R516940   8.557  11.744   8.826 -0.1988 -0.0566 -0.0606
 1277ERGO    C116941   8.485  11.665   8.459 -0.3397 -0.1464 -0.0151
 1277ERGO    C216942   8.507  11.698   8.077  0.4611  0.2235  0.0364
 1278ERGO   ROH16943   7.350   0.968   6.567 -0.0180  0.0906  0.0035
 1278ERGO    R116944   7.238   0.892   6.816 -0.0398  0.1101 -0.0005
 1278ERGO    R216945   7.167   0.632   6.874 -0.0474  0.1150  0.0124
 1278ERGO    R316946   7.328   0.670   7.089 -0.0651  0.1292  0.0234
 1278ERGO    R416947   7.212   0.403   7.130  0.0141  0.0882 -0.0220
 1278ERGO    R516948   7.209   0.569   7.271 -0.0399  0.0647  0.0042
 1278ERGO    C116949   7.390   0.306   7.481  0.0334  0.0859 -0.0317
 1278ERGO    C216950   7.612  -0.013   7.547  0.2208 -0.2749 -0.1592
 1279ERGO   ROH16951   5.724   3.973  10.352 -0.0148 -0.0962 -0.0985
 1279ERGO    R116952   5.693   4.068  10.087  0.1172 -0.0954 -0.1159
 1279ERGO    R216953   5.863   3.995   9.882  0.1585 -0.1822 -0.0599
 1279ERGO    R316954   5.631   3.923   9.759  0.1657 -0.0884 -0.1263
 1279ERGO    R416955   5.827   3.941   9.542  0.2002 -0.0674 -0.0820
 1279ERGO    R516956   5.634   4.042   9.551  0.2274 -0.0277 -0.0863
 1279ERGO    C116957   5.589   3.841   9.230  0.2312  0.0875 -0.1573
 1279ERGO    C216958   5.674   3.868   8.938 -0.2759  0.1687  0.1646
 1280ERGO   ROH16959   8.911   6.465   9.887 -0.0025  0.1044 -0.0576
 1280ERGO    R116960   9.008   6.470   9.621  0.0960  0.0048 -0.0249
 1280ERGO    R216961   9.066   6.239   9.480  0.0391 -0.0552  0.0406
 1280ERGO    R316962   8.897   6.347   9.297  0.1525 -0.0091 -0.0376
 1280ERGO    R416963   9.057   6.157   9.144  0.0336 -0.1885  0.0734
 1280ERGO    R516964   9.028   6.367   9.098  0.1977 -0.1903 -0.0230
 1280ERGO    C116965   8.893   6.210   8.778  0.1369 -0.2229  0.0190
 1280ERGO    C216966   8.783   5.989   8.579 -0.0076 -0.0600 -0.0830
 1281ERGO   ROH16967   8.505  10.191   9.508  0.0653 -0.0500 -0.0974
 1281ERGO    R116968   8.547  10.353   9.280 -0.0243 -0.0673 -0.1265
 1281ERGO    R216969   8.753  10.308   9.101  0.0357  0.0471 -0.0863
 1281ERGO    R316970   8.551  10.307   8.919  0.0614 -0.1435 -0.1166
 1281ERGO    R416971   8.794  10.260   8.761  0.1401  0.1326 -0.0864
 1281ERGO    R516972   8.644  10.415   8.726 -0.0211 -0.0186 -0.0888
 1281ERGO    C116973   8.628  10.231   8.392  0.2250  0.0035 -0.1149
 1281ERGO    C216974   8.706  10.244   8.064  0.0692  0.0383 -0.0981
 1282ERGO   ROH16975   9.794   6.929   9.945  0.0183 -0.0951 -0.1072
 1282ERGO    R116976   9.739   7.076   9.710 -0.0101 -0.0853 -0.0949
 1282ERGO    R216977   9.928   7.119   9.514 -0.0049  0.0017 -0.0747
 1282ERGO    R316978   9.739   7.011   9.352  0.0444 -0.0449 -0.1015
 1282ERGO    R416979   9.913   7.164   9.172  0.0031  0.0270 -0.0715
 1282ERGO    R516980   9.696   7.182   9.189 -0.0011 -0.0468 -0.0883
 1282ERGO    C116981   9.726   7.090   8.820  0.0540 -0.0019 -0.0950
 1282ERGO    C216982   9.773   7.112   8.515  0.1246 -0.0390 -0.0069
 1283ERGO   ROH16983   5.416  14.500  10.317  0.0982  0.2832 -0.1436
 1283ERGO    R116984   5.339  14.399  10.065 -0.0710  0.1468 -0.0402
 1283ERGO    R216985   5.160  14.530   9.900  0.0451  0.2111 -0.1179
 1283ERGO    R316986   5.361  14.508   9.718 -0.0134 -0.1814 -0.1435
 1283ERGO    R416987   5.124  14.577   9.559  0.1281  0.4947 -0.0902
 1283ERGO    R516988   5.258  14.407   9.527 -0.2837  0.1750 -0.1952
 1283ERGO    C116989   5.292  14.583   9.190  0.1214  0.2914 -0.0982
 1283ERGO    C216990   5.145  14.563   8.827 -0.2677  0.0328  0.5950
 1284ERGO   ROH16991  13.316   2.086   6.366 -0.0740 -0.1953 -0.0415
 1284ERGO    R116992  13.166   1.884   6.496 -0.1385 -0.1204  0.0036
 1284ERGO    R216993  13.269   1.734   6.704 -0.1695 -0.1388  0.0100
 1284ERGO    R316994  13.045   1.819   6.834 -0.1168 -0.0292  0.0280
 1284ERGO    R416995  13.151   1.603   7.002 -0.3408 -0.2349 -0.0994
 1284ERGO    R516996  12.948   1.619   6.922 -0.3113 -0.0019 -0.1242
 1284ERGO    C116997  12.872   1.607   7.296 -0.3910 -0.1878 -0.1461
 1284ERGO    C216998  12.891   1.524   7.632 -0.0742 -0.0945  0.1538
 1285ERGO   ROH16999  14.602   2.016   6.221  0.0552 -0.1456 -0.0314
 1285ERGO    R117000  14.705   1.882   6.448  0.2180  0.0568  0.0188
 1285ERGO    R217001  14.836   2.013   6.652 -0.0988  0.3210  0.0627
 1285ERGO    R317002  14.650   1.891   6.807  0.0587 -0.0130 -0.0030
 1285ERGO    R417003  14.830   2.020   6.998 -0.1409  0.1713  0.0653
 1285ERGO    R517004  14.772   1.810   6.996  0.1588  0.0841 -0.0259
 1285ERGO    C117005  14.652   1.909   7.344 -0.0176 -0.2293  0.0051
 1285ERGO    C217006  14.624   2.073   7.597  0.1728  0.0311 -0.2691
 1286ERGO   ROH17007   4.345   6.948   9.929  0.0845  0.1365  0.1582
 1286ERGO    R117008   4.328   6.800   9.688 -0.0152  0.0720  0.2034
 1286ERGO    R217009   4.103   6.803   9.527 -0.0472  0.1121  0.2386
 1286ERGO    R317010   4.282   6.874   9.335 -0.0485 -0.0086  0.1927
 1286ERGO    R417011   4.039   6.800   9.187 -0.0806  0.0455  0.2456
 1286ERGO    R517012   4.240   6.721   9.155 -0.1221 -0.0352  0.2402
 1286ERGO    C117013   4.169   6.866   8.809 -0.1012 -0.1066  0.2065
 1286ERGO    C217014   4.198   6.813   8.453  0.1241 -0.0731 -0.0175
 1287ERGO   ROH17015  14.351   5.234   9.945 -0.0789  0.0328  0.0860
 1287ERGO    R117016  14.520   5.245   9.719 -0.0088 -0.0031  0.1360
 1287ERGO    R217017  14.609   5.018   9.588 -0.0422 -0.0211  0.1446
 1287ERGO    R317018  14.503   5.142   9.371  0.0603  0.0292  0.1226
 1287ERGO    R417019  14.694   4.949   9.260 -0.2445 -0.3008  0.1482
 1287ERGO    R517020  14.686   5.163   9.218  0.0454 -0.3043  0.0507
 1287ERGO    C117021  14.643   5.025   8.865 -0.2662 -0.4164  0.1298
 1287ERGO    C217022  14.739   4.980   8.515  0.0141  0.1627  0.3374
 1288ERGO   ROH17023   7.602   8.625   9.287 -0.0453  0.1558  0.2436
 1288ERGO    R117024   7.581   8.614   9.005  0.2915  0.2035  0.2120
 1288ERGO    R217025   7.346   8.669   8.870  0.2730 -0.3572 -0.0212
 1288ERGO    R317026   7.502   8.846   8.736 -0.0250  0.1125  0.2250
 1288ERGO    R417027   7.261   8.819   8.571  0.1941 -0.3924 -0.0165
 1288ERGO    R517028   7.467   8.792   8.505  0.3309  0.1524  0.1607
 1288ERGO    C117029   7.358   9.073   8.270 -0.1316  0.0280  0.2172
 1288ERGO    C217030   7.162   9.146   7.995 -0.0184  0.0090  0.1789
 1289ERGO   ROH17031  11.763  17.818  10.538 -0.0504  0.0833  0.0355
 1289ERGO    R117032  11.804  17.614  10.346  0.1012  0.0304  0.1228
 1289ERGO    R217033  11.639  17.580  10.128  0.1039 -0.2100  0.1591
 1289ERGO    R317034  11.872  17.597   9.989  0.0730 -0.0750  0.1213
 1289ERGO    R417035  11.672  17.515   9.790  0.0639 -0.1122  0.1358
 1289ERGO    R517036  11.861  17.415   9.833  0.1184 -0.0442  0.0775
 1289ERGO    C117037  11.910  17.493   9.463  0.0115  0.0718  0.0866
 1289ERGO    C217038  11.893  17.528   9.120 -0.2025  0.0664 -0.0906
 1290ERGO   ROH17039  11.532   6.327   6.099  0.1359  0.1863  0.0252
 1290ERGO    R117040  11.503   6.478   6.336  0.0988  0.0403  0.1151
 1290ERGO    R217041  11.305   6.427   6.523  0.0248 -0.0297  0.0164
 1290ERGO    R317042  11.515   6.415   6.694 -0.0348 -0.1956  0.0803
 1290ERGO    R417043  11.282   6.462   6.866 -0.0165  0.3190 -0.0185
 1290ERGO    R517044  11.466   6.579   6.861  0.1691  0.0380 -0.0819
 1290ERGO    C117045  11.467   6.471   7.226 -0.0965  0.3663  0.0212
 1290ERGO    C217046  11.635   6.459   7.443  0.1893  0.1132  0.2264
 1291ERGO   ROH17047   4.196  14.031   6.401 -0.0034  0.1156 -0.0953
 1291ERGO    R117048   4.404  14.088   6.584 -0.0087  0.1562 -0.1010
 1291ERGO    R217049   4.356  14.178   6.841 -0.0189  0.1329 -0.0925
 1291ERGO    R317050   4.512  13.965   6.909  0.0329  0.1652 -0.1118
 1291ERGO    R417051   4.526  14.146   7.140 -0.1302  0.0793 -0.0350
 1291ERGO    R517052   4.695  14.063   7.030 -0.0536  0.1866  0.0019
 1291ERGO    C117053   4.771  13.929   7.379 -0.1464  0.0785 -0.0195
 1291ERGO    C217054   4.749  13.869   7.713  0.3425  0.0423  0.1672
 1292ERGO   ROH17055  15.935  13.097   6.743  0.3334 -0.2575 -0.0164
 1292ERGO    R117056  16.101  13.139   6.969  0.1274  0.0627  0.0817
 1292ERGO    R217057  16.038  13.320   7.168 -0.3443 -0.0632  0.0555
 1292ERGO    R317058  16.072  13.103   7.329 -0.0087 -0.0102  0.0643
 1292ERGO    R417059  16.071  13.332   7.512  0.0427  0.0292  0.0199
 1292ERGO    R517060  16.224  13.178   7.498  0.1380  0.1310 -0.1235
 1292ERGO    C117061  16.122  13.136   7.864  0.5832  0.1326  0.0074
 1292ERGO    C217062  15.983  13.069   8.285  0.0520  0.1373  0.5439
 1293ERGO   ROH17063  10.977   1.345   6.736 -0.1018  0.2225  0.0693
 1293ERGO    R117064  10.920   1.411   7.005  0.0739  0.2641  0.0959
 1293ERGO    R217065  10.862   1.220   7.197 -0.0942  0.3155  0.0898
 1293ERGO    R317066  11.066   1.339   7.331  0.1012  0.0512  0.0396
 1293ERGO    R417067  10.913   1.198   7.538 -0.0714  0.2875  0.0859
 1293ERGO    R517068  10.968   1.409   7.538  0.2268  0.2195  0.0480
 1293ERGO    C117069  11.134   1.298   7.863  0.1253  0.0232  0.0366
 1293ERGO    C217070  11.159   1.374   8.266 -0.1452  0.4667  0.1402
 1294ERGO   ROH17071   8.797   1.913   6.568  0.2541 -0.2698  0.1665
 1294ERGO    R117072   8.889   1.879   6.834  0.1445 -0.2762  0.2039
 1294ERGO    R217073   8.825   2.054   7.038  0.2432 -0.1572  0.1319
 1294ERGO    R317074   8.739   1.828   7.161  0.0005 -0.0438  0.1764
 1294ERGO    R417075   8.795   2.015   7.380  0.1983 -0.0565  0.1400
 1294ERGO    R517076   8.873   1.813   7.359 -0.0151 -0.1472  0.1806
 1294ERGO    C117077   8.696   1.781   7.695 -0.0557  0.1086  0.1864
 1294ERGO    C217078   8.413   1.751   7.820 -0.3646  0.1288 -0.0619
 1295ERGO   ROH17079  13.991  10.165   9.735  0.1633 -0.0749 -0.0854
 1295ERGO    R117080  14.055  10.117   9.463  0.0596 -0.1521 -0.0966
 1295ERGO    R217081  13.884   9.986   9.291 -0.1043  0.0018 -0.0514
 1295ERGO    R317082  13.918  10.209   9.139  0.0770 -0.0379 -0.0725
 1295ERGO    R417083  13.850   9.996   8.947 -0.2919  0.0360 -0.0335
 1295ERGO    R517084  14.024  10.128   8.939 -0.1331 -0.1715 -0.1349
 1295ERGO    C117085  13.862  10.212   8.604 -0.2308  0.0188 -0.0428
 1295ERGO    C217086  13.831  10.124   8.334  0.0580  0.1461  0.0935
 1296ERGO   ROH17087   4.415   8.172   9.360  0.1052  0.0044 -0.1064
 1296ERGO    R117088   4.267   8.146   9.120  0.0360 -0.0200 -0.0611
 1296ERGO    R217089   4.109   8.349   9.021  0.1259  0.0224 -0.1120
 1296ERGO    R317090   4.258   8.312   8.796  0.0520 -0.1572 -0.1334
 1296ERGO    R417091   4.007   8.431   8.701  0.1195  0.0163 -0.1119
 1296ERGO    R517092   4.098   8.246   8.630 -0.0390 -0.0790 -0.0815
 1296ERGO    C117093   4.087   8.444   8.304  0.0463 -0.1559 -0.1319
 1296ERGO    C217094   3.912   8.691   8.121  0.1717 -0.0722  0.1530
 1297ERGO   ROH17095   0.690   8.667   6.387  0.0248 -0.0246 -0.0891
 1297ERGO    R117096   0.666   8.574   6.653  0.0692  0.1028 -0.0394
 1297ERGO    R217097   0.798   8.692   6.865 -0.0616  0.3393 -0.0838
 1297ERGO    R317098   0.548   8.708   6.970 -0.0927  0.1811 -0.1320
 1297ERGO    R417099   0.727   8.703   7.203 -0.1400  0.2665 -0.0979
 1297ERGO    R517100   0.558   8.571   7.166 -0.0528  0.1702 -0.1436
 1297ERGO    C117101   0.451   8.724   7.498 -0.2148  0.0756 -0.1514
 1297ERGO    C217102   0.371   8.752   7.725  0.0945  0.0394  0.1248
 1298ERGO   ROH17103  10.304   7.183   6.446 -0.1100  0.0422  0.0756
 1298ERGO    R117104  10.441   7.126   6.687 -0.0667  0.1596  0.0797
 1298ERGO    R217105  10.372   7.241   6.929 -0.2241  0.0417  0.0933
 1298ERGO    R317106  10.358   6.982   7.011  0.0648  0.0091  0.0473
 1298ERGO    R417107  10.445   7.131   7.248 -0.2271  0.0856  0.1088
 1298ERGO    R517108  10.544   6.958   7.161  0.0318  0.2204  0.1255
 1298ERGO    C117109  10.475   6.824   7.511  0.0425  0.0806  0.0747
 1298ERGO    C217110  10.398   6.847   7.820 -0.1449 -0.1723 -0.0804
 1299ERGO   ROH17111  11.042   9.792   9.471 -0.0065  0.2900 -0.0228
 1299ERGO    R117112  10.938   9.723   9.217 -0.0015  0.3954 -0.0541
 1299ERGO    R217113  10.962   9.888   8.996  0.2855  0.3477 -0.0628
 1299ERGO    R317114  11.072   9.666   8.883  0.0523  0.1970  0.0001
 1299ERGO    R417115  11.023   9.848   8.658  0.3304  0.2240 -0.0406
 1299ERGO    R517116  10.955   9.642   8.675  0.0779  0.3056 -0.0271
 1299ERGO    C117117  11.161   9.617   8.355  0.1375  0.0104  0.0313
 1299ERGO    C217118  11.161   9.649   8.002 -0.0246  0.0537  0.0621
 1300ERGO   ROH17119   1.466  16.660   6.968 -0.0065 -0.0662  0.0341
 1300ERGO    R117120   1.547  16.568   7.223 -0.0951 -0.1556  0.0300
 1300ERGO    R217121   1.402  16.618   7.453 -0.1546 -0.2060 -0.0001
 1300ERGO    R317122   1.412  16.348   7.479 -0.2007 -0.2162 -0.0748
 1300ERGO    R417123   1.368  16.447   7.751 -0.0905 -0.2720 -0.0298
 1300ERGO    R517124   1.527  16.313   7.687 -0.1366 -0.2902 -0.1191
 1300ERGO    C117125   1.359  16.094   7.950 -0.0965 -0.3199 -0.1172
 1300ERGO    C217126   1.123  15.965   8.047 -0.0162 -0.0760 -0.2705
 1301ERGO   ROH17127   9.481  10.144   5.757 -0.1147 -0.0795 -0.0190
 1301ERGO    R117128   9.230  10.070   5.865 -0.1549  0.0207 -0.0401
 1301ERGO    R217129   9.203   9.959   6.117 -0.1898 -0.2327 -0.1466
 1301ERGO    R317130   9.028  10.164   6.153  0.0005 -0.1113  0.1119
 1301ERGO    R417131   8.950   9.964   6.353 -0.0701 -0.2009 -0.0190
 1301ERGO    R517132   8.820  10.056   6.205 -0.0652  0.0311  0.1261
 1301ERGO    C117133   8.639  10.160   6.524  0.1781 -0.0685  0.2979
 1301ERGO    C217134   8.402  10.193   6.763 -0.1328  0.3481  0.1734
 1302ERGO   ROH17135  15.336  15.596   8.631  0.2749  0.0237 -0.1091
 1302ERGO    R117136  15.466  15.522   8.871  0.1275  0.0230 -0.0280
 1302ERGO    R217137  15.643  15.689   9.003  0.1017 -0.0055  0.0414
 1302ERGO    R317138  15.478  15.643   9.214 -0.0230  0.0683 -0.0379
 1302ERGO    R417139  15.748  15.606   9.321 -0.0877  0.0013  0.1071
 1302ERGO    R517140  15.583  15.464   9.333 -0.1370  0.0509  0.0387
 1302ERGO    C117141  15.654  15.514   9.705 -0.3151  0.0747  0.0708
 1302ERGO    C217142  15.556  15.441   9.974 -0.1557 -0.1114 -0.0301
 1303ERGO   ROH17143   7.146   9.866   9.618 -0.1720 -0.0906 -0.0132
 1303ERGO    R117144   7.218   9.851   9.345 -0.0465 -0.3608  0.0313
 1303ERGO    R217145   7.096   9.677   9.168 -0.3434 -0.1660  0.0358
 1303ERGO    R317146   7.053   9.904   9.024  0.2446 -0.1137 -0.0826
 1303ERGO    R417147   7.036   9.687   8.828 -0.4508 -0.2042  0.0534
 1303ERGO    R517148   7.163   9.863   8.815  0.0584 -0.5591 -0.1054
 1303ERGO    C117149   6.961   9.905   8.495  0.0386 -0.1773 -0.0475
 1303ERGO    C217150   6.900   9.975   8.111 -0.0580 -0.3436 -0.0465
 1304ERGO   ROH17151   8.289  13.000   6.333 -0.1006 -0.3011 -0.0239
 1304ERGO    R117152   8.142  13.083   6.561  0.1879 -0.1862  0.1234
 1304ERGO    R217153   7.911  12.957   6.642 -0.0035  0.1908  0.1595
 1304ERGO    R317154   8.043  12.937   6.879  0.0983 -0.2320  0.0776
 1304ERGO    R417155   7.763  12.879   6.945 -0.0454  0.4515  0.2098
 1304ERGO    R517156   7.891  13.029   7.040  0.4046  0.1091  0.1983
 1304ERGO    C117157   7.801  12.815   7.343  0.0257  0.2064  0.1622
 1304ERGO    C217158   7.825  12.824   7.683  0.3183  0.0057  0.1446
 1305ERGO   ROH17159   4.068   9.134   9.576 -0.3445  0.0974 -0.0189
 1305ERGO    R117160   4.191   9.273   9.362 -0.3440  0.0065 -0.0777
 1305ERGO    R217161   4.437   9.199   9.259 -0.1711  0.1846  0.2014
 1305ERGO    R317162   4.301   9.193   9.024  0.0199 -0.2454  0.0919
 1305ERGO    R417163   4.569   9.289   8.952 -0.1313  0.3742  0.2725
 1305ERGO    R517164   4.379   9.386   8.905 -0.3422 -0.0947  0.0800
 1305ERGO    C117165   4.518   9.336   8.553  0.0711  0.0809  0.2111
 1305ERGO    C217166   4.530   9.303   8.189  0.2814  0.1603 -0.0705
 1306ERGO   ROH17167   4.581  17.133   6.684  0.0641 -0.3511  0.0701
 1306ERGO    R117168   4.652  17.054   6.947  0.1786 -0.2097  0.0826
 1306ERGO    R217169   4.906  17.094   7.050  0.1293  0.1609  0.0738
 1306ERGO    R317170   4.770  17.219   7.249 -0.0443  0.0064  0.0552
 1306ERGO    R417171   5.027  17.147   7.369 -0.0525  0.1210  0.1506
 1306ERGO    R517172   4.829  17.098   7.447 -0.0628 -0.0297  0.0403
 1306ERGO    C117173   4.970  17.295   7.742 -0.3214 -0.0472  0.1779
 1306ERGO    C217174   4.971  17.466   8.074  0.1319  0.0623 -0.1580
 1307ERGO   ROH17175   6.140   4.953  10.157  0.1931  0.0653 -0.0671
 1307ERGO    R117176   6.000   4.976   9.912  0.1667 -0.0202 -0.0614
 1307ERGO    R217177   6.116   5.082   9.684  0.1385 -0.0821 -0.1102
 1307ERGO    R317178   6.037   4.846   9.574  0.1440 -0.1239 -0.0232
 1307ERGO    R417179   6.038   5.037   9.351  0.1595 -0.2179 -0.0965
 1307ERGO    R517180   5.872   4.909   9.412  0.1575 -0.1903 -0.0586
 1307ERGO    C117181   5.919   4.790   9.052  0.1770 -0.3361 -0.0069
 1307ERGO    C217182   5.914   4.766   8.642  0.1189  0.0076  0.2028
 1308ERGO   ROH17183   5.045  15.524   6.740  0.1271 -0.0145 -0.3817
 1308ERGO    R117184   4.811  15.477   6.891  0.2162  0.0445 -0.2231
 1308ERGO    R217185   4.641  15.264   6.841  0.0661  0.1553 -0.1868
 1308ERGO    R317186   4.683  15.211   7.104  0.2381  0.0205 -0.2391
 1308ERGO    R417187   4.426  15.083   7.041  0.0947  0.2237 -0.0935
 1308ERGO    R517188   4.464  15.225   7.202  0.3212  0.1341 -0.0627
 1308ERGO    C117189   4.339  14.927   7.405  0.2727  0.1370 -0.0883
 1308ERGO    C217190   4.399  14.706   7.626 -0.2674  0.1167 -0.3802
 1309ERGO   ROH17191   8.641   5.517   6.254 -0.0115 -0.0782  0.1290
 1309ERGO    R117192   8.710   5.723   6.435  0.1147 -0.0873  0.0915
 1309ERGO    R217193   8.575   5.764   6.672  0.0730  0.1026  0.0340
 1309ERGO    R317194   8.823   5.744   6.780  0.0216 -0.0892  0.1234
 1309ERGO    R417195   8.666   5.884   6.983  0.0906  0.1916 -0.0051
 1309ERGO    R517196   8.854   5.951   6.897  0.1904 -0.0478  0.0135
 1309ERGO    C117197   8.952   5.936   7.265  0.0524  0.0635  0.0560
 1309ERGO    C217198   9.100   5.893   7.534 -0.2396  0.0644 -0.2040
 1310ERGO   ROH17199  11.432  16.821   6.774 -0.1287 -0.0402  0.0892
 1310ERGO    R117200  11.522  16.628   6.960 -0.0085 -0.0751 -0.0036
 1310ERGO    R217201  11.482  16.653   7.232 -0.0178 -0.2258  0.0098
 1310ERGO    R317202  11.369  16.407   7.206  0.1280 -0.2827 -0.1020
 1310ERGO    R417203  11.424  16.435   7.493 -0.2064 -0.2366 -0.0396
 1310ERGO    R517204  11.487  16.271   7.364  0.0184 -0.2154  0.0405
 1310ERGO    C117205  11.284  16.076   7.621 -0.1794 -0.2962 -0.1732
 1310ERGO    C217206  11.027  15.991   7.767 -0.0136  0.2946  0.2313
 1311ERGO   ROH17207   5.231   7.137   9.438  0.1718  0.0798  0.1412
 1311ERGO    R117208   5.333   7.073   9.182  0.1885  0.1278  0.1353
 1311ERGO    R217209   5.185   6.936   8.992  0.2373  0.0665  0.1376
 1311ERGO    R317210   5.247   7.150   8.836  0.1392  0.0984  0.1419
 1311ERGO    R417211   5.201   6.931   8.647  0.2389  0.0891  0.1373
 1311ERGO    R517212   5.378   7.058   8.659  0.1788  0.1671  0.1387
 1311ERGO    C117213   5.270   7.128   8.300  0.1477  0.1322  0.1414
 1311ERGO    C217214   5.047   7.066   7.968  0.2057  0.0070 -0.2041
 1312ERGO   ROH17215  17.972  10.739   6.532 -0.1763 -0.1690 -0.2062
 1312ERGO    R117216  17.995  10.569   6.757 -0.1506 -0.0410 -0.1111
 1312ERGO    R217217  18.052  10.664   7.010 -0.1290  0.1044 -0.1698
 1312ERGO    R317218  17.825  10.529   7.076 -0.1191  0.1355 -0.0715
 1312ERGO    R417219  17.915  10.651   7.327 -0.1297  0.3286 -0.1589
 1312ERGO    R517220  17.870  10.440   7.294 -0.1135  0.2994 -0.0039
 1312ERGO    C117221  17.623  10.516   7.574 -0.1208  0.4885 -0.0603
 1312ERGO    C217222  17.516  10.607   7.929 -0.1749  0.0831  0.1383
 1313ERGO   ROH17223  10.664   5.129   6.691 -0.2606  0.0657  0.1392
 1313ERGO    R117224  10.841   5.077   6.906 -0.1308 -0.0890 -0.0019
 1313ERGO    R217225  10.820   5.204   7.151  0.2119 -0.0239  0.0002
 1313ERGO    R317226  10.815   4.950   7.246  0.0192 -0.0058  0.0416
 1313ERGO    R417227  10.948   5.106   7.456  0.1708 -0.0793 -0.0005
 1313ERGO    R517228  11.024   4.925   7.360  0.0139 -0.1564  0.0192
 1313ERGO    C117229  11.018   4.809   7.724 -0.0341 -0.0945  0.0380
 1313ERGO    C217230  10.917   4.719   8.141  0.0294  0.0219  0.1204
 1314ERGO   ROH17231  10.015   9.259   9.297  0.0497 -0.1372  0.1627
 1314ERGO    R117232  10.044   9.113   9.056  0.0590  0.0140  0.0709
 1314ERGO    R217233   9.850   9.108   8.860  0.0287  0.0657  0.0993
 1314ERGO    R317234  10.054   9.189   8.700 -0.0237  0.2274  0.1128
 1314ERGO    R417235   9.878   9.036   8.523  0.1510  0.0121  0.1205
 1314ERGO    R517236  10.092   9.004   8.553  0.1792  0.2267  0.1621
 1314ERGO    C117237  10.086   9.070   8.177  0.1729  0.1327  0.1457
 1314ERGO    C217238  10.097   8.883   7.951 -0.3198  0.2079  0.0494
 1315ERGO   ROH17239   8.837  15.581   6.026 -0.0026 -0.2171 -0.0215
 1315ERGO    R117240   8.872  15.695   6.283  0.0617 -0.0791 -0.0891
 1315ERGO    R217241   8.660  15.776   6.440  0.0932 -0.0741 -0.0420
 1315ERGO    R317242   8.775  15.612   6.623  0.2240  0.0512 -0.0109
 1315ERGO    R417243   8.625  15.807   6.782 -0.0358 -0.1198 -0.0514
 1315ERGO    R517244   8.836  15.757   6.804  0.0122  0.1144  0.0083
 1315ERGO    C117245   8.712  15.670   7.154  0.0118 -0.0289 -0.0276
 1315ERGO    C217246   8.544  15.763   7.366  0.1542  0.0384 -0.0087
 1316ERGO   ROH17247   1.038   6.370   6.319  0.1275 -0.3056 -0.0502
 1316ERGO    R117248   1.098   6.281   6.581  0.3746 -0.2787 -0.0963
 1316ERGO    R217249   1.351   6.294   6.688  0.3475  0.3715 -0.0968
 1316ERGO    R317250   1.225   6.428   6.888 -0.0304 -0.0722 -0.0177
 1316ERGO    R417251   1.418   6.254   7.025  0.2676  0.1541 -0.1041
 1316ERGO    R517252   1.203   6.266   7.064  0.2038 -0.3124 -0.1918
 1316ERGO    C117253   1.338   6.357   7.409 -0.1337 -0.3890 -0.0340
 1316ERGO    C217254   1.362   6.512   7.753  0.2544 -0.2625  0.2097
 1317ERGO   ROH17255   2.192   7.831   9.714  0.0837  0.1369  0.0229
 1317ERGO    R117256   2.277   7.754   9.455  0.1022  0.1616  0.0214
 1317ERGO    R217257   2.105   7.744   9.239  0.0449 -0.1201  0.0749
 1317ERGO    R317258   2.291   7.906   9.125 -0.1893  0.0801 -0.0319
 1317ERGO    R417259   2.126   7.815   8.901 -0.0364 -0.3470  0.0211
 1317ERGO    R517260   2.343   7.801   8.916 -0.0113 -0.0054  0.0532
 1317ERGO    C117261   2.312   8.008   8.597 -0.3036 -0.2912 -0.1104
 1317ERGO    C217262   2.287   8.206   8.282  0.1587 -0.2196 -0.3106
 1318ERGO   ROH17263  14.659   7.887   9.060 -0.0611  0.1825  0.0123
 1318ERGO    R117264  14.590   7.826   8.793  0.1950  0.0679 -0.0301
 1318ERGO    R217265  14.457   8.004   8.629 -0.0215 -0.1543 -0.0978
 1318ERGO    R317266  14.667   7.959   8.463  0.1563  0.2104  0.0167
 1318ERGO    R417267  14.444   8.030   8.285  0.0405 -0.4180 -0.1225
 1318ERGO    R517268  14.569   7.852   8.272  0.4652 -0.1530  0.0481
 1318ERGO    C117269  14.634   8.003   7.928  0.2435 -0.2290 -0.0294
 1318ERGO    C217270  14.668   8.214   7.691  0.0153 -0.0057  0.1126
 1319ERGO   ROH17271  12.967  15.223   6.955  0.0782  0.3947  0.2006
 1319ERGO    R117272  12.996  15.146   7.226  0.0836  0.2866  0.1700
 1319ERGO    R217273  13.230  15.036   7.325  0.0296  0.0900  0.0849
 1319ERGO    R317274  13.211  15.239   7.505  0.2108  0.0472  0.1545
 1319ERGO    R417275  13.323  15.015   7.657 -0.2275 -0.1891  0.1435
 1319ERGO    R517276  13.146  15.132   7.709 -0.0920  0.0559  0.0676
 1319ERGO    C117277  13.359  15.193   8.019 -0.2071 -0.3916  0.2430
 1319ERGO    C217278  13.379  15.399   8.281 -0.1734 -0.0211 -0.0669
 1320ERGO   ROH17279   7.916  11.627   6.218 -0.1838 -0.1974  0.1328
 1320ERGO    R117280   7.886  11.593   6.498 -0.0472 -0.2464  0.1419
 1320ERGO    R217281   8.004  11.385   6.636  0.2534 -0.1099  0.0928
 1320ERGO    R317282   8.105  11.587   6.788  0.0626  0.0065  0.0687
 1320ERGO    R417283   8.044  11.372   6.979  0.2360 -0.0262  0.0984
 1320ERGO    R517284   7.975  11.579   6.990  0.0489 -0.0803  0.0600
 1320ERGO    C117285   8.161  11.553   7.322  0.0467  0.1318  0.0791
 1320ERGO    C217286   8.248  11.505   7.688  0.0573  0.0883  0.0383
 1321ERGO   ROH17287  15.331  11.982   6.495  0.0152 -0.2546  0.1264
 1321ERGO    R117288  15.262  12.075   6.753  0.0571 -0.0891  0.0796
 1321ERGO    R217289  15.101  11.929   6.925 -0.0158  0.0759  0.1525
 1321ERGO    R317290  15.310  11.962   7.096 -0.0014  0.0609  0.1379
 1321ERGO    R417291  15.106  11.824   7.254  0.0584 -0.0630  0.1074
 1321ERGO    R517292  15.208  12.009   7.307  0.0144 -0.0570  0.1722
 1321ERGO    C117293  15.306  11.793   7.606  0.1149 -0.1578  0.0675
 1321ERGO    C217294  15.447  11.601   7.683 -0.0894  0.2161 -0.0871
 1322ERGO   ROH17295   5.726  12.155  10.037  0.1856 -0.2033  0.2083
 1322ERGO    R117296   5.886  12.121   9.806  0.0260  0.1279  0.0447
 1322ERGO    R217297   5.887  11.887   9.659  0.2816  0.1674 -0.0097
 1322ERGO    R317298   5.828  12.054   9.453 -0.1977  0.1239  0.0786
 1322ERGO    R417299   5.844  11.789   9.330  0.3709  0.1812 -0.0269
 1322ERGO    R517300   5.952  11.967   9.268 -0.0598  0.4735 -0.0091
 1322ERGO    C117301   5.763  11.888   8.946 -0.0272  0.1482  0.0458
 1322ERGO    C217302   5.723  11.952   8.611  0.1488 -0.3169  0.0602
 1323ERGO   ROH17303   2.637   9.345   9.358  0.1096  0.0795  0.0634
 1323ERGO    R117304   2.698   9.416   9.091  0.0847  0.0573  0.0519
 1323ERGO    R217305   2.821   9.242   8.915  0.0745  0.0455  0.0576
 1323ERGO    R317306   2.606   9.299   8.759  0.0600  0.0251  0.0698
 1323ERGO    R417307   2.828   9.264   8.570  0.0321 -0.0555  0.0499
 1323ERGO    R517308   2.695   9.436   8.583  0.0534 -0.0355  0.0179
 1323ERGO    C117309   2.630   9.330   8.223 -0.0062 -0.1334  0.0568
 1323ERGO    C217310   2.439   9.221   8.020 -0.1671  0.1124 -0.0541
 1324ERGO   ROH17311  11.280   0.330   6.809  0.1343  0.4418 -0.1470
 1324ERGO    R117312  11.383   0.465   7.036  0.2032  0.2808 -0.0815
 1324ERGO    R217313  11.339   0.377   7.294  0.1539  0.1828 -0.1268
 1324ERGO    R317314  11.610   0.387   7.309  0.1600  0.0339 -0.1121
 1324ERGO    R417315  11.520   0.416   7.586  0.1571 -0.0431 -0.0966
 1324ERGO    R517316  11.655   0.549   7.479  0.2340 -0.0621 -0.0340
 1324ERGO    C117317  11.880   0.448   7.770  0.1646 -0.3144 -0.0653
 1324ERGO    C217318  12.172   0.395   7.952 -0.1537 -0.0074 -0.1223
 1325ERGO   ROH17319   8.717   8.414   9.237  0.0263 -0.0866  0.1062
 1325ERGO    R117320   8.643   8.484   8.973  0.1999 -0.0162  0.0744
 1325ERGO    R217321   8.740   8.353   8.752 -0.0118 -0.2696  0.1258
 1325ERGO    R317322   8.476   8.322   8.693 -0.0702  0.2162  0.0964
 1325ERGO    R417323   8.610   8.335   8.432  0.0305 -0.3322  0.1121
 1325ERGO    R517324   8.443   8.458   8.499  0.2622  0.0902 -0.0553
 1325ERGO    C117325   8.287   8.296   8.191  0.0003  0.0873  0.0763
 1325ERGO    C217326   8.483   8.332   7.759  0.0488  0.0146 -0.2593
 1326ERGO   ROH17327  13.041   7.208   6.227  0.2944  0.0930  0.1922
 1326ERGO    R117328  12.938   7.208   6.490 -0.0798  0.2041  0.0524
 1326ERGO    R217329  13.100   7.217   6.714 -0.3562 -0.2759  0.2889
 1326ERGO    R317330  12.945   7.431   6.778  0.0388  0.0618  0.1619
 1326ERGO    R417331  13.076   7.356   7.029 -0.3438 -0.2533  0.2799
 1326ERGO    R517332  12.862   7.381   6.996 -0.2738  0.2136  0.0843
 1326ERGO    C117333  12.916   7.638   7.273  0.0343  0.0769  0.1553
 1326ERGO    C217334  13.105   7.706   7.603 -0.0927  0.0139  0.0650
 1327ERGO   ROH17335  15.992  16.694  10.471  0.1708  0.5237 -0.0806
 1327ERGO    R117336  15.982  16.536  10.235  0.1451  0.2921  0.0736
 1327ERGO    R217337  15.808  16.591  10.027  0.1582  0.1145  0.0241
 1327ERGO    R317338  16.036  16.589   9.879  0.1536 -0.0734  0.0145
 1327ERGO    R417339  15.820  16.620   9.683  0.1510  0.0998  0.0218
 1327ERGO    R517340  15.977  16.468   9.681  0.0356 -0.0351  0.0176
 1327ERGO    C117341  16.041  16.635   9.344  0.1425 -0.0848  0.0115
 1327ERGO    C217342  15.929  16.716   9.080  0.1168 -0.1104  0.1969
 1328ERGO   ROH17343   9.680   5.828   9.842  0.1543  0.0217  0.0334
 1328ERGO    R117344   9.830   5.751   9.615  0.1170  0.0600 -0.0059
 1328ERGO    R217345   9.853   5.488   9.535  0.1305  0.0650 -0.0387
 1328ERGO    R317346   9.762   5.585   9.298  0.0668  0.0832 -0.0055
 1328ERGO    R417347   9.957   5.379   9.224  0.1304  0.1817 -0.0788
 1328ERGO    R517348   9.955   5.586   9.156  0.0432  0.1909 -0.0303
 1328ERGO    C117349   9.932   5.407   8.820  0.0705  0.2667 -0.0711
 1328ERGO    C217350   9.950   5.272   8.598  0.2632  0.0906 -0.0236
 1329ERGO   ROH17351  10.870   3.534   6.613  0.0740  0.2168 -0.0064
 1329ERGO    R117352  10.795   3.497   6.883  0.0157  0.0089 -0.0481
 1329ERGO    R217353  10.905   3.645   7.089 -0.0418 -0.1327  0.0907
 1329ERGO    R317354  10.644   3.700   7.145 -0.0593 -0.1964  0.0686
 1329ERGO    R417355  10.789   3.764   7.392 -0.0952 -0.1212  0.0649
 1329ERGO    R517356  10.617   3.632   7.373 -0.0554 -0.1694  0.0747
 1329ERGO    C117357  10.477   3.885   7.621 -0.1428 -0.1743  0.0292
 1329ERGO    C217358  10.294   3.820   7.901  0.2324 -0.0219  0.0860
 1330ERGO   ROH17359   6.114   1.809   6.697  0.0641 -0.4035  0.0400
 1330ERGO    R117360   6.201   1.743   6.958  0.1499 -0.2414  0.0550
 1330ERGO    R217361   6.336   1.922   7.120  0.1369 -0.1098 -0.0650
 1330ERGO    R317362   6.137   1.863   7.296  0.1924 -0.0834  0.0049
 1330ERGO    R417363   6.376   1.889   7.462  0.2670 -0.2786 -0.0965
 1330ERGO    R517364   6.240   1.719   7.457  0.1852 -0.2003 -0.1039
 1330ERGO    C117365   6.213   1.813   7.825  0.3948 -0.3522 -0.0493
 1330ERGO    C217366   6.288   1.601   8.117  0.0058 -0.0303 -0.1709
 1331ERGO   ROH17367   6.256   6.053   9.560 -0.0949 -0.0143  0.0254
 1331ERGO    R117368   6.371   5.994   9.308 -0.0829 -0.0036  0.0282
 1331ERGO    R217369   6.252   5.823   9.127 -0.0522 -0.0307  0.0338
 1331ERGO    R317370   6.277   6.035   8.959 -0.0876 -0.0324  0.0261
 1331ERGO    R417371   6.232   5.806   8.782 -0.0712 -0.0432  0.0355
 1331ERGO    R517372   6.396   5.948   8.770 -0.0886 -0.0239  0.0214
 1331ERGO    C117373   6.243   5.996   8.424 -0.1155 -0.0522  0.0293
 1331ERGO    C217374   6.098   5.948   8.118  0.1349  0.2623 -0.0056
 1332ERGO   ROH17375  10.544  12.697   9.796 -0.2928 -0.0101 -0.0034
 1332ERGO    R117376  10.368  12.800   9.601 -0.2571 -0.0650 -0.0653
 1332ERGO    R217377  10.454  12.958   9.391 -0.2198 -0.1136 -0.0880
 1332ERGO    R317378  10.326  12.771   9.241 -0.1820 -0.1571 -0.0666
 1332ERGO    R417379  10.320  13.015   9.078 -0.0903 -0.2245 -0.1648
 1332ERGO    R517380  10.149  12.892   9.134 -0.1255 -0.1808 -0.1853
 1332ERGO    C117381  10.121  12.873   8.754  0.0206 -0.3298 -0.1895
 1332ERGO    C217382  10.181  13.022   8.449  0.2922 -0.0980  0.2484
 1333ERGO   ROH17383  15.268  10.320   9.939  0.4298  0.2228  0.1040
 1333ERGO    R117384  15.327  10.476   9.710  0.2108  0.1231 -0.0239
 1333ERGO    R217385  15.534  10.414   9.538  0.2100  0.1941 -0.0484
 1333ERGO    R317386  15.337  10.424   9.350  0.1370 -0.1132  0.0062
 1333ERGO    R417387  15.583  10.382   9.197  0.1536  0.1852 -0.0562
 1333ERGO    R517388  15.436  10.540   9.166 -0.0720 -0.0172 -0.0493
 1333ERGO    C117389  15.427  10.373   8.823  0.0524 -0.1086 -0.0094
 1333ERGO    C217390  15.393  10.428   8.558 -0.0786 -0.1357  0.1410
 1334ERGO   ROH17391  11.227   2.515   6.584  0.0735 -0.0193 -0.0662
 1334ERGO    R117392  11.093   2.576   6.826 -0.0173 -0.3180 -0.0365
 1334ERGO    R217393  11.108   2.414   7.049  0.5797 -0.1946  0.0305
 1334ERGO    R317394  11.189   2.643   7.171 -0.0573  0.1260 -0.1054
 1334ERGO    R417395  11.073   2.481   7.386  0.7129 -0.2576  0.0575
 1334ERGO    R517396  11.020   2.686   7.335 -0.0483 -0.4228  0.0689
 1334ERGO    C117397  11.129   2.735   7.697  0.1923  0.0067 -0.0543
 1334ERGO    C217398  11.162   2.900   8.014 -0.0051  0.1693  0.0753
 1335ERGO   ROH17399  12.453   9.402   9.351 -0.0053  0.0958  0.0049
 1335ERGO    R117400  12.474   9.542   9.106  0.1132  0.0430 -0.0157
 1335ERGO    R217401  12.646   9.463   8.904 -0.0546 -0.2188 -0.0608
 1335ERGO    R317402  12.420   9.467   8.754 -0.0997  0.0793  0.0075
 1335ERGO    R417403  12.637   9.485   8.559 -0.1253 -0.2069 -0.0581
 1335ERGO    R517404  12.467   9.620   8.577  0.0525  0.0204 -0.0063
 1335ERGO    C117405  12.418   9.501   8.218 -0.2088  0.0800  0.0075
 1335ERGO    C217406  12.529   9.451   7.893  0.1725  0.2219  0.4185
 1336ERGO   ROH17407  17.968   1.241   6.603  0.1507 -0.1473  0.1007
 1336ERGO    R117408  18.090   1.138   6.837  0.0653 -0.1534  0.1428
 1336ERGO    R217409  18.306   1.260   6.958  0.1267 -0.2473  0.1298
 1336ERGO    R317410  18.146   1.253   7.178  0.0987 -0.0888  0.1157
 1336ERGO    R417411  18.418   1.253   7.285  0.0908 -0.3157  0.1406
 1336ERGO    R517412  18.261   1.110   7.331 -0.0392 -0.1761  0.1391
 1336ERGO    C117413  18.333   1.242   7.681  0.0436 -0.2066  0.1336
 1336ERGO    C217414  18.365   1.510   7.957  0.0032  0.2429  0.0865
 1337ERGO   ROH17415   0.230   6.993   9.791  0.1270 -0.1324  0.0589
 1337ERGO    R117416   0.391   7.020   9.560  0.0659  0.0400  0.0365
 1337ERGO    R217417   0.428   6.814   9.379  0.2312  0.0925  0.0183
 1337ERGO    R317418   0.342   7.000   9.200  0.0319  0.0262  0.0401
 1337ERGO    R417419   0.479   6.798   9.037  0.0177  0.0463 -0.0139
 1337ERGO    R517420   0.518   7.012   9.038 -0.0722  0.0700 -0.0781
 1337ERGO    C117421   0.428   6.963   8.670 -0.2937 -0.0429 -0.0122
 1337ERGO    C217422   0.454   6.871   8.297 -0.3491 -0.0206 -0.1596
 1338ERGO   ROH17423   7.877   9.052   9.147  0.2742  0.0264 -0.0395
 1338ERGO    R117424   7.913   9.179   8.897  0.1350 -0.0679 -0.1115
 1338ERGO    R217425   7.924   9.039   8.660 -0.0505 -0.1579 -0.0811
 1338ERGO    R317426   7.725   9.210   8.587 -0.0685 -0.1457  0.0048
 1338ERGO    R417427   7.862   9.141   8.335  0.0826  0.1966  0.0022
 1338ERGO    R517428   7.823   9.342   8.412 -0.0285  0.0902  0.2087
 1338ERGO    C117429   7.639   9.360   8.078  0.1434  0.4146  0.1314
 1338ERGO    C217430   7.557   9.417   7.750  0.1394  0.0055  0.1321
 1339ERGO   ROH17431  14.613   8.639   9.600 -0.1143 -0.1746  0.0099
 1339ERGO    R117432  14.692   8.590   9.333 -0.1458 -0.0181 -0.0299
 1339ERGO    R217433  14.694   8.337   9.222  0.0322  0.0162 -0.1179
 1339ERGO    R317434  14.539   8.455   9.032 -0.1190 -0.0420 -0.0315
 1339ERGO    R417435  14.738   8.303   8.881 -0.0100  0.2186 -0.1441
 1339ERGO    R517436  14.692   8.515   8.858 -0.2147  0.1840 -0.0377
 1339ERGO    C117437  14.619   8.394   8.504 -0.1765  0.2818 -0.0784
 1339ERGO    C217438  14.799   8.392   8.221 -0.1840 -0.0203  0.3713
 1340ERGO   ROH17439   4.383   1.276  10.351  0.1853 -0.0104  0.1136
 1340ERGO    R117440   4.447   1.184  10.092  0.1813  0.0114  0.1057
 1340ERGO    R217441   4.275   1.211   9.877  0.1485 -0.0403  0.1307
 1340ERGO    R317442   4.489   1.332   9.762  0.0964  0.0247  0.0992
 1340ERGO    R417443   4.311   1.268   9.538  0.0468  0.0247  0.1296
 1340ERGO    R517444   4.521   1.213   9.556  0.0670  0.0631  0.0685
 1340ERGO    C117445   4.534   1.414   9.233 -0.0611  0.1236  0.0995
 1340ERGO    C217446   4.417   1.334   8.947  0.0795  0.2608 -0.1721
 1341ERGO   ROH17447  17.123  13.045   6.997 -0.0209  0.2690 -0.0078
 1341ERGO    R117448  17.034  13.102   7.259 -0.0267  0.0823  0.0329
 1341ERGO    R217449  17.152  12.993   7.484  0.0763  0.0502 -0.0305
 1341ERGO    R317450  17.173  13.253   7.559 -0.0873  0.0302  0.0861
 1341ERGO    R417451  17.236  13.101   7.801  0.5156 -0.0439 -0.1085
 1341ERGO    R517452  17.086  13.258   7.782  0.2992 -0.2003  0.2481
 1341ERGO    C117453  17.304  13.408   8.057  0.6178 -0.1174 -0.0444
 1341ERGO    C217454  17.380  13.679   8.172  0.2094 -0.2254  0.3924
 1342ERGO   ROH17455  16.092  17.156  10.334 -0.0601 -0.0496  0.0372
 1342ERGO    R117456  16.131  17.027  10.085 -0.1319 -0.1322  0.0673
 1342ERGO    R217457  15.947  17.044   9.879 -0.1568 -0.1350  0.0828
 1342ERGO    R317458  16.163  17.129   9.737 -0.1481 -0.2371  0.0362
 1342ERGO    R417459  15.968  17.049   9.534 -0.2778 -0.0047  0.0773
 1342ERGO    R517460  16.174  16.980   9.550 -0.3263 -0.1636 -0.0298
 1342ERGO    C117461  16.182  17.131   9.200 -0.3399 -0.0248  0.0304
 1342ERGO    C217462  16.170  17.245   8.905  0.1369  0.2081 -0.0813
 1343ERGO   ROH17463  10.475   0.154  10.534  0.0351  0.1168  0.0007
 1343ERGO    R117464  10.611   0.195  10.289 -0.0326  0.0353 -0.0506
 1343ERGO    R217465  10.739  -0.008  10.153  0.0256  0.0131  0.0414
 1343ERGO    R317466  10.582   0.074   9.947 -0.0501 -0.1716  0.0221
 1343ERGO    R417467  10.795  -0.084   9.821  0.1361  0.0434  0.0523
 1343ERGO    R517468  10.737   0.120   9.770 -0.0815 -0.0187  0.0307
 1343ERGO    C117469  10.681  -0.051   9.433  0.1293 -0.1126  0.0408
 1343ERGO    C217470  10.675  -0.092   9.099 -0.1018 -0.0844 -0.1960
 1344ERGO   ROH17471   0.884  16.386   6.748  0.1605 -0.2729 -0.1905
 1344ERGO    R117472   0.716  16.255   6.934  0.0699 -0.1906 -0.2141
 1344ERGO    R217473   0.690  15.980   6.942  0.0620 -0.1846 -0.1101
 1344ERGO    R317474   0.757  16.013   7.203 -0.0637 -0.0775 -0.0897
 1344ERGO    R417475   0.732  15.723   7.169  0.2510 -0.1148 -0.0630
 1344ERGO    R517476   0.631  15.845   7.318  0.0678 -0.1969 -0.1133
 1344ERGO    C117477   0.819  15.604   7.546  0.2430  0.0264 -0.0165
 1344ERGO    C217478   0.805  15.542   7.805 -0.3477 -0.0134 -0.1299
 1345W        W17479   6.193   0.962  13.444 -0.3154 -0.0326 -0.1983
 1346W        W17480  12.870   5.735  11.309 -0.0813  0.3112  0.0615
 1347W        W17481   6.651   8.673   0.177 -0.0135 -0.1415  0.1405
 1348W        W17482  15.248  17.109  13.316  0.0374  0.0605  0.1675
 1349W        W17483  14.436   9.328  14.132  0.0636 -0.4234  0.0097
 1350W        W17484   5.861   2.446   3.839 -0.2855  0.1493 -0.2560
 1351W        W17485   5.607   3.246   2.890  0.2158 -0.0592 -0.1163
 1352W        W17486   0.852   6.680   1.922  0.2841 -0.1079 -0.2328
 1353W        W17487  12.244  11.955  11.557  0.0712 -0.0280  0.4232
 1354W        W17488  12.293  12.804   2.504  0.5264 -0.0812 -0.1269
 1355W        W17489  11.414  10.025  10.733 -0.1768  0.1130 -0.1541
 1356W        W17490   3.692   3.135   3.250 -0.0876  0.3368  0.1039
 1357W        W17491   6.663   8.020  13.631 -0.1555  0.1478  0.1273
 1358W        W17492   9.358   7.039  15.178 -0.2944 -0.1095 -0.1690
 1359W        W17493   2.694   8.070  15.995 -0.1248  0.0278  0.3132
 1360W        W17494  12.657   7.707  11.326 -0.2200 -0.1004 -0.1216
 1361W        W17495   8.411   1.436  12.600 -0.1911 -0.2838 -0.1473
 1362W        W17496  15.353   5.681   0.857  0.1827 -0.1421 -0.1631
 1363W        W17497  15.662   1.350  14.730 -0.2923 -0.2669  0.1952
 1364W        W17498   1.312   3.841   0.244 -0.1622  0.0345 -0.4182
 1365W        W17499   1.244   7.869   5.658  0.0263 -0.1042 -0.2447
 1366W        W17500  11.071   8.554   4.388 -0.0212  0.3769  0.3323
 1367W        W17501  11.358  13.596   4.950  0.3084  0.0115  0.2330
 1368W        W17502   6.915  13.434   1.100  0.0949 -0.0839 -0.1128
 1369W        W17503   5.675   7.681   3.313 -0.0575 -0.1579  0.0168
 1370W        W17504   4.251  11.888   4.863 -0.1296  0.0159  0.1091
 1371W        W17505  10.268  10.618  14.788  0.2247 -0.1255 -0.2059
 1372W        W17506   8.556   5.661  16.095 -0.1975  0.1372  0.0149
 1373W        W17507   4.920  17.193  16.494 -0.6281 -0.2612  0.0366
 1374W        W17508  16.268   8.819  14.358  0.1131  0.1744 -0.4037
 1375W        W17509   1.620  11.802   1.220 -0.0550 -0.0898 -0.2211
 1376W        W17510   0.838  17.585   1.350 -0.1241  0.1658  0.1528
 1377W        W17511   1.843   8.509  11.696 -0.0307  0.0773  0.0701
 1378W        W17512  13.975  14.814  12.577 -0.2404  0.0288  0.1160
 1379W        W17513   7.946   0.060   5.247  0.0088 -0.0243  0.2132
 1380W        W17514   6.892   6.677  16.064 -0.0940 -0.2689  0.2073
 1381W        W17515   4.182  14.387  11.851 -0.0752  0.1366 -0.3441
 1382W        W17516   7.622  16.431  13.156  0.2936  0.0181 -0.2072
 1383W        W17517   2.489  12.735  11.902  0.0677  0.4353 -0.0804
 1384W        W17518   4.212  13.100   1.744 -0.3655  0.2049  0.1816
 1385W        W17519  12.775  15.936   1.306  0.1189  0.2975  0.3877
 1386W        W17520  17.944  15.967   1.954  0.1706 -0.0592 -0.0207
 1387W        W17521   8.526   9.866  14.317 -0.3567 -0.2646  0.1049
 1388W        W17522   2.341  16.313  15.093  0.1295 -0.0035 -0.0118
 1389W        W17523  17.135   3.018  15.816 -0.2525 -0.1680 -0.3396
 1390W        W17524   0.278  17.936  12.521 -0.2592  0.4723 -0.1645
 1391W        W17525   4.647   9.580   3.880 -0.1284 -0.0289  0.2372
 1392W        W17526   0.350  12.789   1.730 -0.3922 -0.1709  0.2576
 1393W        W17527  17.633  13.608   0.742  0.0122  0.0326  0.1273
 1394W        W17528   3.644   3.774   5.534  0.1466 -0.1107 -0.0506
 1395W        W17529   1.665  13.387   0.366  0.0797 -0.0193  0.1837
 1396W        W17530  12.450   7.675   0.478 -0.1205  0.0510 -0.2392
 1397W        W17531  18.097  17.199   5.233 -0.2196 -0.0916  0.0967
 1398W        W17532   9.030  16.034  14.986 -0.2530  0.2242 -0.1701
 1399W        W17533   4.340  17.935   4.106 -0.0347  0.0193 -0.2564
 1400W        W17534   6.669   3.900   6.484 -0.1733  0.1510  0.1237
 1401W        W17535   4.157  14.648   1.874  0.0200  0.1428 -0.0159
 1402W        W17536   9.946   6.849  12.123 -0.0379 -0.1700 -0.0409
 1403W        W17537  12.182  16.393  13.591 -0.0126 -0.1014  0.0540
 1404W        W17538  13.427   3.173  12.702  0.2220  0.1904 -0.2848
 1405W        W17539   6.425   5.089   5.797  0.0472 -0.0138  0.1156
 1406W        W17540   3.155  17.864  14.784 -0.1516 -0.0595  0.0680
 1407W        W17541  16.287  14.938   3.291 -0.2109 -0.1782  0.2080
 1408W        W17542   5.360   0.080   1.351 -0.3267  0.5258  0.0004
 1409W        W17543  16.022  11.010  13.062  0.1375 -0.0158 -0.1237
 1410W        W17544  11.669   2.329   1.841 -0.3273 -0.1533 -0.0768
 1411W        W17545   1.119   0.596   5.160  0.1130 -0.0213 -0.1705
 1412W        W17546   0.034  14.956   0.972  0.1093 -0.2733 -0.0904
 1413W        W17547   5.209  15.815  13.828  0.0071  0.2818 -0.0039
 1414W        W17548  16.736  12.615   1.804 -0.1920  0.0061 -0.2598
 1415W        W17549   7.452  17.700  14.710  0.0397  0.1210 -0.1356
 1416W        W17550   9.421   9.745  10.925  0.0189 -0.1965 -0.0185
 1417W        W17551  15.697  15.024  15.172 -0.0181  0.0969  0.0484
 1418W        W17552  13.154  12.721  14.692 -0.1045  0.0331  0.0615
 1419W        W17553   7.307   7.485  11.224 -0.2563  0.2032  0.1434
 1420W        W17554  17.916  14.007  12.807 -0.0891  0.0076 -0.2570
 1421W        W17555   3.482  12.987   5.212  0.1746 -0.0541 -0.0263
 1422W        W17556   0.407   2.600   2.944  0.1076  0.0561 -0.1091
 1423W        W17557  12.483   6.242   5.061  0.1187  0.1818  0.1636
 1424W        W17558   3.865   0.679  16.350 -0.0837 -0.1576 -0.4170
 1425W        W17559   3.455   7.683  13.633 -0.2730  0.0558  0.1757
 1426W        W17560   4.050   3.319  12.793  0.1960  0.0590  0.0790
 1427W        W17561   6.665   0.904   0.200 -0.1265  0.0953 -0.0457
 1428W        W17562  16.921   6.968  13.597 -0.1522  0.0499  0.0559
 1429W        W17563  10.350   9.882  12.992  0.0988 -0.0176  0.0751
 1430W        W17564   3.619  13.119   6.036 -0.2639 -0.2111 -0.4281
 1431W        W17565  16.647   3.032  15.875 -0.0665 -0.1622  0.0741
 1432W        W17566   2.927   1.736   2.925 -0.6063 -0.1124  0.0967
 1433W        W17567   7.508   0.709  12.094 -0.0173  0.1972  0.1944
 1434W        W17568   4.168   2.865  16.365  0.1811 -0.1577 -0.0870
 1435W        W17569   1.005  10.689   5.770  0.1407  0.0621 -0.3302
 1436W        W17570   5.178   0.339  12.515 -0.0366 -0.0894 -0.1070
 1437W        W17571  11.296   5.013   0.957  0.1242  0.1347 -0.3198
 1438W        W17572   6.877  16.376  15.984  0.0049  0.2610 -0.0270
 1439W        W17573   2.329   7.032  11.610 -0.0071 -0.0613  0.0653
 1440W        W17574   3.188  12.939   0.965  0.3565 -0.1750  0.0443
 1441W        W17575  10.977  16.247   3.521 -0.0624  0.0979 -0.0072
 1442W        W17576  12.502  14.614  15.548  0.1108 -0.0666  0.0813
 1443W        W17577   5.194  10.844   3.374  0.1074  0.2682  0.0469
 1444W        W17578  16.761  17.674  12.432  0.5162 -0.0196  0.1861
 1445W        W17579  10.429  16.600   2.699 -0.0337 -0.2462 -0.1864
 1446W        W17580   2.301   6.229  12.791 -0.0289 -0.2460 -0.1495
 1447W        W17581  18.102   9.213   1.083 -0.2666 -0.3453  0.0526
 1448W        W17582   3.278  13.831  14.397  0.2287 -0.1068  0.2224
 1449W        W17583   3.832  17.168   5.005 -0.4179  0.1171  0.0083
 1450W        W17584  17.383   7.882  10.465 -0.1151 -0.1295  0.1360
 1451W        W17585   9.515  12.654   0.025  0.0215 -0.0445  0.0330
 1452W        W17586   3.971  12.560  12.974  0.1515  0.0277 -0.0926
 1453W        W17587   4.372   9.780   4.899 -0.1875  0.0137 -0.3856
 1454W        W17588  10.786  14.327   5.472  0.0019  0.1414 -0.1275
 1455W        W17589   6.461   1.322   5.511  0.0487 -0.3021  0.0774
 1456W        W17590   6.079   6.266  14.580 -0.2186  0.1106 -0.2875
 1457W        W17591   9.120   0.822  15.769 -0.2900 -0.1564  0.0738
 1458W        W17592  10.264   4.431   4.127  0.1295 -0.0943 -0.1235
 1459W        W17593   9.084   7.746  15.950  0.2327  0.0916  0.2272
 1460W        W17594  16.199  10.584  12.467 -0.0775  0.1093  0.1903
 1461W        W17595   4.284   0.666   0.907 -0.0869  0.2976  0.2334
 1462W        W17596  11.066   7.251   3.652 -0.3043 -0.0825 -0.2179
 1463W        W17597  14.604   1.695  10.703  0.1409 -0.3403 -0.1459
 1464W        W17598  14.596  12.755   5.107 -0.1352 -0.2012  0.0914
 1465W        W17599   2.493   5.814   1.780  0.2210  0.0264  0.2462
 1466W        W17600  16.695   8.433  14.531 -0.0121  0.1502 -0.1579
 1467W        W17601   4.198  15.972  15.723 -0.2907  0.0243 -0.0030
 1468W        W17602   1.075  17.708  13.674 -0.2646 -0.1570 -0.0462
 1469W        W17603   5.235  12.177   1.148  0.1322 -0.0007  0.2202
 1470W        W17604  11.053   5.514   1.208 -0.1125  0.1523 -0.2460
 1471W        W17605  16.153  16.562  12.514  0.1706 -0.0824 -0.0722
 1472W        W17606  13.362  12.692  15.589 -0.0779  0.2433  0.3052
 1473W        W17607  12.846   5.990   4.217 -0.4218  0.2675 -0.4157
 1474W        W17608  10.690   8.058  12.762  0.1829 -0.3217  0.1726
 1475W        W17609   4.175  11.589  13.648  0.0618  0.2223  0.0721
 1476W        W17610  17.844  12.869   1.422  0.0107 -0.2268 -0.2005
 1477W        W17611   4.306   5.920   1.628  0.0342  0.1777  0.2470
 1478W        W17612  11.888  13.544   0.307  0.1850  0.0604 -0.3876
 1479W        W17613  15.334  10.777   1.341 -0.1349  0.0553  0.1606
 1480W        W17614   8.923  17.879  12.649  0.0457  0.0826 -0.0778
 1481W        W17615  16.785   9.513  15.347 -0.0428 -0.0744 -0.2501
 1482W        W17616   3.734   3.759   1.145 -0.0642 -0.2174  0.1036
 1483W        W17617  17.091   5.983   2.646 -0.1683  0.2128  0.5650
 1484W        W17618   6.092  17.260   1.251  0.0345  0.0996 -0.0764
 1485W        W17619   5.343   7.385   0.509  0.0750  0.0671 -0.0586
 1486W        W17620  12.572  12.372  16.430  0.0743 -0.2072  0.1822
 1487W        W17621  16.755   7.130   6.058  0.0712 -0.4045 -0.2089
 1488W        W17622  15.275   0.205  12.538  0.0684  0.2408 -0.0671
 1489W        W17623   6.947   6.280  10.003  0.0438 -0.0865  0.1920
 1490W        W17624   7.970   0.102   3.836 -0.1561  0.0463 -0.1750
 1491W        W17625   4.348  13.183  12.554 -0.0546 -0.2801  0.0885
 1492W        W17626  10.777   7.985  11.572  0.0664 -0.1511  0.2000
 1493W        W17627  17.776  13.769  11.954  0.4207  0.2051 -0.2422
 1494W        W17628   1.398   9.195   1.099  0.0404 -0.1552  0.1998
 1495W        W17629   2.771   1.878   0.222  0.2209  0.0395 -0.0904
 1496W        W17630   7.855  10.367  16.305 -0.0871  0.3178 -0.0812
 1497W        W17631  10.416  15.257   0.553 -0.3653  0.1947  0.1752
 1498W        W17632  15.299   8.978  13.212  0.1630  0.1176  0.0306
 1499W        W17633  15.604  18.043   4.501 -0.0158 -0.1489  0.1561
 1500W        W17634   4.297   6.882   0.838 -0.0334  0.1399  0.1295
 1501W        W17635   4.403   0.473   2.913  0.1260  0.0047 -0.0858
 1502W        W17636  10.618  15.135   0.015  0.2593  0.0634  0.1414
 1503W        W17637  16.740   9.299  15.818 -0.1070 -0.0180 -0.2968
 1504W        W17638   6.727   7.778   3.357  0.0723  0.1110 -0.5220
 1505W        W17639   3.123   8.208   2.142  0.0322 -0.3879  0.1229
 1506W        W17640   9.509  10.271   2.284  0.0413 -0.4678  0.3401
 1507W        W17641  13.030   4.030   2.969  0.3335  0.1911  0.0731
 1508W        W17642  11.423  17.486  16.484  0.1376  0.3198 -0.0554
 1509W        W17643  11.626  12.391  11.921 -0.3134  0.4502  0.2995
 1510W        W17644  13.186  14.437   1.820  0.1390  0.4601  0.1893
 1511W        W17645  10.595   9.385  12.312 -0.1432  0.0960 -0.2632
 1512W        W17646   5.873   6.138  14.135  0.1561 -0.0579 -0.0721
 1513W        W17647  11.057   0.673   0.020  0.1882  0.3297 -0.0799
 1514W        W17648   1.493   4.209  14.220  0.0667 -0.0251 -0.1936
 1515W        W17649  15.488   3.342  10.822  0.0677 -0.0090 -0.1397
 1516W        W17650  16.704  17.810  12.945 -0.0817 -0.2134 -0.1633
 1517W        W17651   8.177  15.416  14.738 -0.0025  0.0711 -0.0311
 1518W        W17652   0.107  17.144   3.942 -0.1636 -0.2111 -0.1105
 1519W        W17653   4.791   9.515  11.747  0.0396 -0.3943 -0.0160
 1520W        W17654   0.661   4.845  12.561 -0.0346  0.4623 -0.1268
 1521W        W17655   7.903  15.152  15.161 -0.1129  0.0493 -0.2187
 1522W        W17656   1.878  10.873  14.336 -0.2535  0.1480  0.0427
 1523W        W17657   4.994   5.791   4.723 -0.2675  0.3249  0.3980
 1524W        W17658  15.855  13.478  13.998 -0.2489  0.1438 -0.0117
 1525W        W17659  11.891   6.047   4.608  0.0894 -0.0185  0.1099
 1526W        W17660   9.013  15.497  11.973  0.0956 -0.0224 -0.1187
 1527W        W17661   2.485   2.898  16.181  0.0964 -0.0244  0.0842
 1528W        W17662  15.060   1.907  14.187 -0.2952  0.0210  0.1136
 1529W        W17663  10.472  10.796   4.579  0.0298 -0.1339  0.0888
 1530W        W17664  17.552   3.895   1.612  0.0999  0.1049 -0.1794
 1531W        W17665  12.892   5.249  11.514 -0.0736  0.0614  0.1094
 1532W        W17666   5.089  12.678   2.206  0.1458  0.2319 -0.0474
 1533W        W17667   2.317   8.110   3.515  0.1838 -0.4090  0.0960
 1534W        W17668  18.010   3.938   4.712 -0.2077 -0.0677  0.1696
 1535W        W17669  12.898  17.299   2.316 -0.0051  0.0211 -0.1432
 1536W        W17670   4.693   1.285  14.028  0.0132  0.2062 -0.1299
 1537W        W17671   2.277  13.486   5.685  0.2050 -0.0595 -0.0910
 1538W        W17672  14.884   5.295  11.691 -0.2371  0.2299  0.1036
 1539W        W17673  13.771   2.503  14.947  0.0313 -0.2707 -0.0335
 1540W        W17674  16.406  11.236   4.782  0.2213  0.0158 -0.0808
 1541W        W17675   1.627  15.998  14.642 -0.2645 -0.0250 -0.0901
 1542W        W17676   7.158  18.133   2.866  0.1563 -0.1378 -0.1543
 1543W        W17677   2.180  11.163  14.006  0.3941 -0.2419  0.2943
 1544W        W17678   1.407   7.264  14.676 -0.1789  0.1256  0.0724
 1545W        W17679  10.116   7.330  13.415 -0.1618  0.0553  0.0625
 1546W        W17680   7.735  13.989  11.641 -0.2164  0.0464 -0.1283
 1547W        W17681   5.099  17.623  14.192  0.0257 -0.0869 -0.3902
 1548W        W17682   4.565   4.340   2.634  0.1115  0.0775 -0.0547
 1549W        W17683   5.937   2.710   5.810 -0.0628  0.1421 -0.0830
 1550W        W17684  14.671   8.152   3.354  0.1119 -0.1264  0.1430
 1551W        W17685   7.913  16.771  11.553  0.1066  0.0367  0.1731
 1552W        W17686   9.679   4.382   2.861  0.3649  0.4535 -0.0767
 1553W        W17687  11.966  11.105   3.714 -0.3066  0.1837  0.0587
 1554W        W17688   6.691   3.119   2.744  0.0241  0.1211 -0.0368
 1555W        W17689   1.608   7.422   2.118 -0.1425  0.3220 -0.0367
 1556W        W17690  10.401  15.151   5.351  0.1127 -0.0812  0.1315
 1557W        W17691   7.757   5.072   3.172 -0.0452 -0.0779 -0.3589
 1558W        W17692   0.869  14.082  15.975  0.0972 -0.0332  0.0188
 1559W        W17693  16.967   2.390   4.417  0.0321  0.2095  0.0977
 1560W        W17694   1.021  13.041   1.878  0.1401  0.1433 -0.2141
 1561W        W17695  12.781   1.253   2.697 -0.2982  0.0842 -0.0177
 1562W        W17696  10.458  12.933   2.408 -0.1509 -0.2090 -0.1256
 1563W        W17697  11.073   2.401  12.841 -0.2211 -0.0211 -0.0103
 1564W        W17698  16.711  10.738  15.033 -0.4497  0.4791  0.1877
 1565W        W17699  14.862   1.525  13.890 -0.0148  0.0651  0.0171
 1566W        W17700  12.960  16.764   2.200  0.0724  0.3453  0.0023
 1567W        W17701  17.801   0.299   5.145  0.1447 -0.3142  0.0560
 1568W        W17702  11.333  11.459  14.566 -0.0266  0.0225 -0.0204
 1569W        W17703   1.899   1.209  13.335 -0.3520  0.0595  0.0346
 1570W        W17704   8.302   2.413  15.999  0.0592  0.0201 -0.3096
 1571W        W17705   6.011  17.652   5.881 -0.1100  0.2052 -0.0944
 1572W        W17706  10.990  17.022  11.676  0.2591  0.0598  0.0756
 1573W        W17707   9.004  14.953  12.857 -0.0507  0.3227  0.2285
 1574W        W17708   1.288   6.205  15.216  0.0627  0.0190 -0.2668
 1575W        W17709   9.104  12.662   2.496 -0.0484  0.1494  0.0074
 1576W        W17710   8.163  12.328  15.922 -0.0802 -0.0193  0.0471
 1577W        W17711  11.848   6.818   4.673  0.2404  0.0942 -0.0904
 1578W        W17712   9.339   9.935   4.855 -0.0933 -0.0428  0.0063
 1579W        W17713  15.163   8.271  12.613  0.3638 -0.1238  0.1128
 1580W        W17714  11.768  16.767   2.447 -0.1030 -0.1156  0.1330
 1581W        W17715   5.230  13.204  12.869  0.0390 -0.0933 -0.0581
 1582W        W17716  10.461   5.717  14.196 -0.0688  0.1061 -0.1543
 1583W        W17717   6.816  14.201   2.265  0.3722  0.0093 -0.0206
 1584W        W17718   8.297   1.872  15.488 -0.2119  0.0830  0.0575
 1585W        W17719  11.083   0.471  12.177  0.1798 -0.1711  0.0333
 1586W        W17720  12.913   1.257  14.929  0.2130  0.2350  0.2017
 1587W        W17721  16.494  13.128   1.691  0.2089 -0.0642  0.1835
 1588W        W17722  11.096   8.327   2.182  0.1956  0.1869  0.1108
 1589W        W17723  13.478   4.217  13.014  0.0642 -0.0247 -0.1020
 1590W        W17724  12.408   6.494  12.397  0.1762 -0.0396 -0.0683
 1591W        W17725  11.892  15.358   5.483  0.3401 -0.1684  0.1773
 1592W        W17726   1.364  16.772   1.955 -0.1575 -0.1817  0.0148
 1593W        W17727   1.841   3.055  13.288 -0.2236  0.1571 -0.0343
 1594W        W17728   5.552   8.533   2.570  0.0160  0.1284  0.0532
 1595W        W17729   7.650  13.195  12.091  0.0888  0.0002 -0.0605
 1596W        W17730   8.566  11.542  10.951  0.1437 -0.1641  0.0916
 1597W        W17731  15.855   9.555  13.358  0.0638  0.0160 -0.1470
 1598W        W17732   1.772  17.045   3.747  0.0768  0.0189 -0.0548
 1599W        W17733  16.563  16.445  16.030  0.1122 -0.1021 -0.2159
 1600W        W17734  14.436   4.646  15.873 -0.2023 -0.0506 -0.1035
 1601W        W17735   0.464   8.897   1.875  0.1482 -0.3899 -0.3544
 1602W        W17736   9.162   8.098  11.470 -0.0003 -0.0368 -0.3705
 1603W        W17737  13.867   6.225   2.198 -0.2990  0.0207 -0.1150
 1604W        W17738   9.286  13.621  15.506  0.2492  0.0825  0.1297
 1605W        W17739  15.781   7.165   4.883  0.2399 -0.1446 -0.0346
 1606W        W17740  13.746  15.576   4.010 -0.1679 -0.1588 -0.1651
 1607W        W17741   5.894   2.213  15.925  0.0916 -0.1989 -0.0521
 1608W        W17742   7.729  11.565  14.943 -0.1655  0.0989 -0.0192
 1609W        W17743  15.117   2.457  13.903 -0.2796  0.1293  0.5470
 1610W        W17744   1.305   8.496  14.060 -0.1180 -0.0168  0.0028
 1611W        W17745   1.772   8.335   2.101  0.1905 -0.0655 -0.1267
 1612W        W17746  14.112  10.706  16.446 -0.0032 -0.0149 -0.0214
 1613W        W17747   9.606   0.884  16.497 -0.3813 -0.0119  0.0706
 1614W        W17748  10.455   8.628  12.872 -0.2439  0.3824 -0.0494
 1615W        W17749   7.804   3.482   1.958 -0.0627  0.0429 -0.1654
 1616W        W17750  12.576   5.676   0.195 -0.1518  0.1280  0.3246
 1617W        W17751   5.990   9.600  15.070  0.0276  0.1392  0.3302
 1618W        W17752   9.563   1.278  12.670 -0.0164 -0.3786 -0.3708
 1619W        W17753  13.494   6.864   0.574 -0.1239  0.1573 -0.0718
 1620W        W17754   2.704   2.237  11.554 -0.3184 -0.4582 -0.3859
 1621W        W17755   4.042   6.137  16.112 -0.1591  0.2643 -0.0290
 1622W        W17756  13.865  12.898   1.654  0.1408 -0.0321 -0.0202
 1623W        W17757   5.263   0.626  13.034 -0.0742  0.0305  0.0342
 1624W        W17758  15.001   3.582  12.060 -0.1982  0.1237  0.0489
 1625W        W17759  17.288  12.431   4.254  0.1211  0.0783 -0.1867
 1626W        W17760   1.412  15.174  16.410 -0.2756  0.0891  0.1800
 1627W        W17761   8.315  13.474   0.233 -0.0445 -0.0074  0.1033
 1628W        W17762  13.885  17.397   0.324  0.0864  0.2073 -0.1706
 1629W        W17763   6.452   3.998  14.957 -0.0826  0.0428 -0.0681
 1630W        W17764   0.252   2.144   1.747  0.0232  0.2964  0.0772
 1631W        W17765   1.445   0.576  14.983 -0.1888  0.1452  0.1341
 1632W        W17766   3.192   3.103  12.622  0.1612 -0.1312  0.0766
 1633W        W17767   9.048  15.690   3.574  0.0784 -0.0629  0.1144
 1634W        W17768  13.167   5.572   2.546  0.2181 -0.0557  0.1813
 1635W        W17769   2.158   9.682  15.168  0.1186 -0.1268 -0.1297
 1636W        W17770   3.308  12.849   0.195 -0.0986  0.0011  0.1032
 1637W        W17771   2.323   2.804   0.232  0.2374 -0.1417  0.1156
 1638W        W17772   2.727  13.117   2.504  0.1135  0.0601  0.0329
 1639W        W17773   8.636  17.433   0.565 -0.0223  0.0993  0.0183
 1640W        W17774  11.005  13.854   4.065  0.0160  0.4069  0.0727
 1641W        W17775  12.277  16.813  15.202  0.0232  0.0877  0.1035
 1642W        W17776   6.920   6.965  14.496 -0.0380  0.2150 -0.0989
 1643W        W17777  10.723  14.358   5.964  0.1446  0.1598  0.1469
 1644W        W17778   4.093   9.582   3.621  0.0088 -0.0990  0.1644
 1645W        W17779   6.469   3.315  11.821  0.3175  0.4330 -0.1373
 1646W        W17780  14.551   9.979   2.847 -0.2685 -0.2564 -0.1083
 1647W        W17781  17.386   3.649  11.613  0.0172  0.2038  0.1721
 1648W        W17782  12.208   4.928   2.723 -0.1617  0.0392  0.0133
 1649W        W17783   6.403   2.875  14.899  0.2702  0.0238  0.1033
 1650W        W17784   8.579  16.887  12.203 -0.2958 -0.1940 -0.0591
 1651W        W17785  11.787   5.553  13.646 -0.1187  0.0082 -0.0645
 1652W        W17786   8.853   0.463  14.859  0.2244  0.0779  0.1312
 1653W        W17787  13.356   3.491  14.903 -0.1725 -0.1232  0.0062
 1654W        W17788  13.688  11.511  16.536 -0.0489 -0.3487  0.3592
 1655W        W17789   6.661   9.078   3.706 -0.0860 -0.1371 -0.0132
 1656W        W17790   2.971   8.145   3.001 -0.2989 -0.1195 -0.4306
 1657W        W17791   0.350  12.018  15.772  0.5559  0.2747 -0.0939
 1658W        W17792  18.003  17.940  16.379  0.0957  0.0539  0.0267
 1659W        W17793   0.562   1.463   1.578  0.2415  0.4580 -0.0527
 1660W        W17794  17.434  15.587  15.964  0.2965 -0.0976  0.1881
 1661W        W17795  16.524  12.593   3.102 -0.1821 -0.2586  0.2923
 1662W        W17796  11.324   0.965   2.531 -0.2511 -0.3472 -0.0971
 1663W        W17797   2.374  13.530  12.636  0.2483  0.1009 -0.3287
 1664W        W17798   5.717   8.789  12.691  0.1433  0.2682 -0.0643
 1665W        W17799  11.068  14.142   2.378 -0.0116 -0.0774  0.0269
 1666W        W17800  17.171  14.280   2.858 -0.0474 -0.2045  0.0784
 1667W        W17801  11.643   8.838  11.594 -0.0545  0.2211 -0.0244
 1668W        W17802   7.939  16.809  12.666 -0.0451  0.0337 -0.2727
 1669W        W17803   0.411   1.158   0.712  0.3110 -0.0454 -0.1914
 1670W        W17804   6.664  10.667   2.524 -0.2784  0.1240 -0.0816
 1671W        W17805  12.563   3.623   4.475 -0.0310  0.0560 -0.0932
 1672W        W17806   6.497  13.502   1.847 -0.1254  0.1618 -0.0785
 1673W        W17807  15.968   5.313  12.059 -0.0668 -0.2738 -0.2020
 1674W        W17808  11.241  16.843   4.643 -0.2275 -0.0463 -0.1592
 1675W        W17809   9.853  17.854   3.280  0.1186  0.1832  0.0771
 1676W        W17810   8.183   2.011  10.666 -0.0664  0.1441 -0.0325
 1677W        W17811  12.178   3.876  12.842 -0.1469  0.0448 -0.2716
 1678W        W17812   4.138   7.731   0.351 -0.0590  0.1875  0.0845
 1679W        W17813   0.509   1.950   0.574 -0.2334  0.0686  0.1389
 1680W        W17814   2.315   9.167  11.284  0.1849  0.0761  0.0160
 1681W        W17815   7.175   3.416  13.119 -0.1311  0.2736 -0.1148
 1682W        W17816   9.953  12.430  15.887 -0.0103  0.1780  0.1903
 1683W        W17817   5.513   1.337  13.679 -0.1364 -0.2221  0.0868
 1684W        W17818   1.666  17.622   3.778 -0.0893  0.3994 -0.0441
 1685W        W17819  17.209   1.440   3.058 -0.2106  0.1442 -0.1463
 1686W        W17820  10.195  16.431  14.337  0.0800  0.1292 -0.1383
 1687W        W17821  15.289  11.706  13.563  0.1104  0.1226 -0.0381
 1688W        W17822  16.911  11.645   2.893  0.1990  0.1258 -0.2029
 1689W        W17823   2.318   3.696  13.100 -0.2643 -0.0007 -0.2650
 1690W        W17824   9.261   4.077   2.770  0.0440  0.1643 -0.1289
 1691W        W17825  12.157  17.137  12.610  0.0283 -0.2691  0.2037
 1692W        W17826  13.221  13.515  12.608  0.1152  0.0602  0.1185
 1693W        W17827   1.601  12.170  15.255  0.1929  0.2874  0.1149
 1694W        W17828  16.118   4.862   2.291 -0.0645 -0.4618  0.0448
 1695W        W17829  14.827   3.498  15.119 -0.1257  0.1541 -0.0701
 1696W        W17830   5.572  12.046   0.669 -0.3408 -0.0528  0.1633
 1697W        W17831   4.510  17.307   1.702  0.2882 -0.2213  0.0658
 1698W        W17832   7.556  10.747  11.728 -0.1800 -0.2734  0.1119
 1699W        W17833  12.691  10.915   4.388 -0.0253 -0.2617 -0.2155
 1700W        W17834   0.138   3.436  15.194 -0.2897 -0.1730 -0.1353
 1701W        W17835   1.336   9.395   2.478 -0.3082 -0.3242 -0.4037
 1702W        W17836  17.618   7.105   3.424  0.0020  0.2476  0.0404
 1703W        W17837   3.664   6.492   5.490 -0.0124 -0.0115 -0.2102
 1704W        W17838   0.270  14.488   5.230 -0.0984  0.1493  0.3796
 1705W        W17839   2.637  12.150   2.834  0.1384 -0.3414 -0.3056
 1706W        W17840   7.320  16.105   3.675  0.2034  0.1149  0.2087
 1707W        W17841   3.704   8.721  11.698  0.1069  0.2554  0.0767
 1708W        W17842  15.114   9.624   1.265  0.0145 -0.0753  0.1267
 1709W        W17843   0.669   7.733  14.547 -0.0899 -0.1329  0.1590
 1710W        W17844  10.665   6.481  15.166  0.0413  0.0439 -0.0746
 1711W        W17845   5.334  15.814  15.740  0.1584  0.1314 -0.1488
 1712W        W17846   4.200   6.887   4.144 -0.0118  0.0910 -0.1580
 1713W        W17847  11.260   9.644  13.473 -0.1024 -0.2987 -0.1431
 1714W        W17848   1.734   6.225   2.971 -0.0126 -0.0707  0.0602
 1715W        W17849   7.362   9.555   5.214  0.0288 -0.1967  0.0164
 1716W        W17850   3.733   4.921   6.186 -0.0522  0.1632 -0.0403
 1717W        W17851   6.461  11.434  12.609  0.2442 -0.0725 -0.0002
 1718W        W17852   6.122   4.646  11.943  0.2134  0.0502 -0.4182
 1719W        W17853  14.311  12.871  13.415 -0.2282  0.1107  0.0238
 1720W        W17854   7.476   8.123  14.946 -0.1167 -0.0299  0.0351
 1721W        W17855  10.698  14.288   2.060  0.1353  0.1420 -0.0166
 1722W        W17856   6.335   7.643  14.231  0.3306 -0.0483  0.0786
 1723W        W17857   8.211   1.325   3.441  0.1577  0.0701  0.0344
 1724W        W17858  18.130  10.268   3.858 -0.1344  0.0577 -0.1145
 1725W        W17859  15.789  17.810  13.056  0.2177 -0.0555  0.2389
 1726W        W17860   1.768   4.299   5.541  0.0357 -0.1597  0.4133
 1727W        W17861  14.551   5.795  12.182 -0.1469  0.0096  0.0457
 1728W        W17862   4.331   9.336  11.650  0.1504  0.1226  0.0293
 1729W        W17863  17.790  16.099  13.903 -0.0032  0.0831 -0.0548
 1730W        W17864   8.366   1.600   5.170 -0.1476  0.1260 -0.0262
 1731W        W17865  10.265   8.634  10.626  0.0750 -0.3866 -0.2024
 1732W        W17866   7.877  15.600   2.717 -0.0176  0.2904 -0.1170
 1733W        W17867  17.182  14.759  14.111  0.3038  0.0932  0.2403
 1734W        W17868  16.156  13.768  12.983  0.0267  0.1764  0.1266
 1735W        W17869   1.729  17.373  15.437 -0.0506 -0.1189 -0.1219
 1736W        W17870   4.707   9.736  15.244 -0.1810 -0.2960 -0.4472
 1737W        W17871  13.505   2.105  14.700  0.0323  0.4102 -0.1173
 1738W        W17872   1.117  13.768   4.342 -0.0487 -0.1337 -0.1671
 1739W        W17873   3.762  17.730   5.989 -0.2658 -0.0747  0.2151
 1740W        W17874   9.130  14.113   2.424 -0.1973  0.1039  0.0919
 1741W        W17875  16.691  12.216  12.185 -0.2229 -0.2052  0.0923
 1742W        W17876   7.534  15.474   2.167 -0.2966 -0.2810 -0.2549
 1743W        W17877  10.426   1.657   5.578  0.0095  0.1153 -0.0116
 1744W        W17878   5.111  10.518   0.177  0.1868  0.1343  0.0651
 1745W        W17879  17.896   9.978  14.679 -0.1804  0.0902 -0.2228
 1746W        W17880  17.623   1.161   2.904  0.2188 -0.0514 -0.1336
 1747W        W17881   6.159   5.145   1.874 -0.1395  0.1270 -0.2056
 1748W        W17882   0.905   1.301  13.445  0.1530  0.2537 -0.1092
 1749W        W17883  13.322  17.288  13.523 -0.0635  0.0272  0.0314
 1750W        W17884   8.253  12.717  12.193 -0.0470 -0.1166  0.2117
 1751W        W17885   0.971  17.114  12.183  0.0268  0.0172  0.2067
 1752W        W17886  14.557  16.214  15.912 -0.4471  0.0521  0.0223
 1753W        W17887   2.390  16.208  11.697 -0.1144  0.0726  0.0742
 1754W        W17888   2.791  12.536   5.892  0.0256 -0.1470 -0.1303
 1755W        W17889  11.161  13.346   3.147 -0.0108 -0.4052  0.1176
 1756W        W17890  13.861  17.916   4.571 -0.0168  0.0680 -0.0275
 1757W        W17891  11.490  13.303   1.581  0.1844 -0.2725  0.3177
 1758W        W17892   2.308   1.312   5.485  0.1522  0.1834 -0.0478
 1759W        W17893   7.841  16.347  12.364 -0.0427 -0.1134  0.0516
 1760W        W17894   1.122  15.931   2.972 -0.0157 -0.3919  0.1438
 1761W        W17895   3.490   0.597  14.585 -0.0480  0.3352  0.2129
 1762W        W17896   4.550   8.218  10.675  0.2011  0.2703  0.0354
 1763W        W17897  12.209  15.058   3.739 -0.0647 -0.3080 -0.0574
 1764W        W17898   3.342  17.444  15.701 -0.0852  0.0275 -0.2821
 1765W        W17899  17.995   7.666  14.454  0.0920 -0.1768 -0.1750
 1766W        W17900  13.847   6.328   0.433 -0.1015 -0.0871 -0.2956
 1767W        W17901   9.944  10.944   3.753 -0.3191  0.2398 -0.3493
 1768W        W17902   9.941   8.753  13.134  0.1087 -0.1115 -0.2261
 1769W        W17903   3.821   1.536   5.663 -0.1363  0.0850  0.1224
 1770W        W17904   9.467  13.671   4.964 -0.1083  0.1560  0.0219
 1771W        W17905  17.536   7.011  15.379 -0.1933  0.4332  0.1229
 1772W        W17906  14.937  17.191  12.798  0.1363 -0.1764  0.0396
 1773W        W17907  13.070   3.102   3.389  0.0821  0.2294 -0.1080
 1774W        W17908  17.359  11.970   1.977 -0.1447  0.1769  0.0427
 1775W        W17909  15.119   6.528   4.525  0.4965  0.0019 -0.1537
 1776W        W17910   8.165   5.132  12.056 -0.1443 -0.0457  0.0256
 1777W        W17911  14.591   2.971   2.518  0.1718  0.0283  0.2232
 1778W        W17912  10.230   5.790   4.943 -0.0888  0.1910 -0.0468
 1779W        W17913  15.170   2.098  12.742 -0.0218 -0.0344  0.1197
 1780W        W17914   2.515  17.432   3.649 -0.0661 -0.4511  0.1419
 1781W        W17915  17.165  15.088   5.875 -0.2537 -0.0030  0.2579
 1782W        W17916   7.160  17.155  12.164 -0.1619 -0.0233  0.0735
 1783W        W17917   8.145  16.171  14.341 -0.0287 -0.0549 -0.0734
 1784W        W17918  12.075   8.474  14.967 -0.1259  0.0893  0.1949
 1785W        W17919  17.703   1.968   2.278 -0.1206  0.0398 -0.0482
 1786W        W17920   9.280   9.359   4.371  0.0824 -0.2039 -0.1100
 1787W        W17921   8.691  10.098  16.311  0.0451 -0.1189 -0.0403
 1788W        W17922  13.922  16.064   0.568 -0.1200 -0.3616 -0.2367
 1789W        W17923   7.232  11.002   1.841 -0.2382 -0.3574  0.1913
 1790W        W17924   0.094   6.429  13.661 -0.1967 -0.1580 -0.0111
 1791W        W17925   4.700   1.380  15.542 -0.2043  0.1232  0.3657
 1792W        W17926  16.067   2.385   5.755 -0.0032  0.0112  0.1893
 1793W        W17927  13.894  12.870   2.277  0.3114 -0.1284 -0.3565
 1794W        W17928  14.063   6.421  16.212 -0.2807 -0.2432 -0.0828
 1795W        W17929  16.276  11.367   1.707  0.0550 -0.0232  0.2461
 1796W        W17930  13.837  11.348   4.062 -0.0278  0.0643 -0.2731
 1797W        W17931  15.048   3.269  14.262 -0.1182  0.0127  0.0704
 1798W        W17932   5.106   9.675   4.668  0.0254 -0.0438  0.1017
 1799W        W17933  15.925   8.194   0.473  0.5292 -0.0816  0.1133
 1800W        W17934   5.607   3.094   5.561  0.2571  0.0550  0.4134
 1801W        W17935   2.078   3.173   5.074  0.0820 -0.0454  0.0973
 1802W        W17936  10.182  16.163   2.471  0.0673 -0.2153 -0.3567
 1803W        W17937   1.129  16.577   0.491  0.0203  0.1828  0.0351
 1804W        W17938   5.480   0.988   4.034  0.0200 -0.2806 -0.0056
 1805W        W17939   1.280   2.181  16.141  0.1633  0.1574  0.0345
 1806W        W17940   4.601  15.148  12.083 -0.0836  0.1806  0.2394
 1807W        W17941   6.462  17.422  12.379  0.1292 -0.1137  0.0906
 1808W        W17942   2.826   9.146  11.073  0.1042  0.1855 -0.4101
 1809W        W17943   0.921   8.064  15.731 -0.2611  0.0862 -0.1278
 1810W        W17944   5.170   5.184   5.345  0.2616 -0.1063 -0.3088
 1811W        W17945  15.661  14.922   3.904  0.0402 -0.1609  0.1154
 1812W        W17946   2.318   6.843  15.107 -0.1065 -0.0760  0.1808
 1813W        W17947   7.659  11.768   5.778 -0.1746 -0.3368 -0.2864
 1814W        W17948   1.750   3.403   4.216 -0.3251  0.1820 -0.3770
 1815W        W17949  17.108  15.282   1.752 -0.0583  0.4259 -0.2272
 1816W        W17950   9.371  12.491  13.209 -0.0083  0.2039  0.0952
 1817W        W17951   6.635  16.131  15.149 -0.0875 -0.1278  0.0260
 1818W        W17952  15.638   8.147  11.040 -0.0771  0.0089  0.1280
 1819W        W17953   2.826  11.916  11.423  0.1448 -0.0336  0.0110
 1820W        W17954  16.689  11.538  12.030  0.1252 -0.1800 -0.3627
 1821W        W17955  10.789   0.026  14.340 -0.0932  0.0261 -0.1425
 1822W        W17956   7.138  13.675   1.630 -0.3105 -0.2353 -0.2067
 1823W        W17957  18.064   3.916  13.158 -0.0516  0.3300 -0.4441
 1824W        W17958   8.274  13.243  13.521  0.1955  0.3286 -0.2583
 1825W        W17959  15.306   5.309  12.452  0.1529 -0.3092  0.0185
 1826W        W17960  14.880   0.494   4.923 -0.2352 -0.0837  0.3295
 1827W        W17961   2.237   1.379  11.830 -0.0589 -0.1456  0.1082
 1828W        W17962   4.139  11.056   3.433  0.0862  0.1522  0.2223
 1829W        W17963   8.158  11.162   3.437 -0.1917  0.1963 -0.1031
 1830W        W17964  17.555  11.483  13.815 -0.2654  0.0776  0.2143
 1831W        W17965   4.729   2.356   3.627 -0.3296  0.0769  0.0065
 1832W        W17966   8.394  10.891  16.026  0.1075  0.0520 -0.0332
 1833W        W17967   6.226  10.931   2.387 -0.1401  0.0609 -0.3669
 1834W        W17968   1.541   0.164  12.436 -0.1693 -0.0601 -0.0537
 1835W        W17969  10.948   3.353   4.798  0.1206  0.0290 -0.0377
 1836W        W17970   8.804  10.192   1.151  0.0961 -0.0504  0.1136
 1837W        W17971   3.113   4.988  13.806 -0.0479  0.1404  0.0473
 1838W        W17972   0.824   3.786   1.118  0.2006  0.3635  0.0233
 1839W        W17973  10.725   9.287  15.963 -0.0677  0.1702 -0.1900
 1840W        W17974  13.567  10.938   4.193  0.0636  0.1891 -0.2352
 1841W        W17975   1.635   8.466   3.286  0.0588 -0.2270  0.1567
 1842W        W17976  12.473  16.223  14.025  0.3940 -0.1305  0.0837
 1843W        W17977  15.922   1.911  16.081 -0.0694 -0.2789  0.2695
 1844W        W17978  14.997  16.256   1.696 -0.1265  0.3520 -0.0554
 1845W        W17979  12.413  11.359  12.151  0.1699  0.2628 -0.1661
 1846W        W17980  10.708   2.734  12.136  0.1684 -0.0109  0.0799
 1847W        W17981  11.328   9.761  11.208 -0.0817  0.1693 -0.0919
 1848W        W17982  14.982   6.079  12.927  0.0981  0.1317 -0.2451
 1849W        W17983   1.634   2.627   4.582  0.0562 -0.0816  0.2389
 1850W        W17984   5.368  13.976  10.743  0.0530  0.1726  0.1984
 1851W        W17985  12.736   3.812   3.828 -0.1034  0.2560  0.1819
 1852W        W17986   8.499  10.216  15.838 -0.0542  0.0099  0.1657
 1853W        W17987   8.883   5.177  16.202 -0.3781 -0.4178 -0.2193
 1854W        W17988  12.520  10.887   2.624  0.1018 -0.1450  0.1517
 1855W        W17989   3.401  15.047  12.703  0.1943  0.1915  0.1116
 1856W        W17990   4.494   8.524  11.088 -0.0757 -0.1526  0.1922
 1857W        W17991   8.628   9.182   0.272  0.2201  0.2592 -0.0394
 1858W        W17992  12.639   1.483  12.241  0.1877  0.1353  0.1258
 1859W        W17993   3.401   4.618   0.697 -0.3538 -0.4360 -0.0329
 1860W        W17994  12.487   9.095  13.330  0.1758 -0.0198 -0.2262
 1861W        W17995   3.568  15.268   3.270 -0.1623  0.2076 -0.2106
 1862W        W17996   2.762   5.817   0.239 -0.1228 -0.1316 -0.1107
 1863W        W17997   1.385  12.333  13.493 -0.0104 -0.0591  0.1057
 1864W        W17998  17.308  14.787   4.708  0.1737 -0.1830  0.0894
 1865W        W17999   4.156   1.319   3.273 -0.1752  0.0681 -0.4067
 1866W        W18000   1.323   5.874  11.908  0.1759  0.3708  0.0640
 1867W        W18001   0.803   5.586  14.583 -0.2516  0.1177 -0.1319
 1868W        W18002  18.011   6.771  14.075 -0.0357 -0.3631  0.1420
 1869W        W18003  16.440  17.646  13.375  0.0688 -0.1872  0.1273
 1870W        W18004  10.387   8.650  12.041  0.0518  0.0485  0.1638
 1871W        W18005  12.083   4.033  14.329  0.0791 -0.0948  0.0367
 1872W        W18006  16.192  17.285   4.873  0.0133  0.2590  0.2710
 1873W        W18007   6.428  13.877  13.089  0.2654 -0.4252  0.2323
 1874W        W18008  17.951  15.874  14.302 -0.1006  0.2604  0.0097
 1875W        W18009   6.829   2.429  15.790 -0.0396 -0.2564  0.0212
 1876W        W18010  10.876   5.492   3.999  0.2729 -0.0832 -0.1047
 1877W        W18011   1.244  14.567  15.215  0.0634 -0.1495 -0.3298
 1878W        W18012  10.173  17.235   2.032 -0.1534 -0.2053  0.0899
 1879W        W18013   3.644   0.317  15.465 -0.0744 -0.1448  0.3412
 1880W        W18014   3.965  14.211  14.670  0.0064 -0.0914 -0.0751
 1881W        W18015  11.883   3.271   1.337  0.0463 -0.1453  0.2059
 1882W        W18016   6.909   3.581   3.240 -0.1239  0.0804  0.1040
 1883W        W18017   0.453  12.032  11.520 -0.0842  0.0691  0.0807
 1884W        W18018   0.822  12.576   1.861  0.2418 -0.0717 -0.2114
 1885W        W18019  10.571  10.405  14.241 -0.2743 -0.0999  0.2655
 1886W        W18020   2.379  10.599   4.354  0.0418  0.2470  0.0488
 1887W        W18021  14.682   1.434  11.133 -0.1903 -0.2746  0.1647
 1888W        W18022  14.681  15.489  15.612 -0.2905 -0.0084  0.1292
 1889W        W18023  10.687  16.418   1.377 -0.0916  0.0484 -0.0881
 1890W        W18024   9.746  10.893  15.637  0.2681  0.0851  0.2775
 1891W        W18025  17.274  16.378  16.112 -0.1299 -0.4127  0.0570
 1892W        W18026   9.012  12.769  14.517 -0.3231  0.0671 -0.0030
 1893W        W18027   6.844   4.355  14.886 -0.3570  0.0427 -0.1532
 1894W        W18028   8.796  16.074  14.422  0.0667  0.1146  0.3682
 1895W        W18029   6.470  16.697   1.976 -0.0922  0.1545 -0.0648
 1896W        W18030   3.582   2.009  12.412  0.1161  0.0311 -0.1532
 1897W        W18031   2.124  15.810  14.766 -0.1538  0.1971 -0.1983
 1898W        W18032  12.573   6.543  11.008 -0.1212 -0.1553 -0.0048
 1899W        W18033  12.973   9.077  11.706  0.3525 -0.5570 -0.0029
 1900W        W18034   6.544   7.442   1.701 -0.0717 -0.0911  0.2456
 1901W        W18035  11.214  16.353   4.451 -0.0049  0.1396 -0.4161
 1902W        W18036  10.786   0.246  16.107 -0.3756  0.0901 -0.0750
 1903W        W18037  13.340  17.310  11.777  0.0001 -0.0618 -0.2207
 1904W        W18038  13.957   7.753  10.066  0.0659 -0.4380 -0.2086
 1905W        W18039   8.174  16.091   0.803  0.1307 -0.1543 -0.0194
 1906W        W18040   0.430   6.962   2.322 -0.0332 -0.3480 -0.2281
 1907W        W18041   2.776   5.900   2.206 -0.0738  0.2910 -0.0673
 1908W        W18042   7.924  12.368   4.951 -0.3302 -0.3407  0.0014
 1909W        W18043  11.280   8.432   3.036 -0.1311 -0.1203  0.0085
 1910W        W18044   1.624   9.367  16.524 -0.2549 -0.2183 -0.3470
 1911W        W18045   0.118   3.180   4.112 -0.0199  0.0860  0.2228
 1912W        W18046   9.261  14.731  13.851 -0.1491 -0.1866  0.0250
 1913W        W18047   1.085  14.440  13.939 -0.0982  0.0025  0.2807
 1914W        W18048   7.361   7.917   4.001 -0.0870  0.0777  0.1334
 1915W        W18049   1.998  10.004  13.582 -0.2864 -0.1555 -0.1748
 1916W        W18050  14.524   4.690  12.353 -0.1710 -0.1532 -0.0224
 1917W        W18051   8.507  16.350  15.631 -0.0719  0.2454  0.1175
 1918W        W18052   8.697  11.460  14.270 -0.2393  0.1024  0.1668
 1919W        W18053  16.591  18.077  12.123 -0.2660 -0.3228  0.2058
 1920W        W18054  16.614  14.407  12.233  0.0048 -0.1291 -0.0440
 1921W        W18055   5.576   0.186  15.226 -0.1481  0.0075  0.2055
 1922W        W18056  12.128   8.638  12.181  0.0554  0.4745  0.1326
 1923W        W18057   3.252   4.439   4.308  0.0756  0.1413 -0.0718
 1924W        W18058   3.548   9.307  14.651  0.3295  0.0072 -0.1266
 1925W        W18059  12.335   8.984   5.521 -0.0965 -0.3202 -0.3262
 1926W        W18060  15.890   7.920  14.666  0.2752  0.1883 -0.0390
 1927W        W18061   3.034   9.982   5.233  0.1079  0.0864  0.2855
 1928W        W18062  15.340   2.571   5.485  0.0217 -0.2937  0.0171
 1929W        W18063   3.234   0.359   1.441  0.1397  0.0541 -0.1024
 1930W        W18064   3.899  17.421   2.324  0.0334  0.1416 -0.0814
 1931W        W18065  15.774   6.716  12.140  0.2646  0.2544  0.1563
 1932W        W18066  16.138   2.173   0.423  0.0000 -0.1504 -0.0683
 1933W        W18067   1.609   5.044   4.477 -0.1681 -0.1801 -0.0414
 1934W        W18068  17.108   6.306   1.121 -0.2298  0.0215  0.0742
 1935W        W18069   8.299   8.509   5.207 -0.0942 -0.1168 -0.1829
 1936W        W18070  13.661   9.262  16.229  0.1819 -0.1541  0.2656
 1937W        W18071  10.696   4.195   4.338 -0.2870  0.2516  0.0125
 1938W        W18072   6.789  15.832  11.688  0.4146 -0.0550  0.2600
 1939W        W18073   2.768   8.667  14.835  0.1446  0.1458 -0.1285
 1940W        W18074  13.531  13.897   1.625 -0.1537  0.3200  0.1725
 1941W        W18075   2.805   1.327   5.404  0.0988 -0.1704  0.1845
 1942W        W18076   5.241  14.608   5.639  0.0805 -0.1703  0.1046
 1943W        W18077  15.075   1.097  13.093  0.0250  0.0825 -0.1685
 1944W        W18078   1.454   7.687   3.247 -0.4693 -0.1435 -0.0860
 1945W        W18079   3.104  16.122  14.245 -0.1553  0.1510  0.1005
 1946W        W18080  13.028  15.581  14.901 -0.0724  0.1014 -0.0078
 1947W        W18081   5.609  11.343  15.100 -0.1598 -0.2861  0.1611
 1948W        W18082   3.958  11.575   3.263  0.3287 -0.0713  0.2529
 1949W        W18083  17.927   7.656  11.383  0.0818  0.1255 -0.0293
 1950W        W18084  16.814   1.106   1.654  0.2054 -0.0382 -0.0982
 1951W        W18085   5.689   5.195  15.979 -0.0954 -0.0430 -0.0316
 1952W        W18086   0.027  14.525   0.691 -0.0166  0.2523 -0.0707
 1953W        W18087  12.558   3.979  11.144 -0.2040  0.3077  0.3869
 1954W        W18088   5.771  14.001   1.998  0.4938 -0.0242  0.0415
 1955W        W18089   1.679  15.456   2.381 -0.0066 -0.1046 -0.0455
 1956W        W18090  16.233   2.476  12.462  0.1504  0.2609  0.2591
 1957W        W18091   0.567   3.106   1.703 -0.2113  0.1707 -0.0114
 1958W        W18092   4.743  17.985  14.062  0.3640 -0.1763  0.1889
 1959W        W18093   9.958  12.986  13.764  0.0714 -0.3580 -0.1361
 1960W        W18094   2.228   9.698  12.514 -0.0301  0.2466 -0.1788
 1961W        W18095  16.679   4.650   4.230 -0.0988  0.0282 -0.0508
 1962W        W18096  10.817   9.009  14.033  0.1418 -0.0875  0.0648
 1963W        W18097   9.830   3.936   5.323 -0.3099  0.0949 -0.0324
 1964W        W18098  12.534   5.967   1.693  0.0061  0.1452 -0.4770
 1965W        W18099   9.876  12.592   3.082 -0.1415  0.0642  0.2773
 1966W        W18100  13.882  11.821  14.601 -0.1749 -0.0425  0.0467
 1967W        W18101   4.554  11.720  11.458  0.0631  0.0022 -0.1027
 1968W        W18102  10.924   6.771  15.530 -0.0001  0.0213 -0.0583
 1969W        W18103   8.457  16.793  12.717 -0.0194 -0.0610 -0.1561
 1970W        W18104  13.300  16.713   2.913  0.0167  0.1534 -0.1751
 1971W        W18105  12.392  17.776   4.413  0.2783 -0.0057  0.1498
 1972W        W18106  16.579   8.599  13.005  0.2641 -0.0106  0.0382
 1973W        W18107  15.744  16.894   4.663 -0.1813 -0.0083 -0.1863
 1974W        W18108  12.154   3.692   0.522 -0.1298 -0.1437 -0.1662
 1975W        W18109  14.727   1.137  16.033  0.1922 -0.0309 -0.2699
 1976W        W18110  12.668  13.213  13.133 -0.1959  0.0916 -0.2559
 1977W        W18111   5.323   7.459  16.264  0.1843  0.0033  0.0923
 1978W        W18112   0.528   4.683   3.266  0.1187  0.1221 -0.1314
 1979W        W18113  13.651   3.459  15.753  0.1082  0.1547 -0.0363
 1980W        W18114   6.907   4.172   0.103  0.0495  0.2054 -0.2971
 1981W        W18115   2.350   7.707  15.787 -0.1771  0.1412 -0.0319
 1982W        W18116  16.295   9.342  15.453 -0.0551 -0.1702  0.1079
 1983W        W18117   0.129   1.288  12.687  0.2514 -0.0551 -0.1339
 1984W        W18118  13.496  12.094   4.558 -0.2122 -0.1079 -0.1392
 1985W        W18119  13.232  10.727  16.408  0.1634 -0.1804  0.0158
 1986W        W18120  13.552   7.528  10.252  0.0343  0.0830 -0.0054
 1987W        W18121  12.645   3.205   1.685  0.1419 -0.2891  0.0238
 1988W        W18122   9.367   5.722   2.899 -0.0729 -0.3605 -0.0394
 1989W        W18123   1.916  13.216  15.666  0.0826  0.0165  0.3400
 1990W        W18124  11.094   6.182  12.793  0.1511 -0.0973 -0.0115
 1991W        W18125   0.644   6.757   3.408 -0.1842  0.0063  0.2788
 1992W        W18126  17.834  17.261  13.961  0.1714 -0.1743 -0.0533
 1993W        W18127   3.069   0.462  13.213 -0.2258 -0.1878 -0.2723
 1994W        W18128  11.469   3.180  13.919  0.0343 -0.1153  0.2700
 1995W        W18129  13.889  16.597   5.059  0.0797  0.1047  0.1062
 1996W        W18130  10.207  10.511  12.545  0.0305 -0.0045  0.0557
 1997W        W18131  13.133  11.795   4.461 -0.1008  0.1148 -0.2637
 1998W        W18132   7.037  17.345   6.599 -0.2128  0.0112  0.2770
 1999W        W18133  16.148   3.639  13.576  0.0943 -0.2306  0.1515
 2000W        W18134  11.694  15.363   2.524 -0.2394  0.1851 -0.0468
 2001W        W18135   1.068  15.556   1.073  0.5044 -0.0986 -0.4234
 2002W        W18136   7.348   0.721   0.047  0.1332  0.0632  0.1059
 2003W        W18137  17.470   8.090   1.675  0.0693 -0.2560 -0.0134
 2004W        W18138   6.016   3.715   2.103 -0.2224 -0.0997  0.2050
 2005W        W18139   4.090  10.123   3.520 -0.0018 -0.1122  0.2078
 2006W        W18140  10.303  17.963   0.249 -0.2806  0.0376  0.1664
 2007W        W18141   4.088  11.652   5.249  0.0409 -0.0274 -0.0686
 2008W        W18142   0.001  11.989   1.509  0.0932 -0.1323 -0.0574
 2009W        W18143  13.009  10.105   2.419  0.1653 -0.0007 -0.2024
 2010W        W18144  16.351   3.290   2.726  0.0886  0.1042  0.0782
 2011W        W18145   9.406   5.160  11.799  0.0529 -0.3591 -0.1961
 2012W        W18146   8.075   8.925   4.976 -0.1898  0.0267  0.1520
 2013W        W18147   1.820  15.716  13.769  0.0666  0.0834  0.1604
 2014W        W18148  12.130   2.102   2.149 -0.1267  0.1964 -0.1094
 2015W        W18149   3.426  16.101  11.919 -0.2935 -0.0831 -0.1103
 2016W        W18150   3.467  14.100  12.683  0.2055 -0.0367 -0.1425
 2017W        W18151   4.769  17.386   2.273 -0.3997 -0.0331 -0.0448
 2018W        W18152   8.639   2.951  13.909 -0.2041 -0.0008 -0.0184
 2019W        W18153  17.522  13.833   0.188 -0.2630 -0.2631 -0.5062
 2020W        W18154   5.833   6.569  13.858 -0.2043 -0.0071  0.2181
 2021W        W18155  11.079  10.769   2.870 -0.0799 -0.1550 -0.0829
 2022W        W18156   2.060  13.792  13.015  0.3696 -0.1878 -0.0081
 2023W        W18157   0.524   5.901  11.803  0.2468 -0.2629  0.2873
 2024W        W18158  14.090   4.011  11.816 -0.0683  0.0562  0.0134
 2025W        W18159   6.774  17.533   3.193  0.0988  0.0256 -0.1119
 2026W        W18160  13.110   8.945   2.288 -0.2260  0.1806  0.4088
 2027W        W18161  11.385  11.090   5.493  0.0920 -0.0618 -0.2313
 2028W        W18162   2.079  17.468   3.413  0.1790 -0.0985  0.1709
 2029W        W18163   6.856   0.219  15.972 -0.4352  0.0503 -0.2212
 2030W        W18164  10.152  14.311   5.403  0.0714  0.1612 -0.2028
 2031W        W18165   2.965  16.594  15.608 -0.1088 -0.1307 -0.2098
 2032W        W18166   6.093  10.431   1.037  0.0674 -0.2620  0.2197
 2033W        W18167  16.202   6.868   0.212 -0.0723 -0.0624 -0.0415
 2034W        W18168  10.945  11.240   0.714  0.0449 -0.2457  0.1809
 2035W        W18169   3.790   4.314  14.131 -0.2808 -0.2013 -0.1027
 2036W        W18170   3.239   8.952   4.987  0.0748 -0.0858  0.0321
 2037W        W18171  15.963   9.230  12.617  0.2503 -0.2052  0.0242
 2038W        W18172   4.191  13.527  14.103 -0.3365 -0.1785 -0.1000
 2039W        W18173   0.394   6.149   5.410  0.2759 -0.2271  0.0029
 2040W        W18174   6.858   6.139  12.594  0.0880 -0.2765  0.1941
 2041W        W18175   2.635  12.230   4.931  0.0074  0.0303 -0.0563
 2042W        W18176   0.888  13.521   2.087 -0.1440 -0.2523  0.0212
 2043W        W18177   8.544   1.717   3.306 -0.1586 -0.3837  0.0967
 2044W        W18178   6.741  11.604   1.518 -0.1610  0.2260 -0.0462
 2045W        W18179   4.819   5.843  11.088  0.0137 -0.2403 -0.1529
 2046W        W18180   2.959   0.549   4.844 -0.2327 -0.0503 -0.0805
 2047W        W18181  10.275   1.649   2.248 -0.1176 -0.0557 -0.2321
 2048W        W18182   1.239   5.816   4.957  0.1467  0.1188 -0.3669
 2049W        W18183   4.264   5.658  14.008  0.0679 -0.0280 -0.2250
 2050W        W18184   6.117   3.736  12.099 -0.0337  0.0459 -0.2480
 2051W        W18185   6.892  14.080   1.789  0.0961 -0.1251 -0.2755
 2052W        W18186   6.763  17.635  15.141  0.2682 -0.3854  0.1179
 2053W        W18187  16.230   6.271   0.786 -0.1487 -0.1893 -0.0728
 2054W        W18188  10.433   4.904  13.945 -0.0608  0.2868  0.1012
 2055W        W18189  16.155   7.011   3.327 -0.0360  0.5211 -0.0246
 2056W        W18190  11.685   9.282  11.856 -0.2076  0.0487  0.0053
 2057W        W18191  10.462  12.312  11.222 -0.2691  0.1225  0.0016
 2058W        W18192  13.217  12.543   5.368 -0.0137 -0.2162 -0.0471
 2059W        W18193   1.414  13.509   0.842 -0.0638 -0.4220 -0.0866
 2060W        W18194   9.938   8.227   4.782 -0.3928  0.0219  0.2185
 2061W        W18195  16.842  14.224   1.791  0.0504  0.1184 -0.4510
 2062W        W18196   0.390   8.968   4.184 -0.1824  0.2012  0.3284
 2063W        W18197   4.404   3.417   5.553  0.1736 -0.0567  0.0009
 2064W        W18198   0.541   6.869   2.792 -0.0854 -0.1653 -0.1225
 2065W        W18199   8.322   8.383   0.597 -0.0263  0.1121  0.1584
 2066W        W18200   7.180  18.038  13.847  0.1039  0.2367  0.2509
 2067W        W18201  13.135  11.882  13.972 -0.1158  0.1098  0.1153
 2068W        W18202   4.892  16.511   0.405 -0.1265  0.2903 -0.0742
 2069W        W18203  12.895   5.638   1.638  0.1969 -0.0221  0.1393
 2070W        W18204  12.678   0.958   0.313 -0.0787 -0.3266 -0.3049
 2071W        W18205  17.353   4.555   6.486 -0.0093 -0.0037  0.0677
 2072W        W18206  10.591  15.136   4.171  0.1921 -0.0265 -0.0921
 2073W        W18207   2.378  16.461  13.631 -0.0708  0.3156 -0.0528
 2074W        W18208  14.881   3.961   4.638 -0.1015 -0.0714 -0.2392
 2075W        W18209  14.341   3.650  16.200 -0.2319  0.1255  0.0608
 2076W        W18210   9.302   7.563  11.872  0.2444 -0.0580  0.1876
 2077W        W18211   5.862   7.066  12.497 -0.1859  0.1041  0.0323
 2078W        W18212  17.648   6.188   0.919  0.0814 -0.0924  0.0856
 2079W        W18213  10.380   8.370   1.074 -0.0641 -0.0701  0.0987
 2080W        W18214  15.554   7.554  14.960 -0.2056 -0.1699 -0.1069
 2081W        W18215  10.872   7.471   0.496 -0.1458  0.1603 -0.1591
 2082W        W18216   5.764   1.528  11.617 -0.2413  0.0002 -0.1131
 2083W        W18217   3.591  10.520   1.853  0.0818 -0.0470  0.0800
 2084W        W18218  13.411   4.055   3.321 -0.0191  0.0493  0.0319
 2085W        W18219   1.699  13.107   0.820 -0.0443  0.2200 -0.1739
 2086W        W18220  11.314  13.037   0.330 -0.2147 -0.1667 -0.1151
 2087W        W18221   6.454   0.335   5.679 -0.0452  0.0205 -0.0179
 2088W        W18222  10.109   3.224  12.821  0.0643 -0.2604 -0.1483
 2089W        W18223   4.397   0.085   1.977 -0.0072 -0.0727 -0.2079
 2090W        W18224  10.147   4.639  12.213 -0.1582  0.0433  0.2340
 2091W        W18225   2.893   2.336   0.508  0.1500 -0.0005 -0.2567
 2092W        W18226   4.744  14.367   3.507  0.0628 -0.1226 -0.1011
 2093W        W18227   8.036   2.410   3.481  0.0101  0.0848 -0.0319
 2094W        W18228   3.218  13.671   6.282  0.0215 -0.2220 -0.1594
 2095W        W18229   0.114  16.300   5.548  0.2805  0.0812  0.0714
 2096W        W18230   3.819   2.507  13.398  0.1033  0.0939 -0.2195
 2097W        W18231   0.918   2.432   3.123  0.0030  0.0804 -0.1684
 2098W        W18232   9.574  13.023  14.099  0.0442 -0.3284 -0.0305
 2099W        W18233  10.459  16.813  14.123 -0.0716 -0.3555 -0.0667
 2100W        W18234   5.013   1.424   2.176 -0.2793 -0.1838  0.2989
 2101W        W18235  11.623   0.270   3.663  0.0722  0.2661  0.1329
 2102W        W18236  11.089   2.597  14.527 -0.0651 -0.1599 -0.1562
 2103W        W18237   5.652   5.736   1.388 -0.1498 -0.0530 -0.0432
 2104W        W18238   2.643   8.271  10.781 -0.1175  0.2480  0.1222
 2105W        W18239   3.221  10.347   1.541 -0.1017  0.2149 -0.1956
 2106W        W18240   6.103   4.354  14.565 -0.1155  0.0759 -0.2427
 2107W        W18241   7.930  12.618   1.824  0.1407 -0.1043 -0.2260
 2108W        W18242  16.974  13.691  15.931 -0.1621  0.0423  0.1612
 2109W        W18243  15.819   8.356  16.046  0.1312 -0.2545  0.0859
 2110W        W18244  13.873  14.686   3.305 -0.0272 -0.1971 -0.1823
 2111W        W18245   6.597  16.285   5.633  0.1726  0.1483  0.1092
 2112W        W18246  15.886   9.817  14.317  0.2518  0.0263 -0.3302
 2113W        W18247   1.725  17.232   4.226  0.0462  0.3522  0.2113
 2114W        W18248  12.691  15.485  11.945 -0.0158  0.0719 -0.3144
 2115W        W18249   0.103   7.566  12.785 -0.0045 -0.0949 -0.2307
 2116W        W18250   2.703   5.424  10.653 -0.1266 -0.0019 -0.0947
 2117W        W18251   0.067  13.088  12.571 -0.1216 -0.1833 -0.0006
 2118W        W18252  14.442  16.144  12.745  0.2188  0.2273  0.3267
 2119W        W18253  11.338   3.892  12.037  0.0041 -0.1312  0.0627
 2120W        W18254  14.582  16.361  11.886  0.3788 -0.2307 -0.2804
 2121W        W18255  14.647   9.935  16.059  0.2048 -0.1305 -0.0496
 2122W        W18256   6.555  10.525   4.045  0.4781 -0.2138  0.2205
 2123W        W18257   4.034  14.967   2.319  0.1115  0.1651 -0.0438
 2124W        W18258   2.205   6.411   2.709 -0.2739  0.0914 -0.3066
 2125W        W18259  14.648   0.139   2.497  0.3858 -0.2861 -0.0229
 2126W        W18260   2.518  17.556   3.067 -0.2833 -0.3086 -0.1772
 2127W        W18261   1.527   0.325  11.732  0.1697 -0.1613  0.0428
 2128W        W18262  16.429   5.245  13.907 -0.1970 -0.0688  0.1440
 2129W        W18263   5.705  13.243  11.866  0.0818  0.4564 -0.1570
 2130W        W18264   4.446   1.048   0.524  0.2410  0.1364 -0.1518
 2131W        W18265   8.397   9.038  15.163  0.0146  0.1937 -0.0762
 2132W        W18266  15.792   1.449   2.442  0.1017 -0.2696  0.2629
 2133W        W18267   9.859  17.542   3.660  0.1289  0.1743 -0.0853
 2134W        W18268   9.057   8.627   2.294 -0.0358  0.3666 -0.1676
 2135W        W18269   0.344  15.543   3.023 -0.0279  0.0037 -0.2532
 2136W        W18270   3.870  11.907  16.363 -0.1709  0.0325 -0.0138
 2137W        W18271   6.331   1.957  14.488  0.0696 -0.1854  0.0001
 2138W        W18272   2.544  17.225   2.700 -0.1328  0.0558  0.1139
 2139W        W18273   6.628   8.207  12.650 -0.1522 -0.0494 -0.0691
 2140W        W18274  17.051   9.999   0.329  0.0537 -0.0874 -0.0480
 2141W        W18275  17.300   3.205   2.407  0.0165  0.0610 -0.1941
 2142W        W18276   3.170  13.840  13.885  0.1209 -0.2493 -0.3321
 2143W        W18277   2.668   2.407  15.915 -0.4307  0.1979  0.0438
 2144W        W18278   7.842  15.407   4.373  0.0990 -0.2587 -0.2766
 2145W        W18279   6.179   5.589   2.240  0.3138  0.2599  0.0100
 2146W        W18280  16.964  14.460  12.939 -0.4649 -0.1293 -0.1046
 2147W        W18281   8.313  14.155  13.551 -0.0092  0.0458  0.2736
 2148W        W18282  15.384   9.594   0.420 -0.0219  0.2529  0.3074
 2149W        W18283  14.225   8.915  12.502  0.0807 -0.2160  0.2376
 2150W        W18284   6.184   2.235  13.932  0.1194  0.1132 -0.0298
 2151W        W18285   4.421   1.221   4.517  0.1270 -0.1307  0.2013
 2152W        W18286   4.290  14.262   5.776  0.1787  0.3523  0.0945
 2153W        W18287   2.246  18.062   4.514  0.1453  0.1596  0.2823
 2154W        W18288   7.141   0.504  14.657  0.1108  0.0364 -0.1487
 2155W        W18289  17.275   7.464   3.744  0.1244  0.0079  0.1773
 2156W        W18290  16.401   4.173  13.615  0.0566  0.0310  0.2153
 2157W        W18291  13.308   2.964  11.544 -0.1985  0.2231  0.1295
 2158W        W18292   2.961  17.457  16.115 -0.2345  0.2036  0.1441
 2159W        W18293   1.573   4.555  16.282  0.2064  0.0614 -0.0593
 2160W        W18294   9.457   3.926   0.570 -0.1679 -0.0123 -0.0194
 2161W        W18295   3.336  11.941  15.507  0.0867 -0.2486  0.0659
 2162W        W18296   6.040   5.484   1.506  0.1870 -0.1557 -0.1551
 2163W        W18297  16.677  10.166   4.246  0.2448  0.1015 -0.1544
 2164W        W18298   1.297   9.444  11.438  0.0324 -0.2354  0.0965
 2165W        W18299   8.573   9.797   0.954 -0.1357  0.3409  0.1438
 2166W        W18300  14.702   4.982  16.267 -0.2202 -0.3756  0.4669
 2167W        W18301   4.399  16.543  13.294 -0.0008  0.4326  0.1376
 2168W        W18302  13.205   3.030  14.998 -0.2039 -0.0229 -0.3041
 2169W        W18303   8.805   2.450  15.110  0.0975  0.4466 -0.0331
 2170W        W18304   4.605  14.650  12.055 -0.0060 -0.0530  0.1086
 2171W        W18305  12.593  11.444  10.868  0.3188 -0.0451  0.0818
 2172W        W18306  11.248  12.221  15.530  0.0592 -0.0013  0.1102
 2173W        W18307  15.323  17.514  16.501 -0.1200  0.0330  0.0006
 2174W        W18308   9.123   8.611   0.969 -0.2068  0.0464  0.3611
 2175W        W18309   3.021  17.726   1.526 -0.1283  0.2510  0.0591
 2176W        W18310   3.481   2.975  13.458 -0.2470  0.0182 -0.1991
 2177W        W18311  15.627   3.762   2.818 -0.2071 -0.0165 -0.2343
 2178W        W18312  11.604  15.486  14.136  0.0344  0.0563  0.0326
 2179W        W18313  14.253  14.964   1.572  0.0078 -0.0933 -0.0732
 2180W        W18314   5.818  13.671  11.641  0.2036 -0.0807 -0.4427
 2181W        W18315  15.887  11.296   0.238 -0.1362 -0.3308 -0.1469
 2182W        W18316  13.987   6.589  13.241  0.0207  0.0571  0.3196
 2183W        W18317  17.182  12.179  16.408  0.0299  0.1133  0.0597
 2184W        W18318  15.728  12.048  16.294 -0.1091 -0.1245  0.0754
 2185W        W18319   5.571  11.876  15.030  0.0944 -0.1508  0.2843
 2186W        W18320   8.664  17.374  11.945  0.1161 -0.1120  0.0255
 2187W        W18321  12.039  18.051  14.520 -0.1705  0.3485  0.2563
 2188W        W18322   4.543  11.403   2.429 -0.1489 -0.2004  0.0483
 2189W        W18323   2.616   2.842  12.923 -0.1794  0.0498  0.2743
 2190W        W18324  12.267  11.596  11.209  0.0288 -0.1470 -0.3462
 2191W        W18325  16.292  17.720  14.949  0.1385  0.0663  0.3415
 2192W        W18326   7.642  12.968   3.932 -0.3114  0.0217 -0.0861
 2193W        W18327  14.715   9.650  10.552 -0.0483  0.1932  0.0145
 2194W        W18328   0.343   8.257  12.332 -0.0409  0.0657  0.0380
 2195W        W18329  11.850   8.249   5.333 -0.1112 -0.0008  0.0871
 2196W        W18330  16.507   8.819   1.050 -0.1798 -0.0284 -0.0748
 2197W        W18331   5.988   3.518   1.564 -0.0455  0.0878 -0.2560
 2198W        W18332   1.286  15.071   4.500 -0.0148 -0.0107  0.2352
 2199W        W18333  14.664   6.242   4.663  0.0144  0.1930  0.1430
 2200W        W18334  14.867  17.339  10.695 -0.1066  0.0286 -0.0871
 2201W        W18335   6.410  16.930  14.566 -0.2167 -0.0075 -0.1960
 2202W        W18336  17.612  15.441   4.134 -0.6996 -0.2417  0.0954
 2203W        W18337  17.976   5.757   3.260  0.0339  0.0599  0.1963
 2204W        W18338  10.692  17.344   4.121 -0.0382 -0.0112  0.2828
 2205W        W18339  16.547   8.329   4.150  0.2938  0.1534  0.2884
 2206W        W18340   0.837   2.611   1.178  0.2103 -0.0808  0.2014
 2207W        W18341  13.083   9.261  16.059  0.1570 -0.0872  0.2178
 2208W        W18342   0.267   7.941   0.039  0.4218  0.4146 -0.2993
 2209W        W18343  17.738  14.142   1.123  0.2322  0.1952 -0.0491
 2210W        W18344  18.032   7.094  12.695 -0.2341  0.1582 -0.1136
 2211W        W18345   3.037  16.752  12.260 -0.2990 -0.0423  0.0710
 2212W        W18346  13.128  15.576   0.543 -0.1910  0.0946  0.2152
 2213W        W18347   4.381   1.861  11.638 -0.1361 -0.0577 -0.1107
 2214W        W18348   3.817  12.310   2.231 -0.3192  0.0730 -0.2181
 2215W        W18349  15.178   6.703  14.872  0.2608  0.2698 -0.1400
 2216W        W18350   1.244   4.969  11.081  0.0992  0.0345  0.0849
 2217W        W18351  16.870  17.261  12.126  0.0636  0.0240 -0.1000
 2218W        W18352   2.324  14.991  14.290  0.0845 -0.1718 -0.0044
 2219W        W18353   1.361  13.235   3.479  0.0848 -0.1283 -0.0622
 2220W        W18354   8.942  15.752  13.200  0.2893 -0.2971  0.2044
 2221W        W18355   8.331  12.149   1.054  0.0842  0.2581  0.2118
 2222W        W18356  17.868   2.753   6.044  0.1188  0.4989 -0.0920
 2223W        W18357   0.289   6.975   0.253  0.0358 -0.2877 -0.1756
 2224W        W18358  15.661  14.888  16.124  0.1100  0.2024 -0.0830
 2225W        W18359  10.168   4.138  13.560 -0.2438  0.1422  0.1033
 2226W        W18360   0.978  12.184   3.334 -0.0868  0.0787  0.0471
 2227W        W18361  14.123  14.645   2.853  0.0428  0.0265 -0.2448
 2228W        W18362  18.063  10.154  13.538 -0.1955  0.0356  0.0392
 2229W        W18363  14.915   0.705   3.000 -0.1379 -0.2246 -0.0283
 2230W        W18364   6.789  17.630   4.566 -0.1728  0.1407 -0.2048
 2231W        W18365  14.960  17.089   1.821  0.0699 -0.0877  0.1259
 2232W        W18366   6.176  12.279   1.347 -0.0752  0.0809 -0.3203
 2233W        W18367   7.545   5.982  10.556  0.1137 -0.1829  0.3121
 2234W        W18368   8.851   0.015   1.703  0.0130  0.1599  0.2236
 2235W        W18369  12.338   6.677   4.551  0.0538  0.1578 -0.0925
 2236W        W18370   4.264   8.089   1.454  0.0192 -0.1732  0.2791
 2237W        W18371   1.157   5.320   5.385  0.0011  0.0636  0.1960
 2238W        W18372   3.517   3.775  11.911 -0.0200  0.0362 -0.1991
 2239W        W18373   4.152   5.381  12.663 -0.0738 -0.1438  0.1924
 2240W        W18374  11.115   7.749  12.174  0.0777  0.2414 -0.4397
 2241W        W18375   5.198   5.247   3.881 -0.1241 -0.0178  0.2680
 2242W        W18376  11.467  17.839   0.338  0.3376  0.1586  0.1035
 2243W        W18377   3.841  15.211   4.890  0.2326  0.4259 -0.3606
 2244W        W18378   1.117   9.590   2.095  0.0798 -0.0843 -0.0207
 2245W        W18379   6.769   4.768  13.971  0.1418  0.0039  0.1412
 2246W        W18380   9.892  17.686   0.075  0.3170  0.1024  0.0784
 2247W        W18381  18.104   8.918   3.468  0.1883  0.0561 -0.0312
 2248W        W18382   4.563  13.409   0.821  0.0983  0.1460  0.0959
 2249W        W18383  17.387   5.928  14.491 -0.0372 -0.1306 -0.1397
 2250W        W18384   0.602   2.446   5.720  0.3329 -0.4768  0.0996
 2251W        W18385  15.484  10.343   1.624 -0.1290 -0.4236  0.0004
 2252W        W18386   8.667   3.637  14.786  0.1013  0.0782 -0.1488
 2253W        W18387  17.649   0.207   4.640 -0.1625 -0.1816 -0.2484
 2254W        W18388   8.762  15.490   0.666 -0.2710  0.0905  0.2195
 2255W        W18389   1.807   6.606   4.089 -0.1981  0.0333  0.1379
 2256W        W18390   9.376  11.143  15.919 -0.0985 -0.2611 -0.0367
 2257W        W18391   5.621  18.000  15.539 -0.0869 -0.2064 -0.2050
 2258W        W18392   8.612  11.988   4.347 -0.0782  0.6214  0.0953
 2259W        W18393  10.307  12.564  14.530  0.1252 -0.0076 -0.4260
 2260W        W18394   9.591   4.065   4.838  0.1169  0.3820 -0.0749
 2261W        W18395  14.555  13.519   2.775  0.2983  0.2379  0.2533
 2262W        W18396   4.830  14.742  14.870 -0.0769  0.0758  0.0919
 2263W        W18397   3.443   5.756  15.658 -0.0288 -0.1039  0.2863
 2264W        W18398  17.913  12.024  14.809 -0.2915 -0.4106 -0.0626
 2265W        W18399   4.302  13.425   5.494  0.2918  0.0952 -0.2724
 2266W        W18400   5.632  14.411  16.051 -0.1346 -0.0790 -0.0528
 2267W        W18401   1.603   6.970  15.650 -0.2670 -0.1775 -0.1137
 2268W        W18402  14.288  10.779  13.711 -0.3207  0.2240  0.0857
 2269W        W18403   9.302  16.832   0.141  0.0492 -0.0231 -0.3562
 2270W        W18404  15.398  10.182  12.559  0.1841  0.2247  0.1188
 2271W        W18405   1.088  13.523  15.071  0.0672  0.0696 -0.1018
 2272W        W18406   7.395  14.327  14.893  0.1682 -0.0090 -0.1184
 2273W        W18407   9.667  13.379   0.754  0.2617  0.1017  0.2534
 2274W        W18408   1.494  11.259   1.555 -0.0346 -0.0058 -0.1455
 2275W        W18409   5.525   8.505   4.983 -0.1550 -0.2265 -0.2282
 2276W        W18410  15.555  11.393  11.685  0.3185 -0.1688  0.1360
 2277W        W18411   7.268   5.437  14.026 -0.1992 -0.0557 -0.0825
 2278W        W18412  12.134  15.659  12.857  0.1605 -0.3581  0.0466
 2279W        W18413   6.080  17.238   5.658  0.0343  0.0540  0.0139
 2280W        W18414   0.912   1.999  12.888  0.1137  0.1797  0.2676
 2281W        W18415  17.520  10.113  12.910 -0.0499  0.1528 -0.2601
 2282W        W18416  17.678  11.747  15.596  0.1816  0.0624  0.0437
 2283W        W18417   6.743   1.714   0.486 -0.1595  0.0978  0.1458
 2284W        W18418   7.671   0.859   1.394  0.1044  0.0473  0.0740
 2285W        W18419   3.829  15.176  15.395  0.0000 -0.3393 -0.1380
 2286W        W18420  11.864   2.974   2.635 -0.0831 -0.0393  0.4071
 2287W        W18421   9.506   4.380  15.367 -0.1080  0.2607 -0.0264
 2288W        W18422  18.035   9.350  11.125  0.4192  0.1312 -0.2485
 2289W        W18423  10.710   4.986   0.103 -0.1279  0.0077 -0.1099
 2290W        W18424   6.467   7.365   2.560  0.3270 -0.1103 -0.3115
 2291W        W18425   1.009   4.115   1.615 -0.2369  0.1961  0.2680
 2292W        W18426   3.869   3.824  14.135  0.2455 -0.1812 -0.3433
 2293W        W18427   1.832  16.260   3.253  0.0779  0.3079  0.0445
 2294W        W18428  15.195   4.013  16.001 -0.1555 -0.3010  0.1211
 2295W        W18429   3.375   3.210  11.326  0.1681 -0.1352 -0.5569
 2296W        W18430  13.106   4.900  16.007  0.1316 -0.1001 -0.0443
 2297W        W18431   2.834  16.239  15.954 -0.2594  0.0377  0.3256
 2298W        W18432   5.825   1.501  12.210  0.0844 -0.1621 -0.0912
 2299W        W18433  10.400   4.287  16.076  0.0727  0.0434 -0.2628
 2300W        W18434  12.111   1.772   2.591  0.2590 -0.3669  0.0220
 2301W        W18435  15.312  17.040   5.473 -0.0340 -0.0221 -0.0578
 2302W        W18436   4.396   3.874   4.492  0.1442  0.0576  0.0465
 2303W        W18437   2.453   7.287   2.007 -0.1920 -0.1008 -0.0892
 2304W        W18438   3.163   2.256  11.632  0.1616  0.3393  0.1176
 2305W        W18439  11.278   5.319   3.710 -0.0583  0.1266  0.1179
 2306W        W18440  15.892   2.860  12.837 -0.3078  0.1178  0.0388
 2307W        W18441   4.745   7.670  10.910  0.1029  0.2752 -0.0068
 2308W        W18442  11.494  17.072  15.935  0.0757  0.0549  0.0142
 2309W        W18443   1.884  16.696   5.148  0.0210  0.0497 -0.1115
 2310W        W18444  16.290   6.163   4.547  0.1943  0.0688 -0.0532
 2311W        W18445   0.428  12.443   3.127  0.0145 -0.1131  0.1573
 2312W        W18446   9.462  14.232  13.554  0.0410  0.0149 -0.0880
 2313W        W18447  14.981  16.683   5.304  0.0151 -0.0625 -0.1726
 2314W        W18448   3.289   9.604   4.888  0.0823  0.0379 -0.0120
 2315W        W18449   3.767   7.524  13.294  0.2122  0.1179  0.0912
 2316W        W18450  16.877   5.566   2.926 -0.1543  0.0614  0.0696
 2317W        W18451   3.629   6.915  11.994  0.0534 -0.0833  0.3065
 2318W        W18452  17.095  11.633  13.390 -0.3310  0.1472  0.1209
 2319W        W18453  14.051   3.191   1.813  0.1322  0.1872 -0.1667
 2320W        W18454   5.663  11.440   5.080  0.0399  0.0782  0.0839
 2321W        W18455  13.822   3.699   3.377 -0.1024  0.2408 -0.4779
 2322W        W18456   8.790   8.075  12.775  0.5341  0.2248 -0.0449
 2323W        W18457   2.299   3.938  11.934  0.5328  0.2172 -0.1423
 2324W        W18458  11.185  16.511  11.794 -0.1254 -0.0141 -0.1774
 2325W        W18459  16.986   7.953  16.485  0.2234  0.1146 -0.0263
 2326W        W18460  16.225  15.859   0.397 -0.1284  0.0650  0.0641
 2327W        W18461   1.167   9.238   4.276 -0.0672 -0.1050  0.1108
 2328W        W18462   3.097   4.224   3.882  0.1098  0.1332 -0.2042
 2329W        W18463  17.270   9.221  11.477  0.3635  0.0909  0.2297
 2330W        W18464  14.509  14.475  15.934 -0.1253  0.0506 -0.1675
 2331W        W18465   8.576   1.224   1.260  0.2728  0.0618 -0.2792
 2332W        W18466   6.237  11.294  12.216  0.2943 -0.0235  0.2110
 2333W        W18467   3.317   3.438  12.237 -0.2033 -0.3757  0.0623
 2334W        W18468   8.812   9.392  15.299  0.2509 -0.0857 -0.1363
 2335W        W18469  14.203   0.502  12.154  0.1364 -0.4889  0.3655
 2336W        W18470   0.465  11.621   3.893  0.1611  0.2850  0.1661
 2337W        W18471  11.101   0.959  13.811 -0.1964  0.0058 -0.2899
 2338W        W18472  10.586  10.367  13.301  0.1974 -0.0948  0.0583
 2339W        W18473   1.999   3.935  13.470  0.0823 -0.1142 -0.1068
 2340W        W18474  12.692  10.125  12.537  0.0381  0.0995  0.1402
 2341W        W18475  15.734  12.324   5.276  0.0372  0.1385  0.1765
 2342W        W18476   2.640   3.362  12.773  0.0689  0.1897  0.0388
 2343W        W18477  12.821   1.595   6.401 -0.1839 -0.0428  0.3103
 2344W        W18478   3.631  17.353   1.503  0.1170 -0.1104  0.1044
 2345W        W18479   8.453  15.481  15.879 -0.2709  0.0285  0.0925
 2346W        W18480   8.143   1.178  14.779 -0.0742 -0.0060 -0.2892
 2347W        W18481  16.482  17.195  11.773  0.1295  0.1767 -0.0008
 2348W        W18482   4.438  12.120  16.313  0.1502 -0.0179  0.2086
 2349W        W18483   3.685   8.018  11.707  0.0865 -0.2534  0.3197
 2350W        W18484  12.353   9.145   1.658  0.2050 -0.1023 -0.2158
 2351W        W18485  12.437   8.710   1.905  0.3532 -0.1993  0.2836
 2352W        W18486  17.098  15.673  14.609  0.0439  0.2227  0.0219
 2353W        W18487   7.187  16.019   0.255  0.1389 -0.2669  0.3465
 2354W        W18488  11.253   1.398  14.920 -0.0445 -0.1992  0.1343
 2355W        W18489   5.898   7.140  11.603  0.0680  0.0616  0.0792
 2356W        W18490   4.889   5.003  12.448 -0.2043  0.0276  0.0606
 2357W        W18491   8.949  17.392   3.070  0.0267 -0.1384  0.2345
 2358W        W18492  13.349   9.650  16.297 -0.2710 -0.1213 -0.6006
 2359W        W18493   4.684   3.506   5.127 -0.0706  0.4185  0.0302
 2360W        W18494   1.422  14.044   5.042 -0.1752  0.0748 -0.2680
 2361W        W18495   6.548  14.808   0.787 -0.0313 -0.0913 -0.2296
 2362W        W18496   9.520   5.428   3.698  0.3310  0.2021  0.2376
 2363W        W18497   0.252   0.245   3.695  0.0675 -0.0327 -0.2727
 2364W        W18498   0.276  13.295  15.448 -0.0958 -0.0785 -0.0639
 2365W        W18499   0.427   5.441  13.077  0.0535 -0.1731  0.0549
 2366W        W18500  11.509  16.017  14.919 -0.2890  0.0290 -0.2528
 2367W        W18501   3.753   1.602   2.360  0.0008  0.0656  0.0644
 2368W        W18502  14.291   1.275  13.335  0.1127  0.1360  0.3254
 2369W        W18503   2.284  15.640   1.952  0.3267  0.0332  0.0153
 2370W        W18504  16.038   5.867  12.282 -0.3025 -0.0903 -0.1106
 2371W        W18505  16.547   9.353   2.831  0.3116  0.0293 -0.1199
 2372W        W18506   0.745   0.982  15.447  0.1452  0.0030 -0.0908
 2373W        W18507  14.278  13.744   2.377  0.1524 -0.2771 -0.1365
 2374W        W18508  11.314   5.870  13.741 -0.1765  0.0845 -0.0817
 2375W        W18509  15.265   5.314  13.523 -0.3864 -0.2016 -0.1420
 2376W        W18510   9.622   2.068  10.951 -0.1020  0.1689  0.2766
 2377W        W18511  16.667  12.351  13.136  0.0170 -0.0427 -0.2320
 2378W        W18512   5.214  15.171  12.668 -0.3105 -0.1380 -0.1905
 2379W        W18513  10.205   5.445  15.437  0.4100  0.0064  0.0033
 2380W        W18514   6.757   9.742  14.596  0.1992  0.1133 -0.1429
 2381W        W18515   7.445  13.318  12.497 -0.2383 -0.4622 -0.1312
 2382W        W18516   7.567   6.864  14.635 -0.1721 -0.0726 -0.2104
 2383W        W18517  11.989   4.424   0.185  0.0771  0.3056  0.2315
 2384W        W18518  14.227   6.560   4.437 -0.1417 -0.0363  0.0644
 2385W        W18519   8.476   9.386  11.063  0.0099  0.0443  0.1657
 2386W        W18520  14.215   9.417  13.623 -0.1597  0.0414  0.1070
 2387W        W18521   7.588  14.721   3.203 -0.2962  0.1061  0.1163
 2388W        W18522   2.075   5.160   4.229 -0.2670  0.1039  0.1573
 2389W        W18523  14.538  18.042   0.109  0.2915  0.1975 -0.0977
 2390W        W18524  13.711   8.080   2.227  0.2267  0.0815 -0.0269
 2391W        W18525  14.264  14.549  12.267 -0.3203  0.0147 -0.0861
 2392W        W18526  15.300   8.962   4.898 -0.2988 -0.2396 -0.3658
 2393W        W18527  14.955  15.874   3.667  0.1018  0.2264  0.1511
 2394W        W18528  15.119  10.494   5.086  0.0905 -0.0052  0.1125
 2395W        W18529   3.613   5.180   4.710  0.0258 -0.1745  0.1971
 2396W        W18530   9.178  10.538  14.022  0.1486 -0.1851 -0.0080
 2397W        W18531  13.306  13.495   0.239 -0.0690  0.1808  0.0416
 2398W        W18532   1.919  10.445   4.255 -0.1787 -0.1107  0.0673
 2399W        W18533  12.536  10.986   3.718  0.1080  0.1421 -0.0708
 2400W        W18534  16.129   8.629   1.973 -0.2809 -0.0821 -0.0757
 2401W        W18535   5.128   8.591   1.594  0.1964  0.1789  0.2008
 2402W        W18536   0.626   3.526  15.859  0.1153  0.0895 -0.0838
 2403W        W18537  10.082   7.162  11.660 -0.0128 -0.0845  0.0006
 2404W        W18538   2.100   0.819  13.702  0.1257  0.1841 -0.0206
 2405W        W18539   4.057   0.012  14.984  0.2546  0.0928  0.0440
 2406W        W18540  14.853   1.074   0.558  0.0023 -0.0014 -0.1857
 2407W        W18541   8.058   3.899   0.181 -0.0867 -0.0788  0.0689
 2408W        W18542  11.410   8.213   0.178  0.0894  0.1239  0.1028
 2409W        W18543  13.365   9.827  12.949 -0.3201  0.0939  0.3285
 2410W        W18544   3.099  17.761   3.233 -0.0547  0.0861  0.1344
 2411W        W18545  15.327   9.329   3.059  0.2854  0.2856 -0.0002
 2412W        W18546   6.980   0.304  13.680  0.4794  0.1612  0.1235
 2413W        W18547  11.121   5.261  13.192  0.2790 -0.0353 -0.2126
 2414W        W18548   6.601   3.634  16.163  0.0549 -0.1969 -0.1187
 2415W        W18549   7.089  10.966   2.952 -0.1365  0.0624  0.1627
 2416W        W18550  10.447   6.145  11.791 -0.1274 -0.1215  0.2330
 2417W        W18551  12.856   0.915  11.632  0.1538 -0.5632 -0.0675
 2418W        W18552   2.443   9.768   1.642  0.0332 -0.0706  0.0517
 2419W        W18553   3.471   5.675   2.266  0.1609 -0.0581 -0.2861
 2420W        W18554   4.560   9.428   4.598 -0.1905  0.2259 -0.0004
 2421W        W18555   4.550  18.077  14.893  0.0991 -0.1893 -0.0917
 2422W        W18556   4.543  17.781  12.072  0.2916 -0.0253  0.3920
 2423W        W18557   9.818   7.224  10.385 -0.0401 -0.1272 -0.1025
 2424W        W18558  17.516  15.599   3.638  0.0793 -0.1624 -0.0129
 2425W        W18559   1.080   1.498   0.390  0.2270  0.3068  0.1545
 2426W        W18560  14.039  15.221   0.366 -0.0616  0.1178  0.2265
 2427W        W18561   8.632   5.629  14.773 -0.0649  0.0515 -0.3438
 2428W        W18562   1.863  13.967  13.943 -0.1394  0.2204 -0.1950
 2429W        W18563   5.316  10.200  13.683  0.3314 -0.2355  0.3437
 2430W        W18564   6.545  15.070   3.315 -0.3640  0.1352 -0.0313
 2431W        W18565  11.281  11.214   0.341  0.0330 -0.4104  0.3783
 2432W        W18566  17.143   4.990   5.475  0.1305 -0.0974  0.1798
 2433W        W18567   2.654  11.238   2.366 -0.0939 -0.0458 -0.1367
 2434W        W18568  12.682   7.711  16.045  0.0184 -0.1046 -0.1915
 2435W        W18569   7.038   1.333   4.647  0.1618  0.1122  0.0315
 2436W        W18570  16.730   7.564  13.141 -0.0378 -0.0886 -0.1437
 2437W        W18571  10.875   0.223  15.636  0.1040 -0.0230  0.4485
 2438W        W18572   0.512   8.836  13.958  0.0106 -0.1297 -0.1569
 2439W        W18573   7.363   0.357  13.952 -0.1591  0.1187  0.1380
 2440W        W18574   6.929  13.876  10.201 -0.1012 -0.1204  0.0024
 2441W        W18575   9.653  13.832   5.454 -0.1631 -0.2847 -0.3347
 2442W        W18576   5.416   9.392  13.943 -0.3172 -0.1223  0.0734
 2443W        W18577   1.759  16.558  15.772  0.0598  0.2364  0.0649
 2444W        W18578  11.751   0.273  14.655 -0.0625  0.1541  0.0386
 2445W        W18579  15.465  14.428  16.168 -0.1410  0.1161  0.1108
 2446W        W18580  17.969  14.834  15.541 -0.0054  0.0509 -0.0605
 2447W        W18581   3.020   8.821   5.970 -0.2594  0.0349 -0.1923
 2448W        W18582   8.616  11.385  12.956 -0.2446 -0.1228  0.1882
 2449W        W18583   2.431   6.264  11.912  0.0586  0.3350  0.0837
 2450W        W18584  11.619  11.329  15.211  0.2069 -0.0141  0.0909
 2451W        W18585   6.490  16.570  12.572 -0.1109 -0.1158 -0.5992
 2452W        W18586  17.670  17.265  15.643  0.0261 -0.1913  0.0430
 2453W        W18587   1.561   8.628   1.385 -0.0470 -0.1838  0.0936
 2454W        W18588  13.622  10.843  14.267 -0.0255  0.0615  0.0660
 2455W        W18589   0.549   8.750  12.476 -0.0439  0.0885  0.0382
 2456W        W18590   4.648  13.319   1.704  0.1776  0.0660 -0.1518
 2457W        W18591  12.572   4.064  13.425  0.1811  0.4008  0.0608
 2458W        W18592  12.611   7.784   5.302 -0.2098 -0.0375  0.0141
 2459W        W18593   0.636   0.168   1.835  0.0201  0.1872 -0.1545
 2460W        W18594   0.417   7.185   4.406 -0.0693 -0.0484  0.0610
 2461W        W18595  14.145  14.920  13.974 -0.1905 -0.2013  0.2959
 2462W        W18596  18.125   5.726   4.330  0.0357  0.0754 -0.0049
 2463W        W18597   1.551   3.710  15.962  0.0255 -0.1786 -0.0383
 2464W        W18598   2.213  11.947   2.709  0.1692 -0.2815  0.0033
 2465W        W18599  18.120  11.820  16.461  0.0118 -0.0710 -0.0274
 2466W        W18600  12.275   8.388  15.398 -0.2351 -0.0098  0.0329
 2467W        W18601   2.529  12.926   3.405 -0.1612 -0.2380  0.2714
 2468W        W18602  14.424   2.909   3.547  0.2998  0.0562  0.1788
 2469W        W18603  14.465   3.582  14.475 -0.1413 -0.0919  0.0821
 2470W        W18604  13.428   5.265   1.630 -0.3168 -0.0606  0.0119
 2471W        W18605   6.281  12.069   3.146 -0.1305  0.0902  0.0719
 2472W        W18606   5.683  15.087  14.747  0.0586  0.1199  0.2966
 2473W        W18607   1.604   3.355  11.567  0.0494  0.1754 -0.0847
 2474W        W18608  13.150  13.070  13.243 -0.0374  0.0551  0.3933
 2475W        W18609   6.672   1.872   3.914 -0.3040 -0.2714  0.1954
 2476W        W18610   6.915   5.549   4.004  0.0349  0.0570  0.2650
 2477W        W18611  14.489   2.361   5.005 -0.0384  0.0004 -0.2388
 2478W        W18612  13.217  10.368   2.792  0.1287 -0.3975 -0.1686
 2479W        W18613   0.797  14.740   1.575  0.0272  0.4274  0.2272
 2480W        W18614  11.541   0.753   5.235 -0.2429 -0.2586  0.0920
 2481W        W18615   0.073   1.012  13.466  0.1444  0.0923 -0.1338
 2482W        W18616   8.976  10.701   4.462 -0.1144  0.1122 -0.1948
 2483W        W18617  11.741  18.027   4.454 -0.1922  0.0438 -0.0532
 2484W        W18618  14.147  17.080   3.064 -0.1213 -0.1902  0.1076
 2485W        W18619   6.348  17.741   1.200 -0.0975 -0.1870 -0.1434
 2486W        W18620   1.587   8.727   3.744 -0.1885 -0.2545 -0.0952
 2487W        W18621   9.018   6.881   5.073 -0.2154  0.2875 -0.1095
 2488W        W18622  12.861   4.198   5.173  0.1516  0.1525 -0.0409
 2489W        W18623  11.982   8.172  12.965 -0.0272 -0.0235  0.3269
 2490W        W18624   6.265  13.808   1.273  0.1360 -0.1176  0.1980
 2491W        W18625   9.499  11.577   4.439  0.2962 -0.2199  0.0291
 2492W        W18626  17.771  14.480   2.725  0.2678  0.1087 -0.1965
 2493W        W18627  16.859   2.591   0.875 -0.2111  0.0224  0.4401
 2494W        W18628   0.375  16.190   2.801 -0.2556  0.3312 -0.2025
 2495W        W18629   5.129   4.616   0.268  0.0381  0.1313 -0.0559
 2496W        W18630   8.353  11.189   3.979 -0.0459 -0.1479 -0.3678
 2497W        W18631   6.172   1.991  11.721 -0.1867  0.0575 -0.1214
 2498W        W18632  10.184   2.838  14.252  0.0503 -0.0007  0.0400
 2499W        W18633   1.147  16.676  12.927  0.3644  0.1329 -0.0010
 2500W        W18634  11.289   9.579  11.677 -0.0162  0.2606 -0.1143
 2501W        W18635  10.008  13.854   2.258  0.0046 -0.1645  0.0037
 2502W        W18636   1.560   1.542   2.494  0.1407  0.1350 -0.0005
 2503W        W18637  13.003  11.682  16.121 -0.1236 -0.1609  0.1748
 2504W        W18638  18.166   8.767  14.173  0.2529  0.0608 -0.2215
 2505W        W18639   3.952   8.874  13.874  0.2251 -0.2284 -0.1218
 2506W        W18640  12.846   4.000   0.219  0.0602  0.3255  0.1391
 2507W        W18641   0.792   8.292  12.694  0.1459 -0.0408  0.1321
 2508W        W18642   1.395  14.136   4.148  0.1841 -0.2502 -0.2033
 2509W        W18643  17.654  15.084  12.466 -0.1197 -0.0441 -0.1175
 2510W        W18644   7.231  16.402   1.707 -0.4169 -0.1051 -0.0123
 2511W        W18645   3.573   8.303  14.587  0.0503  0.3043 -0.1660
 2512W        W18646   6.406   7.163   1.224 -0.1859  0.0805 -0.1126
 2513W        W18647  11.487   3.140   3.819 -0.0974  0.2348 -0.1774
 2514W        W18648   1.321   8.053   0.128 -0.1023  0.1950  0.0177
 2515W        W18649  13.589  12.508   2.512 -0.0128 -0.0544 -0.1520
 2516W        W18650   0.447   1.599  15.137 -0.1598 -0.1297 -0.0726
 2517W        W18651   4.404   1.284   5.561  0.1326  0.3108 -0.2076
 2518W        W18652   6.793   3.641   2.215  0.3319 -0.1020  0.2411
 2519W        W18653   8.000   7.010  14.934 -0.1003 -0.2268  0.1497
 2520W        W18654  10.612   0.152   4.816 -0.2547  0.2257  0.1393
 2521W        W18655   7.421  16.135   4.653 -0.0274 -0.0172  0.1787
 2522W        W18656  15.524   2.385  16.247  0.2841 -0.0377 -0.3700
 2523W        W18657   9.160   1.813   5.758 -0.5171  0.0913 -0.0163
 2524W        W18658   0.381  11.823  12.847  0.0460 -0.1041 -0.2253
 2525W        W18659  15.592   3.950  14.217  0.0676  0.3047 -0.0453
 2526W        W18660   8.497   8.833   2.559  0.0613  0.0234  0.0610
 2527W        W18661  10.112   3.672   3.118  0.3547  0.3124 -0.0803
 2528W        W18662   4.038   0.920   2.761  0.0409 -0.0888 -0.0665
 2529W        W18663   9.550   9.178   3.299  0.2593 -0.0017 -0.1899
 2530W        W18664   0.999  13.621  16.095  0.1607 -0.1489 -0.2534
 2531W        W18665  13.496  14.692   4.481  0.3248  0.0880 -0.3179
 2532W        W18666   5.483   2.610   5.604 -0.2107 -0.1776 -0.1577
 2533W        W18667  13.582  13.188   2.071  0.0861  0.2030  0.1448
 2534W        W18668   7.070   9.248   3.386  0.1285 -0.1275  0.0599
 2535W        W18669   7.019   3.363  15.291 -0.1748  0.5299  0.1579
 2536W        W18670   2.323  16.374   4.023 -0.0174 -0.0418 -0.0502
 2537W        W18671   1.283   1.687  12.615 -0.1892 -0.1172 -0.0177
 2538W        W18672  17.693  14.627  15.900  0.4357  0.0353 -0.0434
 2539W        W18673   2.761  14.770  15.108  0.1118 -0.2784 -0.0867
 2540W        W18674   8.840   5.375   4.142 -0.1643 -0.2717  0.0513
 2541W        W18675   1.275   2.775  13.287  0.2438  0.1044  0.0150
 2542W        W18676   3.040  12.941   1.724  0.1010 -0.0170 -0.3781
 2543W        W18677  11.224   8.347  10.932 -0.4880  0.0565  0.2147
 2544W        W18678   9.860  12.112  15.510 -0.2976  0.0879  0.1372
 2545W        W18679  16.007   8.688  13.910  0.0238  0.3894  0.0372
 2546W        W18680   5.163   3.388  13.520 -0.1753 -0.0025  0.0493
 2547W        W18681   5.052  18.122  15.002 -0.0768 -0.0724  0.1182
 2548W        W18682  14.344  16.635  15.688  0.0174  0.3198 -0.2041
 2549W        W18683   1.153   8.901   3.938  0.1173 -0.0779 -0.1501
 2550W        W18684  15.900  16.934   2.943  0.2542  0.0110 -0.1586
 2551W        W18685  17.539   2.925   2.901  0.3873  0.0536  0.1709
 2552W        W18686   6.791   6.179   3.578  0.1125  0.3776 -0.2039
 2553W        W18687  13.494  16.059   6.920  0.1328  0.0646  0.0976
 2554W        W18688  16.447   0.186  13.727 -0.1087  0.4234  0.0300
 2555W        W18689   8.347   5.948  15.733 -0.1707 -0.0753 -0.1505
 2556W        W18690   3.621   0.014  12.697  0.1584 -0.0327 -0.0916
 2557W        W18691   9.492   4.300   1.407  0.0737  0.0422  0.0520
 2558W        W18692  12.287   1.282  16.114 -0.3192 -0.2676 -0.1773
 2559W        W18693  17.342   1.615  12.151 -0.2126  0.3444 -0.1392
 2560W        W18694   5.820  11.551   3.607 -0.0134  0.1070  0.1988
 2561W        W18695   3.471  13.204   4.201 -0.1519  0.2222 -0.0282
 2562W        W18696   4.678   8.692   0.789  0.1580 -0.4199  0.2480
 2563W        W18697  17.719  15.918  15.620  0.0340  0.2584  0.0246
 2564W        W18698  17.041  10.244  13.516 -0.0362  0.0226  0.0308
 2565W        W18699  12.697   6.745   3.254  0.1632 -0.1337 -0.0809
 2566W        W18700   2.500   9.143  14.895  0.1406 -0.0277 -0.0014
 2567W        W18701   9.656  13.914  14.359  0.1356  0.0400  0.3241
 2568W        W18702   8.356  17.592  15.289 -0.1068 -0.2779  0.0981
 2569W        W18703  11.793   9.628   1.806 -0.1117 -0.0307  0.1887
 2570W        W18704  15.237  12.138   2.819  0.0557 -0.0936 -0.0037
 2571W        W18705   0.886  11.428   2.230  0.0201  0.0946  0.2750
 2572W        W18706  17.479  12.258  14.431  0.4150 -0.0695 -0.0223
 2573W        W18707   1.088   0.793  13.599  0.0814 -0.3178 -0.1313
 2574W        W18708  13.298  13.507  15.939 -0.0595 -0.0900  0.2042
 2575W        W18709   1.708  17.935   5.762  0.1022 -0.1049 -0.0894
 2576W        W18710   3.804   6.839   0.134  0.0572  0.1717  0.2418
 2577W        W18711  15.956   0.106   0.203 -0.0979 -0.0353  0.0604
 2578W        W18712   3.666   2.002   3.512 -0.1815  0.0316  0.1886
 2579W        W18713   1.835  17.426   0.298  0.1515  0.0492 -0.1383
 2580W        W18714  18.078  13.258   5.069 -0.1534  0.0429  0.0816
 2581W        W18715   1.900   6.217  11.745 -0.2849 -0.2467 -0.1091
 2582W        W18716   9.229   0.315  15.766  0.1096 -0.1454  0.1572
 2583W        W18717  11.701  13.347   3.069  0.2594 -0.3047  0.0318
 2584W        W18718   3.969  12.342   3.577  0.1415  0.1491  0.0640
 2585W        W18719   3.043   7.659  11.699 -0.2259 -0.0254  0.1012
 2586W        W18720  14.495   2.957  12.910  0.3450  0.3536 -0.0216
 2587W        W18721   3.367   6.911  15.005 -0.2564  0.1873  0.0326
 2588W        W18722   0.425  11.633  14.234 -0.0080  0.0237  0.3552
 2589W        W18723  13.915   5.121   1.455 -0.0595 -0.3150  0.1454
 2590W        W18724   3.039   2.667   0.823  0.2518  0.0049  0.0319
 2591W        W18725   4.395  14.510   6.302 -0.0069  0.1992  0.3904
 2592W        W18726   9.133   4.830   0.519 -0.0026  0.0501 -0.3600
 2593W        W18727  11.238  14.583   4.317 -0.0592  0.0065  0.2942
 2594W        W18728   9.837   1.279  13.366 -0.0564 -0.1259 -0.1928
 2595W        W18729   1.185  10.130   2.073 -0.0333 -0.1729 -0.1011
 2596W        W18730   2.006  17.927  14.390  0.0708 -0.1709  0.0551
 2597W        W18731   8.720  10.005  15.022  0.1449  0.1742  0.1453
 2598W        W18732  14.641   1.148  11.561 -0.2730 -0.0346  0.1090
 2599W        W18733  12.106  11.306  13.662 -0.2564  0.3649 -0.1030
 2600W        W18734   5.293   8.492   4.470  0.3262 -0.2053 -0.0719
 2601W        W18735   6.200   7.818  16.227 -0.0773  0.0893  0.0617
 2602W        W18736   6.263   2.618   4.069 -0.1302 -0.0335 -0.0905
 2603W        W18737   4.444  15.667  15.328  0.3075  0.2884 -0.1410
 2604W        W18738  16.819  14.040   4.668  0.2300  0.1475 -0.3090
 2605W        W18739  11.630   4.965   2.611  0.1536 -0.2840 -0.1649
 2606W        W18740  15.141   2.829  15.424  0.2260 -0.0259 -0.3044
 2607W        W18741  14.525   7.209  12.127  0.0376  0.0652  0.2098
 2608W        W18742   3.653   6.262   5.065  0.2630  0.0597 -0.0073
 2609W        W18743   0.191  14.088  13.885 -0.1754 -0.0535 -0.2346
 2610W        W18744  15.385  13.039   0.417  0.0030 -0.0166  0.1523
 2611W        W18745   2.249   8.739  15.617 -0.1362  0.0398 -0.2578
 2612W        W18746   6.231  13.020  15.271 -0.0599 -0.1521  0.0695
 2613W        W18747  15.056   9.355  13.026  0.0314  0.1067  0.0251
 2614W        W18748  17.321  12.430  15.213 -0.1283  0.0639 -0.2274
 2615W        W18749  16.081   7.154  12.436 -0.0654 -0.1880  0.2901
 2616W        W18750   7.003   8.434  13.034  0.2059  0.0629 -0.2038
 2617W        W18751   4.744  14.596   2.094 -0.2016  0.2456  0.1991
 2618W        W18752  12.734   7.153  15.886 -0.2925  0.0400  0.2675
 2619W        W18753   4.572   9.175   3.034  0.1804 -0.2223 -0.1445
 2620W        W18754   8.862  11.558  12.567 -0.1068  0.2559 -0.0670
 2621W        W18755  14.555   8.162  16.439 -0.1422  0.1815  0.1379
 2622W        W18756  12.856  10.812  14.681 -0.1095  0.1271  0.1586
 2623W        W18757  17.256   5.461   0.091  0.2869  0.0800  0.1935
 2624W        W18758   0.684   5.365   5.514  0.0237  0.3109 -0.0985
 2625W        W18759   9.683   9.025   3.803 -0.0062  0.1853  0.0672
 2626W        W18760   3.720   3.055   0.511 -0.0733 -0.0208  0.0513
 2627W        W18761   3.738   7.374  13.943 -0.3443 -0.0005 -0.3385
 2628W        W18762   7.637   9.032  11.753  0.1890  0.0427 -0.1446
 2629W        W18763  16.531  18.019  15.241  0.2470  0.1064  0.1173
 2630W        W18764   2.130   8.181   4.872  0.1194 -0.1435 -0.1469
 2631W        W18765  11.030   2.017   3.371 -0.0690 -0.1084 -0.0582
 2632W        W18766  14.184   6.006   4.508 -0.1072  0.0106 -0.1031
 2633W        W18767  13.725  14.260   1.402 -0.1416 -0.2661  0.0877
 2634W        W18768   0.497   8.143   3.545  0.1405  0.1558 -0.0792
 2635W        W18769  15.967   3.051   0.872 -0.0633 -0.0705  0.1118
 2636W        W18770  18.037   8.974   1.761 -0.1214 -0.0060 -0.1281
 2637W        W18771   0.385  16.188   0.065  0.0419 -0.2401  0.1900
 2638W        W18772   2.449  13.104  13.789  0.2222 -0.3538 -0.1816
 2639W        W18773  16.182  16.007   3.306 -0.1135 -0.0024 -0.3328
 2640W        W18774   0.711  10.004   2.867 -0.0840 -0.2053  0.1418
 2641W        W18775  12.724   8.898  15.946  0.1097  0.0500 -0.1971
 2642W        W18776  17.515   3.890   4.906  0.1345  0.0865 -0.2582
 2643W        W18777   6.551   5.732   5.183 -0.0811  0.3093 -0.0240
 2644W        W18778   7.434   9.878  12.258 -0.0342  0.1001 -0.1217
 2645W        W18779   0.111   7.324   5.153 -0.1064 -0.1402 -0.3233
 2646W        W18780  16.248  13.764   1.362 -0.2844  0.2095 -0.2907
 2647W        W18781  10.854   0.053  12.937  0.0921 -0.3413  0.1441
 2648W        W18782   2.860  16.847  14.616 -0.1944 -0.2176  0.2328
 2649W        W18783   1.372  13.780   1.733 -0.0996  0.1252 -0.1106
 2650W        W18784  13.469   7.099  15.767  0.0409  0.0626  0.0076
 2651W        W18785   6.829  14.891  11.520  0.0552  0.1194 -0.1348
 2652W        W18786   3.780  14.735  11.719 -0.0611  0.0802 -0.0624
 2653W        W18787   1.335   6.498  14.073  0.0270 -0.1013 -0.1548
 2654W        W18788   0.461  17.503  12.375 -0.0583  0.3648 -0.0713
 2655W        W18789   4.035  13.385   4.967 -0.1771 -0.0749  0.0502
 2656W        W18790   2.605  14.511   2.015  0.1028 -0.0217  0.2920
 2657W        W18791  16.797   4.162   0.352 -0.2188  0.0645 -0.3190
 2658W        W18792   8.044  15.620   1.307 -0.1970  0.0405  0.0173
 2659W        W18793   7.329   6.401   1.958 -0.0731 -0.2627  0.0571
 2660W        W18794  16.634   1.818   5.250 -0.2629  0.1312 -0.2082
 2661W        W18795  16.522   2.476   0.424  0.0617  0.0177  0.0473
 2662W        W18796   6.262   4.261  13.404 -0.0612 -0.2550  0.0324
 2663W        W18797  14.236   2.821   5.086 -0.0505 -0.2476  0.0003
 2664W        W18798   6.847   4.377   6.264 -0.4084 -0.2626  0.0438
 2665W        W18799  11.982   8.752  13.608 -0.0745 -0.0715  0.1391
 2666W        W18800  14.465   4.902   1.901 -0.0728  0.1713  0.0775
 2667W        W18801  14.739   9.083  14.404 -0.2007  0.3682 -0.0955
 2668W        W18802   0.710   5.872   3.105 -0.0475 -0.1028  0.3674
 2669W        W18803   8.569   5.053   5.300 -0.1008  0.0025  0.1483
 2670W        W18804  17.373  13.757  14.615  0.1317 -0.0012  0.2733
 2671W        W18805  16.955   0.651   5.633 -0.1131 -0.4146  0.3867
 2672W        W18806   1.250  15.432   2.879  0.0521 -0.4600  0.1389
 2673W        W18807  18.014   4.651  12.090 -0.1944  0.1661  0.0732
 2674W        W18808   4.002  10.831  13.574  0.2491  0.0082 -0.0020
 2675W        W18809  12.219   3.699   3.737  0.1700 -0.0827  0.0107
 2676W        W18810  12.944  14.547   1.009 -0.0649  0.0389  0.0190
 2677W        W18811  17.058   8.359  16.170 -0.1379 -0.0251 -0.3725
 2678W        W18812   6.937   2.197   4.746  0.1002  0.0104 -0.0168
 2679W        W18813   0.416   1.942  12.053  0.1270 -0.0813 -0.0345
 2680W        W18814   5.062  13.345  14.279  0.0768 -0.0509  0.1822
 2681W        W18815  16.953   4.213   3.070 -0.1554 -0.0376 -0.0648
 2682W        W18816  18.131  13.850  13.493  0.0351  0.1762  0.2006
 2683W        W18817   7.972  14.631   2.588  0.2244  0.3345  0.0223
 2684W        W18818   8.848  14.896   2.306  0.1817  0.1237 -0.1577
 2685W        W18819   8.032  17.472   0.227  0.1704 -0.0529 -0.0534
 2686W        W18820   2.282   5.078   0.285 -0.0755 -0.0582  0.0598
 2687W        W18821  12.786   6.472  13.270 -0.0939  0.0222 -0.1474
 2688W        W18822   0.023   2.266   0.353  0.1735  0.0951  0.1197
 2689W        W18823   5.877   7.087   3.161 -0.0740 -0.0442  0.3299
 2690W        W18824   4.164  17.103  15.443 -0.0119  0.0155 -0.1905
 2691W        W18825   7.211  15.790   2.446  0.4694  0.1059  0.1087
 2692W        W18826   9.699   8.846  10.633 -0.2992  0.2851  0.1266
 2693W        W18827  10.644  11.052  11.271 -0.2936 -0.1496  0.1058
 2694W        W18828  17.110   7.338  15.787  0.4288  0.0879 -0.0214
 2695W        W18829   7.815   1.952  14.258  0.1123  0.0600  0.4398
 2696W        W18830   8.645  16.050  12.334 -0.0973  0.0476  0.1234
 2697W        W18831  11.010   7.237  13.009  0.1146  0.1648 -0.0922
 2698W        W18832  16.267  17.559  11.043 -0.1774  0.1604  0.0054
 2699W        W18833   7.224   0.222   1.902  0.3577  0.4550  0.0963
 2700W        W18834  11.488  16.973   0.046 -0.3909 -0.1501 -0.1427
 2701W        W18835   2.342   6.552   3.926 -0.0688 -0.2100  0.0363
 2702W        W18836   7.917   9.158   3.101  0.1431  0.3231  0.1148
 2703W        W18837   9.856   7.410   3.072 -0.1018  0.0276  0.2115
 2704W        W18838  16.921  13.802   5.209  0.1723  0.1797 -0.0300
 2705W        W18839   8.872  12.330  11.466 -0.1101  0.1739  0.0387
 2706W        W18840   3.298  11.568   4.271  0.0679  0.2874 -0.2958
 2707W        W18841  13.773   3.008  14.883  0.3374  0.0340 -0.3638
 2708W        W18842   6.897  17.398   2.184  0.0965 -0.0957  0.1728
 2709W        W18843  12.575  17.103   1.965 -0.3497 -0.0485 -0.0171
 2710W        W18844  16.473  12.825  10.822 -0.3043 -0.1215  0.3854
 2711W        W18845  15.607   5.063  15.333  0.2365  0.0912 -0.0993
 2712W        W18846  17.575  16.054  11.849  0.1918  0.0233  0.0025
 2713W        W18847  14.613  10.066  14.746 -0.3996  0.1923  0.3223
 2714W        W18848  10.747   7.250   3.248  0.1395  0.2452 -0.0656
 2715W        W18849   1.142   5.800   2.275 -0.1359 -0.1243  0.0180
 2716W        W18850  15.085  16.950  16.396 -0.0718  0.0175 -0.0696
 2717W        W18851   6.157  16.094   1.099  0.1533  0.1166  0.1223
 2718W        W18852   0.514   0.185  12.160 -0.0537 -0.1659  0.1348
 2719W        W18853   7.233  10.066   4.350  0.0226  0.1232 -0.0729
 2720W        W18854   4.145  14.838   5.080  0.1507  0.1338 -0.2471
 2721W        W18855   5.378  10.421   1.688  0.2222  0.0445 -0.1380
 2722W        W18856   6.096  10.687  12.775 -0.1030  0.1274  0.3407
 2723W        W18857   1.101   8.988   1.580 -0.2535  0.1220  0.2046
 2724W        W18858   2.785  16.164  13.463  0.2385 -0.3470  0.0591
 2725W        W18859   2.516   5.000  11.809 -0.1307  0.0041  0.0537
 2726W        W18860  11.410  12.817   1.336 -0.0720 -0.4515 -0.1682
 2727W        W18861   6.766   4.115   1.262 -0.0937 -0.1677  0.0227
 2728W        W18862   6.349  14.673  12.368  0.0044  0.0488  0.0764
 2729W        W18863   2.546   4.393  16.453  0.0700  0.3262  0.0383
 2730W        W18864  15.932  16.512  11.713 -0.1227  0.3110 -0.1492
 2731W        W18865  15.425   4.076   3.216  0.0529  0.0111 -0.1980
 2732W        W18866   6.109  11.224  16.334 -0.1263 -0.1664 -0.2159
 2733W        W18867   5.412   9.437   3.058 -0.0069  0.0838  0.1913
 2734W        W18868   0.681   5.704  15.037 -0.1463 -0.2985  0.0394
 2735W        W18869  12.373  16.834  13.492  0.3585 -0.1129 -0.2377
 2736W        W18870   2.239   0.473   4.236  0.2082  0.1692  0.3554
 2737W        W18871   4.872   6.338  14.273  0.1239 -0.0932 -0.0352
 2738W        W18872  10.394   8.740   2.640  0.2232 -0.2125  0.1067
 2739W        W18873  17.881  12.798  14.328  0.1548 -0.1052  0.0237
 2740W        W18874   7.811  14.360  11.324  0.2288  0.1784 -0.0062
 2741W        W18875  16.895   8.869  16.023  0.3021 -0.0436  0.1430
 2742W        W18876   5.601   0.107   5.162  0.0978 -0.0293  0.0352
 2743W        W18877   5.276  11.543   3.890 -0.2247 -0.0900  0.0588
 2744W        W18878   7.686   2.440   5.985 -0.0858 -0.2355  0.0864
 2745W        W18879  13.605  13.245   3.568  0.1529 -0.0214  0.1538
 2746W        W18880   1.085   8.042  15.258 -0.2858 -0.2639 -0.0035
 2747W        W18881  10.474  17.063  12.541  0.1635  0.1259  0.1077
 2748W        W18882   4.530   0.648  14.467  0.1604 -0.1004 -0.1455
 2749W        W18883   5.902  17.329  12.120  0.0843  0.1770 -0.0196
 2750W        W18884  15.061  17.294   5.139 -0.3734 -0.0139  0.0926
 2751W        W18885   9.146   0.832  11.792 -0.0134 -0.0489  0.2470
 2752W        W18886   2.848   1.738   1.326 -0.0769  0.1596 -0.1024
 2753W        W18887  17.149   7.324  15.310 -0.0489 -0.0147  0.1689
 2754W        W18888  11.157   5.079   1.533  0.4863  0.1019 -0.2025
 2755W        W18889  11.939  14.237  14.935 -0.1365 -0.3046 -0.0748
 2756W        W18890   2.632  15.130   6.273 -0.3016 -0.0822 -0.2738
 2757W        W18891  14.505   6.550  13.034 -0.0746  0.1614  0.3014
 2758W        W18892   1.163  12.702  13.110  0.0059  0.1208 -0.0738
 2759W        W18893  16.194   7.530   5.625 -0.0537 -0.1219 -0.0377
 2760W        W18894   3.671  14.730   5.259  0.0145  0.1383 -0.5115
 2761W        W18895   9.502   1.187  14.753 -0.1361  0.1517  0.1505
 2762W        W18896   2.919  11.354  11.151  0.4008 -0.2640  0.1189
 2763W        W18897  12.648   8.839   0.504  0.0231  0.0690  0.1806
 2764W        W18898   8.207  18.050  13.214 -0.2251 -0.0213 -0.0624
 2765W        W18899   4.788  14.446   4.387  0.2806 -0.1741  0.1813
 2766W        W18900   2.987   2.325  14.622  0.1789 -0.0680 -0.2547
 2767W        W18901  12.311   4.617  12.746  0.0584 -0.1351  0.1141
 2768W        W18902   2.717   7.316  13.885  0.2488 -0.1982 -0.0843
 2769W        W18903  17.824   1.450   2.000  0.2150 -0.0361 -0.0150
 2770W        W18904  17.012   2.371   0.385 -0.0563  0.0444 -0.1041
 2771W        W18905  11.874  10.256   0.552 -0.1690  0.1158 -0.2842
 2772W        W18906   2.959   0.255  10.663  0.0109 -0.1015  0.1552
 2773W        W18907  11.872  13.062  13.856 -0.0393  0.0980  0.1291
 2774W        W18908  15.848  11.397  13.386 -0.1932  0.2007 -0.0740
 2775W        W18909   8.008  17.016   0.956 -0.0243 -0.1721  0.0321
 2776W        W18910   8.086   1.276   4.396 -0.0583  0.1974 -0.4717
 2777W        W18911  12.973   9.181   2.812  0.0013  0.2067  0.2074
 2778W        W18912   6.046  16.761  14.306 -0.2020  0.0654 -0.0773
 2779W        W18913  10.348   2.375   4.216  0.3397 -0.0711  0.0042
 2780W        W18914   4.586   2.739  13.930  0.3884 -0.3040 -0.2492
 2781W        W18915   1.111  17.812  14.663 -0.0207 -0.0659  0.2327
 2782W        W18916   0.558   8.837   2.408 -0.0917  0.2116 -0.0063
 2783W        W18917   6.253   1.222  12.320  0.4592  0.0624 -0.1176
 2784W        W18918  14.194   6.466   1.183 -0.0968  0.0983  0.3606
 2785W        W18919  11.937   4.841  14.734  0.0818 -0.1778 -0.0261
 2786W        W18920  12.962   4.120  14.326 -0.1141  0.2169  0.2723
 2787W        W18921   8.441   2.447   4.028  0.2865 -0.2033  0.3191
 2788W        W18922  15.740   8.846  14.315  0.2167 -0.0607  0.2105
 2789W        W18923   8.990  16.913   2.737 -0.0914  0.0236  0.5393
 2790W        W18924   9.949  13.880   4.623  0.3828  0.1193 -0.2492
 2791W        W18925   3.545   5.565  15.150 -0.1082 -0.1532 -0.1841
 2792W        W18926  15.733   6.526  13.234 -0.2117  0.0233 -0.1086
 2793W        W18927   1.603   1.984  12.333 -0.2742  0.0890 -0.1316
 2794W        W18928  16.312  13.413  14.844 -0.1641 -0.0881  0.0238
 2795W        W18929  10.165  13.051   5.538 -0.3551 -0.0249 -0.0428
 2796W        W18930  15.567  13.896  14.177  0.1889  0.1855 -0.3695
 2797W        W18931   3.054   4.160  12.676 -0.0719 -0.1687 -0.1091
 2798W        W18932   3.060   0.349   4.074 -0.1036 -0.0110  0.1333
 2799W        W18933   6.825   6.702   1.130 -0.0048 -0.2465  0.1260
 2800W        W18934  10.960   0.582   2.466  0.0926  0.0384 -0.4738
 2801W        W18935   3.531   3.810  12.457  0.0931 -0.2206  0.1312
 2802W        W18936   8.119   9.985   1.092 -0.2092 -0.1466  0.0557
 2803W        W18937   6.927   1.324   5.212 -0.0153  0.0931 -0.1615
 2804W        W18938   7.664   1.043  15.694 -0.1072  0.3849  0.0349
 2805W        W18939  16.610   3.098  11.885  0.1207  0.0110  0.3973
 2806W        W18940   6.036  14.217  11.672  0.1030 -0.0666  0.0005
 2807W        W18941   0.304   1.352  16.487 -0.0697 -0.0381  0.2676
 2808W        W18942   2.318   6.862   4.794 -0.1022 -0.3352 -0.1771
 2809W        W18943   1.062   6.352   1.601 -0.2933  0.2008 -0.3323
 2810W        W18944  15.959  15.078   6.438  0.0982  0.2532 -0.0725
 2811W        W18945  15.589  10.104  16.195  0.1656 -0.2158 -0.3144
 2812W        W18946  11.111   2.591  16.293 -0.0371  0.0854 -0.1065
 2813W        W18947  13.572   9.634  12.075 -0.1177 -0.0940  0.2550
 2814W        W18948  16.851  14.995   4.717  0.1755  0.0839 -0.4702
 2815W        W18949   4.944   4.429   3.796  0.2421 -0.0024  0.4137
 2816W        W18950   5.068  16.353  13.234 -0.0872 -0.0078 -0.0594
 2817W        W18951   1.530  13.362  14.215 -0.3516 -0.0686  0.1621
 2818W        W18952  15.981   8.454   2.502 -0.1335  0.0114  0.1631
 2819W        W18953  14.673   3.829   5.073 -0.2574 -0.0583  0.1879
 2820W        W18954   5.971   4.875   5.599 -0.0728  0.0404 -0.0437
 2821W        W18955   2.257   1.930   0.046 -0.3019 -0.1043  0.0535
 2822W        W18956   6.952  16.515  15.468 -0.1817 -0.1034 -0.4428
 2823W        W18957   7.971  17.050   5.928 -0.1387 -0.1664 -0.1034
 2824W        W18958  15.179  15.784  15.253 -0.1442 -0.0249  0.1827
 2825W        W18959   7.634   2.897   5.722  0.3799  0.0118  0.0634
 2826W        W18960  11.013   6.267  15.664 -0.1621 -0.0257  0.0644
 2827W        W18961   3.438   7.013  14.240  0.0930  0.2942  0.3152
 2828W        W18962  14.076  13.817  13.880 -0.0897  0.0611  0.4847
 2829W        W18963  15.128   4.360   5.926 -0.0465 -0.2314 -0.0522
 2830W        W18964   3.400   6.767  15.975 -0.2894 -0.1347 -0.1019
 2831W        W18965  15.691  10.477  11.290 -0.2328 -0.3142  0.0126
 2832W        W18966  13.938   1.878   2.831 -0.1232 -0.1401  0.1053
 2833W        W18967  14.440   8.209  15.935  0.2961  0.1692  0.2731
 2834W        W18968  11.716   7.849   0.384  0.0461  0.0420  0.1752
 2835W        W18969  14.170   7.001  11.675 -0.1110 -0.0478 -0.1614
 2836W        W18970   3.177  10.969  14.674  0.0235 -0.0411 -0.0144
 2837W        W18971   4.597   6.811   1.394 -0.0971 -0.1178  0.1379
 2838W        W18972  17.493   7.358   2.132 -0.2024 -0.1084  0.0292
 2839W        W18973   4.243  13.241   1.271 -0.1130 -0.2999  0.3192
 2840W        W18974   4.118   8.707  15.014 -0.1827 -0.1605  0.1016
 2841W        W18975   5.807  17.037   1.933 -0.0431 -0.0990  0.0276
 2842W        W18976   3.928   3.815  14.930  0.2934 -0.1288 -0.3499
 2843W        W18977   7.257   4.574  15.382  0.0201  0.2166 -0.0130
 2844W        W18978   2.101   4.315   4.630  0.3934 -0.0831  0.2490
 2845W        W18979   7.795  15.565  13.754 -0.3296 -0.0753  0.4075
 2846W        W18980  13.174   7.751   4.231  0.2193 -0.1707 -0.1381
 2847W        W18981   1.352  17.081   2.400  0.1368  0.1160  0.4276
 2848W        W18982  13.445   9.314   2.537 -0.0386 -0.0423  0.0176
 2849W        W18983   8.155  11.239   4.503 -0.1371  0.2049 -0.2868
 2850W        W18984   5.100   2.789  15.658  0.4369 -0.0463  0.0980
 2851W        W18985  16.562   8.235   0.075  0.3562  0.2363  0.3344
 2852W        W18986  17.530  17.270   4.585 -0.2156 -0.0487  0.1336
 2853W        W18987   8.322   5.368   2.745 -0.0338 -0.1916  0.0083
 2854W        W18988   7.732  14.208   1.881  0.0301  0.1835 -0.1128
 2855W        W18989  16.483   2.468   4.273 -0.2617 -0.2739 -0.0320
 2856W        W18990  10.104   3.429  14.844 -0.0052  0.0185  0.0422
 2857W        W18991  12.022   4.067   5.563  0.0566 -0.0828 -0.2808
 2858W        W18992   4.225  17.330  14.478 -0.0419  0.3054  0.0677
 2859W        W18993   6.408  13.639   0.794 -0.0137 -0.1188 -0.0396
 2860W        W18994   0.317   5.411   2.435  0.1982 -0.0099 -0.1185
 2861W        W18995   1.448  15.406  15.670  0.0234  0.2396  0.1234
 2862W        W18996  11.320   7.983   3.192 -0.0144 -0.0777  0.0314
 2863W        W18997  16.861   9.908  14.521 -0.1213 -0.0311  0.0822
 2864W        W18998  10.035   1.840  14.122 -0.2393 -0.2060  0.0046
 2865W        W18999   2.649  15.900   2.186  0.0932 -0.0224 -0.2923
 2866W        W19000  10.048  12.180  12.717 -0.3156  0.5200  0.0640
 2867W        W19001  13.575  13.517  15.170 -0.2458 -0.0571  0.0356
 2868W        W19002   4.474   1.416   2.501  0.2595  0.0155 -0.0890
 2869W        W19003   3.924   9.303   0.666 -0.2182 -0.2070 -0.2102
 2870W        W19004  10.781  10.421   3.733 -0.1536  0.0665  0.1093
 2871W        W19005  15.039  17.094  14.091 -0.1092  0.2616  0.2121
 2872W        W19006  17.861  14.139   1.617 -0.1803  0.1654  0.3821
 2873W        W19007   3.998   0.754  14.602 -0.1019  0.1321 -0.2501
 2874W        W19008   0.068   4.599  15.801 -0.0317  0.1162  0.0866
 2875W        W19009   3.653   9.579   3.195  0.0750  0.2456  0.1398
 2876W        W19010  15.064   4.264  14.295  0.0912  0.0220 -0.2067
 2877W        W19011  14.145   8.722   4.653  0.1126 -0.1094 -0.1649
 2878W        W19012  10.426   1.391  14.986 -0.0310 -0.0898 -0.3349
 2879W        W19013  15.557   4.716   0.712  0.0308  0.1572  0.0284
 2880W        W19014   5.057   2.640  13.992 -0.0631  0.3520 -0.0050
 2881W        W19015   0.193  13.046  13.199 -0.1004 -0.0361  0.0215
 2882W        W19016  15.039  13.246   2.508 -0.2209 -0.2257  0.1522
 2883W        W19017   7.624  12.697  13.386  0.4539  0.0113 -0.0172
 2884W        W19018  12.109  13.129   3.384 -0.2670  0.3066 -0.0644
 2885W        W19019  16.233  14.747  15.604 -0.1076 -0.0496 -0.2313
 2886W        W19020   4.662  16.933  12.026 -0.0851 -0.0846 -0.0105
 2887W        W19021  18.161   0.946   5.761 -0.2434 -0.1067  0.2178
 2888W        W19022   6.490  16.548  16.267 -0.1794 -0.1365  0.2169
 2889W        W19023   9.663   0.058  11.740 -0.0296  0.3059  0.1823
 2890W        W19024   8.584   7.827   9.784  0.4007 -0.1873 -0.3099
 2891W        W19025   0.191  13.190  12.081 -0.0157 -0.1529 -0.0170
 2892W        W19026   6.530  11.786  16.229 -0.0148  0.1116  0.1453
 2893W        W19027   3.955   6.844  10.629  0.0250  0.0313  0.1005
 2894W        W19028  11.150   7.498   3.251  0.0153 -0.0424  0.2688
 2895W        W19029  12.943   8.744   3.027 -0.1834 -0.0228 -0.2042
 2896W        W19030  17.590  15.683   5.440 -0.2158  0.0029 -0.0369
 2897W        W19031  15.206  13.294  12.272 -0.1714  0.3538  0.0870
 2898W        W19032   9.700  13.192   1.523 -0.0025 -0.0484 -0.1387
 2899W        W19033   3.208   8.805  15.521 -0.0136 -0.2213  0.2365
 2900W        W19034  14.795   2.542  12.931 -0.1027 -0.1801 -0.1563
 2901W        W19035   2.763   2.668   5.446  0.1149 -0.0719 -0.1790
 2902W        W19036   4.639  16.336  12.824 -0.2056 -0.1159  0.0886
 2903W        W19037  15.463   4.210  15.604  0.2773  0.2633  0.1316
 2904W        W19038   9.670  14.784  12.304 -0.0399 -0.2198  0.1362
 2905W        W19039   7.482   2.186  13.367  0.1440  0.0327 -0.1255
 2906W        W19040   7.821   4.916   1.648  0.1818 -0.0708 -0.1036
 2907W        W19041  14.045   0.662  14.833 -0.1093  0.1664  0.2046
 2908W        W19042  16.160   8.752  13.380 -0.2272 -0.2743 -0.1731
 2909W        W19043   2.287  15.070   1.898  0.2898 -0.0078 -0.1969
 2910W        W19044  16.464   2.192   3.850  0.0459  0.0330 -0.4612
 2911W        W19045   3.724   9.832  16.512  0.0679 -0.0768  0.0699
 2912W        W19046  12.977   3.725  13.397  0.0092 -0.2957 -0.1544
 2913W        W19047   2.659   9.067   0.180  0.0461 -0.1402  0.1509
 2914W        W19048   2.757  15.446   5.000  0.1875 -0.0496 -0.3717
 2915W        W19049   7.763   9.687   1.040  0.0215 -0.0545 -0.0426
 2916W        W19050   0.550   9.709   1.242 -0.0335 -0.0035 -0.2072
 2917W        W19051  10.535  10.565   0.502  0.3484  0.1957  0.1056
 2918W        W19052  15.688   1.849   5.744 -0.0461  0.0305 -0.2350
 2919W        W19053   6.386  15.451   1.533  0.3083  0.1121  0.3065
 2920W        W19054   4.383   4.132   5.637 -0.1088  0.1263  0.0937
 2921W        W19055  17.891   6.099   2.182 -0.1597 -0.2058 -0.2722
 2922W        W19056  11.474   4.699   0.407  0.2134  0.0839  0.1106
 2923W        W19057   7.058   9.105   0.516 -0.2942 -0.1895 -0.0443
 2924W        W19058  10.467   8.234   2.786 -0.2826  0.1280  0.3425
 2925W        W19059  10.249   6.890  13.312  0.0150 -0.0511 -0.1320
 2926W        W19060  12.285   4.196  15.606  0.2610 -0.1515 -0.0805
 2927W        W19061   3.199   9.815   3.257  0.3374 -0.0610 -0.0578
 2928W        W19062  13.923  16.015  13.127 -0.1997  0.0164  0.0123
 2929W        W19063   4.895  17.256   4.756 -0.2137  0.2880  0.1134
 2930W        W19064  15.384   5.817  11.694  0.2474  0.0181  0.0091
 2931W        W19065   4.448   3.607  14.769  0.1896 -0.0242  0.0191
 2932W        W19066  13.443  15.147   0.431 -0.0381 -0.0616  0.1055
 2933W        W19067   5.375   8.484   3.494 -0.1354 -0.1936 -0.1724
 2934W        W19068  11.322   5.354   2.656  0.0629  0.2756  0.2387
 2935W        W19069   0.183  12.624  14.192 -0.0848 -0.0065 -0.1679
 2936W        W19070   9.981   8.886   2.412 -0.0033 -0.0689 -0.4758
 2937W        W19071   3.497  11.535   2.700 -0.1861 -0.0319  0.1177
 2938W        W19072  17.966  14.059   2.156 -0.3846 -0.0393 -0.0464
 2939W        W19073  10.789   7.646  14.611 -0.0532 -0.0693  0.0212
 2940W        W19074  15.261   4.890  16.360  0.1200 -0.0496  0.1529
 2941W        W19075  11.130  13.893  16.536 -0.2637 -0.0985  0.2740
 2942W        W19076   6.146  16.670   5.656  0.0763 -0.0489 -0.1074
 2943W        W19077   8.452  14.455   2.979  0.1812  0.0684  0.0154
 2944W        W19078  15.691   0.552   1.121  0.0229 -0.1095  0.2531
 2945W        W19079  17.148   7.355  13.905 -0.0661 -0.0283  0.2153
 2946W        W19080  10.438  18.042  15.767  0.0605  0.0709  0.1304
 2947W        W19081   1.428   7.671  16.296  0.2040 -0.0833 -0.1885
 2948W        W19082   5.106  16.905  13.149  0.0449  0.1478  0.1542
 2949W        W19083   3.830   3.570  11.436  0.3309  0.0136 -0.1288
 2950W        W19084   9.633  14.423   5.408  0.0338 -0.0089 -0.1247
 2951W        W19085   9.853  16.876   4.354  0.1441 -0.2113 -0.0002
 2952W        W19086   5.699  11.371   1.697 -0.3993 -0.0935 -0.4114
 2953W        W19087   3.356   1.144   0.412  0.1917 -0.1041  0.0407
 2954W        W19088  13.588   6.903   2.854 -0.1001 -0.1934  0.1357
 2955W        W19089   7.401   6.605  16.228  0.0050 -0.1234 -0.0115
 2956W        W19090  10.164   5.987  16.318 -0.0546  0.2351  0.0589
 2957W        W19091   3.520  17.430  12.797  0.1378  0.0845  0.1343
 2958W        W19092   2.373  10.384   3.322  0.0344 -0.3335 -0.1470
 2959W        W19093   6.317   5.740  16.224 -0.2578 -0.0261 -0.0415
 2960W        W19094   5.378  13.750  12.949 -0.1077  0.4309 -0.0412
 2961W        W19095   8.041  12.429  15.415  0.2010  0.1752 -0.2142
 2962W        W19096  12.744  16.830   5.396 -0.0268 -0.3107 -0.3462
 2963W        W19097  12.793  15.640   4.742  0.1307 -0.1554  0.3294
 2964W        W19098   7.026  15.197   4.946 -0.1019  0.0251  0.2107
 2965W        W19099  15.809  13.841   1.146 -0.1742 -0.2027 -0.1147
 2966W        W19100   1.950  18.081   2.765  0.1944  0.0773  0.2710
 2967W        W19101  14.958   7.638   4.817 -0.1397  0.0808  0.0293
 2968W        W19102  17.437  10.219   1.578  0.1982  0.1069  0.4650
 2969W        W19103  18.151   4.588   5.325  0.1762 -0.3016  0.2700
 2970W        W19104   5.460   9.199  12.862 -0.2683  0.2878 -0.0315
 2971W        W19105   6.438   4.053  15.858  0.3772  0.0849 -0.3406
 2972W        W19106  11.032   7.546   1.956  0.1960  0.4051  0.0535
 2973W        W19107   7.929   0.986   0.043 -0.2470 -0.2835 -0.1488
 2974W        W19108   4.784  17.493   0.376 -0.0377 -0.1964 -0.2884
 2975W        W19109   2.601   9.427  12.284  0.0190 -0.0960  0.0468
 2976W        W19110  16.355   1.065   6.195  0.0477 -0.0562 -0.1357
 2977W        W19111  13.234   9.534   4.737  0.2341 -0.1525 -0.0402
 2978W        W19112   2.383  16.762  11.798 -0.0484 -0.1545  0.4303
 2979W        W19113   3.532   1.429  14.027 -0.1536  0.1248  0.0439
 2980W        W19114   4.708   0.961  16.373  0.0236  0.0559  0.0454
 2981W        W19115   2.471  15.973  16.134 -0.0134 -0.1236  0.0798
 2982W        W19116   7.114  15.100   3.001 -0.1643 -0.0893 -0.1408
 2983W        W19117   4.244   0.188   6.313  0.0362 -0.1008  0.2670
 2984W        W19118  15.249  17.710  15.516 -0.0508 -0.1551 -0.1941
 2985W        W19119   4.800   7.236   1.685  0.1480 -0.1575  0.1573
 2986W        W19120  10.961  15.950  12.004  0.3618 -0.0054  0.2090
 2987W        W19121   6.009   1.610   4.749  0.2272 -0.2329  0.2721
 2988W        W19122  11.588  17.357  15.506  0.0747 -0.2508 -0.0264
 2989W        W19123  17.434  14.315   6.093  0.2052  0.0681  0.0571
 2990W        W19124  17.654  10.321  13.350 -0.0539  0.0077 -0.1361
 2991W        W19125   2.605   1.027  15.677 -0.2332 -0.1863 -0.2539
 2992W        W19126  14.029   1.934  12.004 -0.0741 -0.0050 -0.0407
 2993W        W19127   3.816  10.261   0.197 -0.3745 -0.1246 -0.0006
 2994W        W19128   0.607   8.395  15.249  0.1825 -0.2120 -0.0756
 2995W        W19129  10.383   4.264  15.441  0.3743 -0.0281 -0.0693
 2996W        W19130  15.281   6.410  12.264  0.0017  0.2378  0.1514
 2997W        W19131  17.686   1.198  14.689 -0.0434 -0.0426 -0.0580
 2998W        W19132  13.727   5.800   3.160  0.3135 -0.0965  0.1853
 2999W        W19133  14.852  11.292   3.167 -0.0796 -0.0056  0.2813
 3000W        W19134  14.211  14.694   3.717  0.5335 -0.2236  0.2337
 3001W        W19135  11.398  17.678   5.521  0.1072 -0.1915 -0.2515
 3002W        W19136  15.651   1.946   4.256 -0.2954  0.2550  0.0599
 3003W        W19137   8.400  11.270   1.042 -0.0354 -0.1625  0.2211
 3004W        W19138  14.473  14.519  13.327  0.0434 -0.3067  0.3282
 3005W        W19139   6.608  17.262  11.684  0.0909 -0.2319  0.1325
 3006W        W19140  16.886   7.370   4.881  0.0437 -0.0596 -0.1632
 3007W        W19141   9.204   7.907  11.001 -0.2211 -0.1294 -0.1333
 3008W        W19142   1.927   8.922   3.274 -0.1472  0.1219  0.0211
 3009W        W19143  11.874   9.297   5.388 -0.1003  0.0104  0.1820
 3010W        W19144   7.638  10.381  13.082  0.0218 -0.0855 -0.0941
 3011W        W19145  16.716  12.243   4.024  0.0469  0.1151  0.3966
 3012W        W19146  14.362  11.556   3.158  0.1229  0.2910 -0.1072
 3013W        W19147   9.491   8.109   4.586 -0.1764  0.1643  0.2021
 3014W        W19148   8.073   8.995   2.168 -0.1180  0.1040 -0.2687
 3015W        W19149   1.763   4.087  15.081 -0.1397 -0.1836  0.0814
 3016W        W19150  13.893   2.558   1.920  0.0772 -0.0467 -0.0783
 3017W        W19151   6.577   0.216  12.360 -0.1264 -0.1080 -0.1124
 3018W        W19152  10.649  15.092   2.766 -0.0447  0.1076 -0.0585
 3019W        W19153   7.496   9.079  14.615 -0.1691  0.0445 -0.2666
 3020W        W19154  11.490  12.304  13.187 -0.3694  0.0523 -0.0564
 3021W        W19155   2.927   1.446   0.490 -0.2762 -0.1608  0.1701
 3022W        W19156  16.849   7.687   4.080  0.3596 -0.3118 -0.1308
 3023W        W19157  15.284   1.802   3.933  0.0115 -0.1544  0.2812
 3024W        W19158  17.346   4.365  12.820 -0.0809  0.0697  0.3096
 3025W        W19159   2.750  14.682   5.581  0.2614 -0.2327 -0.3083
 3026W        W19160  10.014  12.872  14.736 -0.1892  0.1015  0.1622
 3027W        W19161  10.708  17.543   3.644  0.0025  0.1318 -0.1730
 3028W        W19162  17.673   3.261  15.680  0.1685 -0.0540 -0.2766
 3029W        W19163   1.819  14.217   2.093 -0.1446  0.0706  0.1882
 3030W        W19164  16.595   8.893  13.635 -0.1274 -0.2353 -0.1849
 3031W        W19165   1.369   5.070  11.969 -0.2178 -0.1633 -0.1260
 3032W        W19166   3.993   2.024   5.549 -0.0502 -0.3310  0.0104
 3033W        W19167   1.982   4.253   0.750  0.2862  0.1232  0.0572
 3034W        W19168  12.085  14.660   4.350  0.2806  0.1828 -0.3327
 3035W        W19169   1.293  17.698  12.931  0.2320  0.1951  0.3226
 3036W        W19170  10.132   1.062  11.989  0.0750  0.0289  0.1158
 3037W        W19171   2.172   3.926   5.555  0.0254  0.2358  0.2584
 3038W        W19172  17.965   6.294  15.660  0.1981 -0.2465 -0.0870
 3039W        W19173   6.291  11.092   1.881  0.2116  0.2270  0.0573
 3040W        W19174   0.980   5.876   1.725 -0.0811  0.4368 -0.1833
 3041W        W19175   8.052   6.365  13.027  0.2886 -0.1058  0.1448
 3042W        W19176  11.948   6.879   1.483 -0.2746 -0.0580 -0.0933
 3043W        W19177   5.271  13.148  11.100  0.2745 -0.0988  0.2585
 3044W        W19178  11.264  16.634  12.341  0.2483 -0.0369  0.1965
 3045W        W19179   0.546   1.813  13.915 -0.0461  0.1594 -0.2387
 3046W        W19180   0.304   3.665   4.028  0.1488 -0.1947  0.0649
 3047W        W19181   9.518  13.066   0.346  0.0967  0.1488  0.0289
 3048W        W19182   5.574   1.050   5.247 -0.0404 -0.0673  0.0475
 3049W        W19183  16.237   8.975   2.308 -0.0571  0.0122 -0.1479
 3050W        W19184  17.528   6.970  12.774  0.0721  0.2145 -0.0503
 3051W        W19185   3.709   3.884   2.411  0.1951 -0.0913 -0.0445
 3052W        W19186  17.750   6.076  14.776 -0.0214  0.0487 -0.0962
 3053W        W19187  17.219   1.927   3.731 -0.1203 -0.0908 -0.1151
 3054W        W19188  15.128   1.976  15.249 -0.3485 -0.3134 -0.0234
 3055W        W19189  10.892   5.741  13.948 -0.1204 -0.0086  0.1400
 3056W        W19190  12.153   4.552  15.197  0.2551 -0.1249 -0.4568
 3057W        W19191  14.471  16.736   4.545 -0.1418 -0.1667  0.0229
 3058W        W19192  11.317   4.163   4.524 -0.3673  0.0624  0.1474
 3059W        W19193  15.446   1.583   0.093  0.1541 -0.0923 -0.0901
 3060W        W19194  13.141   7.251  12.079 -0.1400 -0.1070 -0.0425
 3061W        W19195   9.184   3.167  13.883  0.0227  0.0700  0.3688
 3062W        W19196  11.701   9.569   3.770  0.0615  0.2222  0.0634
 3063W        W19197   2.771   9.296   3.454 -0.0471 -0.0182 -0.0742
 3064W        W19198  15.360  16.016   0.243 -0.1698 -0.2206  0.1129
 3065W        W19199  13.428   5.474   0.704 -0.1544 -0.2985 -0.3702
 3066W        W19200   3.632   4.409  13.669  0.0809 -0.2526  0.1682
 3067W        W19201  15.315  17.924   3.781  0.4314 -0.1752 -0.1989
 3068W        W19202   1.323   5.279   2.402  0.3131  0.0557 -0.1215
 3069W        W19203  16.738  13.352   6.417 -0.2891 -0.1978  0.2077
 3070W        W19204  15.917  17.898   2.419  0.1751  0.1969  0.1211
 3071W        W19205  10.138  17.755  12.398  0.0900 -0.4530 -0.0616
 3072W        W19206  10.158   7.745   0.239 -0.3839  0.1124  0.0963
 3073W        W19207   5.010   2.508   5.510 -0.0551  0.1849  0.1412
 3074W        W19208   9.859  13.437  14.014 -0.3160 -0.1823  0.0339
 3075W        W19209   7.217   8.313   2.314 -0.1271 -0.0951  0.0477
 3076W        W19210   5.495   0.225  16.125 -0.0853 -0.0187 -0.1844
 3077W        W19211  15.076   4.273  15.243  0.1429 -0.1927 -0.4046
 3078W        W19212  12.583   2.329   2.952 -0.2230  0.1113  0.0334
 3079W        W19213  17.450   2.698   6.242  0.1120 -0.2136  0.1378
 3080W        W19214  17.100  17.282   0.461  0.2026  0.2147 -0.2705
 3081W        W19215   7.589   0.528  15.591 -0.0983 -0.3117 -0.0871
 3082W        W19216   6.067   5.117  15.619  0.0409  0.2048  0.0263
 3083W        W19217  15.275   7.895   2.050  0.3434  0.0748 -0.2311
 3084W        W19218   0.420  12.965  16.048 -0.1105  0.0902  0.1351
 3085W        W19219   3.430   3.932   2.840  0.0080  0.1360 -0.0583
 3086W        W19220   4.753   4.514   1.612 -0.3777  0.0527  0.1753
 3087W        W19221  10.724  12.959   4.917  0.0560  0.0512 -0.0711
 3088W        W19222   5.230   3.823  11.075  0.3162  0.1005  0.1074
 3089W        W19223   0.931   8.135  11.735  0.3553 -0.1629 -0.1541
 3090W        W19224  17.247  12.746  15.667 -0.4560  0.1192 -0.0659
 3091W        W19225   1.174  17.320  14.732  0.2759  0.0383  0.0498
 3092W        W19226  10.121  15.600   5.204  0.2045  0.2508 -0.3496
 3093W        W19227  14.316   7.192  11.191 -0.0083  0.0705  0.0613
 3094W        W19228   3.605  16.639  12.222  0.0642  0.1593 -0.1550
 3095W        W19229   8.170   8.830   3.982 -0.1622 -0.0677  0.2841
 3096W        W19230   9.779  13.921  15.256 -0.3183 -0.0240  0.0895
 3097W        W19231  16.801   8.684   0.712  0.1782  0.3386  0.0078
 3098W        W19232   8.874  11.918  16.502 -0.0077 -0.1610  0.1218
 3099W        W19233   4.409   2.130  12.618  0.1385  0.0028 -0.1380
 3100W        W19234  13.215   3.857   5.148 -0.1748  0.0372  0.1884
 3101W        W19235   3.821  14.838  13.081 -0.2499  0.0807 -0.0660
 3102W        W19236   7.280  15.324  14.454  0.2119  0.0344  0.3060
 3103W        W19237   0.869  11.904   0.031 -0.2386 -0.0082 -0.1136
 3104W        W19238  11.332   2.325   0.712 -0.0534  0.1285 -0.0696
 3105W        W19239   9.963  17.077  12.674  0.0791 -0.0167  0.0362
 3106W        W19240  12.194  13.337  14.112 -0.3924 -0.0741  0.1847
 3107W        W19241   9.195   8.303  13.915  0.0574  0.1261  0.0404
 3108W        W19242   5.180   7.986  15.645  0.0467 -0.2402  0.1877
 3109W        W19243  14.684  15.890  13.666  0.1087 -0.0973  0.2785
 3110W        W19244   9.974   0.703   2.040  0.1708  0.0204  0.0106
 3111W        W19245   5.453   8.991   0.273  0.0194 -0.3692  0.1165
 3112W        W19246  16.468   4.831   2.662  0.1646  0.1037 -0.3591
 3113W        W19247   0.543   8.530   4.407  0.2519 -0.1480 -0.1495
 3114W        W19248  12.958   3.117  15.413 -0.0335  0.1208  0.1253
 3115W        W19249   9.043  11.384  15.084  0.1377 -0.1595  0.1867
 3116W        W19250  14.049  17.323  12.590 -0.3393 -0.0500 -0.0389
 3117W        W19251  12.026  10.555   1.909 -0.4390  0.0982  0.0150
 3118W        W19252  12.032   3.305   0.893 -0.1945  0.1411  0.1840
 3119W        W19253  16.074  11.727  12.465 -0.2255  0.4930 -0.0100
 3120W        W19254  16.017   7.844   1.420 -0.3672  0.0497  0.0719
 3121W        W19255   6.560   8.380   1.513 -0.0628  0.0910 -0.2804
 3122W        W19256   9.482  14.425  14.248 -0.2498 -0.1674  0.2352
 3123W        W19257   7.302  11.860  15.000 -0.0557  0.0099  0.1879
 3124W        W19258   1.783  15.272  16.046 -0.2991  0.0915  0.1697
 3125W        W19259  11.198  11.510  13.657  0.0348  0.0698  0.1417
 3126W        W19260  10.011   8.491   2.156  0.0811  0.1650  0.2855
 3127W        W19261  11.239   0.195   0.341  0.0668 -0.1625 -0.0751
 3128W        W19262  17.082  12.528   5.289 -0.0035 -0.3312 -0.5231
 3129W        W19263   9.102  13.041  11.099 -0.0938 -0.0732  0.2058
 3130W        W19264   4.700   5.409  12.703 -0.1648 -0.1589  0.0663
 3131W        W19265   0.937   4.097  14.189 -0.0862 -0.2738  0.0063
 3132W        W19266   9.555  10.159   5.245 -0.3404 -0.0338  0.2792
 3133W        W19267   4.079   2.503   5.727 -0.0951  0.1851 -0.0651
 3134W        W19268   9.188   6.794  11.036  0.0164 -0.0927  0.1038
 3135W        W19269   8.467  17.020  13.238  0.2870 -0.1131  0.1773
 3136W        W19270  12.760   8.848  10.760 -0.7017 -0.0021 -0.2250
 3137W        W19271   4.441   1.026  12.091 -0.0476 -0.1945 -0.1180
 3138W        W19272   2.883   3.954   3.224 -0.1355  0.1204  0.1309
 3139W        W19273   2.097   6.752  15.605  0.1274 -0.0312  0.2487
 3140W        W19274  12.446  13.320   4.580 -0.3056 -0.0807  0.2202
 3141W        W19275  12.482   2.055   3.362 -0.5437 -0.1911 -0.0125
 3142W        W19276   6.877   8.715   2.393  0.0184  0.0434  0.1360
 3143W        W19277   4.313   4.299  14.180 -0.0906 -0.1225  0.3542
 3144W        W19278   9.019   0.662   0.806  0.1251  0.2613 -0.2393
 3145W        W19279   7.426  15.364   2.671 -0.1626 -0.0207 -0.1231
 3146W        W19280  14.362   6.169   4.069  0.1386 -0.0121 -0.1984
 3147W        W19281  13.775  12.252   6.286  0.0749  0.0799 -0.0631
 3148W        W19282  17.874  18.071   6.362 -0.0567  0.0897  0.1707
 3149W        W19283  16.127   3.207  11.995  0.0780 -0.1413 -0.0260
 3150W        W19284   0.364   3.308  11.239 -0.1124  0.1398 -0.4473
 3151W        W19285   4.681   0.840  15.848  0.1197 -0.1546 -0.0450
 3152W        W19286   0.290   3.943  14.904  0.2564  0.0025  0.1014
 3153W        W19287   6.294  16.477  13.463  0.0607  0.0077 -0.1217
 3154W        W19288   0.478  13.466   2.423 -0.0734 -0.0756  0.0257
 3155W        W19289  14.557  10.043  15.218  0.2009  0.0266  0.1804
 3156W        W19290  12.758   4.499   2.503 -0.1830  0.0706 -0.1533
 3157W        W19291  12.076  16.736  15.694 -0.2207 -0.0528  0.1551
 3158W        W19292   6.369  16.343   3.015  0.1279 -0.2092  0.1276
 3159W        W19293   7.663   9.596  10.842 -0.0510 -0.0815 -0.1167
 3160W        W19294  10.544  11.124  11.790  0.1849  0.0676  0.0660
 3161W        W19295   0.383  13.847  14.295  0.0402 -0.1219  0.1518
 3162W        W19296   2.904  14.538  13.203  0.1993  0.2121 -0.3505
 3163W        W19297  17.482   9.706  16.183 -0.1258 -0.0698  0.1785
 3164W        W19298   0.587  10.978   2.283 -0.1348 -0.0950  0.2736
 3165W        W19299   8.433  10.658   0.385 -0.1619  0.2318 -0.2104
 3166W        W19300   8.164   8.916  11.831 -0.1710 -0.2884  0.0085
 3167W        W19301  16.765  15.430  14.870 -0.2026 -0.1931 -0.1028
 3168W        W19302  13.569  17.690  16.262 -0.1832 -0.3157 -0.0616
 3169W        W19303  12.763  17.322   1.556  0.1161  0.1012  0.1922
 3170W        W19304  16.971  15.439  15.851  0.1274  0.1882 -0.1856
 3171W        W19305  17.231   3.087  15.379  0.0463 -0.0912  0.0747
 3172W        W19306  13.575  16.193  13.544  0.2588 -0.0939  0.0022
 3173W        W19307   2.926   8.867   3.206  0.1237  0.2144 -0.0367
 3174W        W19308   3.312  13.350   0.747  0.1128 -0.0296  0.0790
 3175W        W19309   7.639  17.225  14.747 -0.0424 -0.2054  0.2380
 3176W        W19310   3.669   4.691  13.101  0.4905  0.1331  0.1215
 3177W        W19311   5.024   3.865   5.360 -0.0896  0.4208 -0.2816
 3178W        W19312   9.150   2.700  11.575  0.0413 -0.0213 -0.0989
 3179W        W19313  12.313  16.562   0.949  0.0751  0.1787  0.0363
 3180W        W19314   8.907  15.083  14.802 -0.1986 -0.0392 -0.3647
 3181W        W19315  14.979  13.652   1.784 -0.1571  0.0609 -0.0853
 3182W        W19316  12.437  14.666   3.482 -0.0938 -0.3853 -0.2304
 3183W        W19317   4.266  15.594   5.652  0.1009 -0.1054 -0.2378
 3184W        W19318   9.655   7.293   1.371 -0.0144  0.0987 -0.0174
 3185W        W19319  12.920   5.658  12.780  0.5063  0.3236  0.0067
 3186W        W19320  15.972   3.829  15.761 -0.0461 -0.0557  0.3574
 3187W        W19321   4.576   8.936   4.648 -0.2124  0.2399  0.0297
 3188W        W19322   1.863   0.993   5.428  0.0306  0.1941  0.0155
 3189W        W19323   7.740  12.767  11.121 -0.2806  0.1170 -0.0698
 3190W        W19324   1.161  14.529  13.224 -0.1673  0.1456 -0.0123
 3191W        W19325   9.414  17.756  15.096  0.3109  0.1407  0.0876
 3192W        W19326   5.510  16.263  13.576  0.3132  0.1387  0.2721
 3193W        W19327   0.938   0.470  10.514  0.2719 -0.2884  0.0854
 3194W        W19328   7.008   3.419  12.023  0.1680  0.0645  0.2284
 3195W        W19329  13.050   6.697  11.116  0.2050 -0.1475 -0.0794
 3196W        W19330   0.452  17.932  13.352  0.2042 -0.1092  0.0513
 3197W        W19331  13.251   2.655   4.241  0.0518 -0.0944  0.2188
 3198W        W19332  15.378  16.450   2.189  0.0540  0.3890 -0.0576
 3199W        W19333  15.439  12.657   3.927 -0.0993 -0.0474 -0.0376
 3200W        W19334  15.962   9.383  16.258  0.1653  0.0068 -0.3263
 3201W        W19335   9.219   2.238  13.326 -0.1805 -0.1997  0.0480
 3202W        W19336  17.153   0.460   0.553 -0.2042  0.4239  0.0125
 3203W        W19337   2.853  15.583   1.851 -0.1669  0.0124 -0.0274
 3204W        W19338   3.402  12.407  16.352  0.2094  0.1015  0.2475
 3205W        W19339   5.319  17.510   4.904 -0.1168  0.2597 -0.1088
 3206W        W19340   8.786   6.729  11.514 -0.1744 -0.2554 -0.0476
 3207W        W19341   6.352  18.131  15.934 -0.0155  0.1255 -0.1321
 3208W        W19342  14.097  17.607   5.468  0.1259  0.0909  0.2540
 3209W        W19343  10.989  17.877  12.485 -0.2505  0.2015 -0.1944
 3210W        W19344   5.555   6.027  10.997 -0.2306  0.0772 -0.1626
 3211W        W19345   4.426   5.503  11.311  0.2228  0.0621  0.1216
 3212W        W19346  12.385   2.802  11.568 -0.5197 -0.2079 -0.2373
 3213W        W19347  10.186   7.038   0.737  0.5094  0.1566  0.1276
 3214W        W19348   2.624   6.367   2.134 -0.3419  0.0717 -0.0156
 3215W        W19349  11.461  11.520  11.348 -0.1359  0.2354  0.0543
 3216W        W19350  16.190  15.664   6.991  0.1120 -0.1429  0.1254
 3217W        W19351   9.036  15.181  14.363  0.1433  0.0777 -0.1138
 3218W        W19352  10.339  16.915  13.522  0.2263  0.1594 -0.0923
 3219W        W19353  15.876  14.065  15.100 -0.0757  0.0811  0.1655
 3220W        W19354  13.666  18.007  14.735 -0.1461  0.3892  0.1086
 3221W        W19355   6.753  11.904   0.136 -0.1422  0.0079  0.1736
 3222W        W19356   2.857  12.328   5.365  0.0452 -0.0854  0.2098
 3223W        W19357  13.431  10.420   1.804  0.2338 -0.1158 -0.0304
 3224W        W19358   1.229   2.992  14.162 -0.0650 -0.2004 -0.0287
 3225W        W19359   6.091   8.483   1.371 -0.0696  0.1322 -0.1014
 3226W        W19360   9.167   4.291  13.883 -0.0828  0.1439 -0.0401
 3227W        W19361   0.225   5.560  15.843 -0.2124 -0.0819  0.1327
 3228W        W19362  11.939  16.319  11.851 -0.2756  0.4663  0.1191
 3229W        W19363  14.261  17.251  11.993  0.0200 -0.3846  0.3054
 3230W        W19364  15.516   2.837  15.082 -0.0369  0.5105  0.1142
 3231W        W19365   1.315  14.065  14.203  0.4119  0.1776 -0.1172
 3232W        W19366  17.246   2.687  14.482 -0.0734  0.1766 -0.1851
 3233W        W19367  13.235   1.802   5.967  0.1573 -0.0906  0.1840
 3234W        W19368   5.026   5.083   0.715  0.3493 -0.3604  0.0374
 3235W        W19369  12.767   7.696   2.880  0.0504 -0.1339  0.0285
 3236W        W19370  10.757  16.925  14.989  0.0244  0.0414  0.3207
 3237W        W19371  11.240   7.653   2.740 -0.0149  0.0221 -0.2324
 3238W        W19372   4.704  10.134  14.331 -0.2196 -0.1030  0.1832
 3239W        W19373   8.356   3.695  13.959 -0.0611 -0.0425  0.0843
 3240W        W19374   3.695   0.963  14.964 -0.2780  0.0768  0.2055
 3241W        W19375  15.842   5.354  14.446  0.1273  0.1870 -0.4010
 3242W        W19376   6.062   0.596  12.588  0.0676 -0.1047  0.1533
 3243W        W19377  12.774   0.689  12.508 -0.1199  0.0664 -0.0378
 3244W        W19378  14.818   1.926   1.902  0.0524  0.0481 -0.2640
 3245W        W19379   6.953  15.024  12.624  0.0327  0.1517 -0.0347
 3246W        W19380   5.015  15.475  13.120 -0.1469  0.1897 -0.1959
 3247W        W19381   7.721  13.063  14.682  0.3266 -0.1737 -0.1489
 3248W        W19382   5.891  15.651  12.145  0.0027 -0.1821  0.1043
 3249W        W19383  16.342   1.326  14.690  0.1380  0.0337 -0.0257
 3250W        W19384  15.495   8.925  14.801 -0.1408 -0.1410  0.0146
 3251W        W19385   9.507   8.871   0.725 -0.3552  0.1959 -0.0382
 3252W        W19386   4.388  18.139   5.820  0.0315 -0.0760 -0.2160
 3253W        W19387   4.205   2.910   4.532  0.2528  0.1316 -0.1200
 3254W        W19388   4.701   2.176  16.027 -0.4468  0.0603 -0.1376
 3255W        W19389   7.079   7.845   2.965 -0.2144 -0.2303  0.1295
 3256W        W19390   7.642   5.441   0.089 -0.4696 -0.0794  0.1347
 3257W        W19391  11.304  11.032   4.875 -0.0339 -0.0727 -0.2969
 3258W        W19392   0.817   8.282   1.022  0.0195  0.0136 -0.1217
 3259W        W19393   4.259   6.395   0.710  0.0108 -0.1579  0.1312
 3260W        W19394  13.518  18.085   3.692 -0.0312  0.4132 -0.0735
 3261W        W19395   9.236   8.864  10.826 -0.2376  0.0876 -0.0367
 3262W        W19396  17.918   1.142  15.537  0.1732  0.0642 -0.1022
 3263W        W19397   1.466   9.149   4.639  0.1835 -0.0053 -0.1723
 3264W        W19398  17.822  17.867  11.802  0.2205 -0.0959  0.1318
 3265W        W19399  14.839  15.187   4.743  0.2376  0.2343  0.1678
 3266W        W19400  16.034  14.445   5.732 -0.1831  0.1585 -0.0127
 3267W        W19401  11.524  14.286   0.523  0.1694 -0.0390  0.1698
 3268W        W19402  17.610   8.368   1.156 -0.1821  0.0350  0.0934
 3269W        W19403   7.110   2.693  16.449  0.1751 -0.0837 -0.0886
 3270W        W19404   3.279  12.019  13.620  0.0301  0.0477  0.0526
 3271W        W19405   2.320   3.470  12.182  0.1404 -0.0716  0.1629
 3272W        W19406   9.570   7.783   3.246  0.0715  0.0021 -0.3197
 3273W        W19407   6.173   2.473  11.504 -0.1102  0.1921  0.0105
 3274W        W19408   8.032   2.868   1.851 -0.0983 -0.1669  0.2802
 3275W        W19409  10.260   6.551  12.322 -0.1291  0.1404  0.5424
 3276W        W19410  15.957   3.419  12.735  0.1766 -0.1281  0.0756
 3277W        W19411   9.560   8.041  11.760 -0.0745 -0.1516  0.0361
 3278W        W19412   2.734   7.280  14.405  0.1371  0.0346  0.2738
 3279W        W19413   9.193   9.816   5.376  0.0783  0.0164  0.0156
 3280W        W19414  15.775  13.429   4.197  0.1802 -0.1534 -0.1065
 3281W        W19415  13.886   8.727   2.464  0.2833  0.0132  0.0630
 3282W        W19416   9.735   7.896   2.130 -0.1724  0.1558 -0.1050
 3283W        W19417   8.171  13.201  10.721  0.1722  0.2975 -0.0747
 3284W        W19418  18.167   9.138  15.102  0.0272  0.2301  0.1921
 3285W        W19419   0.526  11.931   4.633 -0.0187 -0.0010 -0.0259
 3286W        W19420  17.025   7.988  10.050  0.1237 -0.2453 -0.1701
 3287W        W19421  17.937  16.887  12.472 -0.1711 -0.1283  0.0905
 3288W        W19422   1.039   6.876  14.861  0.1974 -0.0522  0.0655
 3289W        W19423  15.020  16.335   4.980  0.3342  0.2937  0.0379
 3290W        W19424  17.998   1.524  16.357  0.0857  0.0081 -0.0278
 3291W        W19425  10.080  12.689   3.873 -0.1376 -0.0491  0.0060
 3292W        W19426  12.123  16.849   2.175 -0.1182  0.1989 -0.0785
 3293W        W19427  16.607  16.781   6.107  0.2616  0.1162 -0.1977
 3294W        W19428  16.195   0.337   4.336 -0.1286 -0.0994  0.1731
 3295W        W19429   6.005  14.330  11.167 -0.1066  0.1208 -0.0619
 3296W        W19430   6.084   6.736   2.860 -0.0039 -0.3497  0.2001
 3297W        W19431  13.460   6.456  11.576  0.2463 -0.0491  0.2168
 3298W        W19432   0.130   8.027   1.572  0.0057  0.3543  0.1786
 3299W        W19433  10.606   1.121   2.971  0.1886 -0.1528  0.5127
 3300W        W19434   6.384  10.084   4.205  0.1163 -0.0003 -0.0111
 3301W        W19435   8.929  11.495   2.506 -0.2405  0.0512  0.0659
 3302W        W19436   9.993  16.017  11.951  0.1111  0.0088 -0.3379
 3303W        W19437  17.664  11.684  15.115  0.1708 -0.0501 -0.1579
 3304W        W19438  12.890  15.400   3.480 -0.0513 -0.0073 -0.3808
 3305W        W19439   3.405  17.491   5.171  0.0088 -0.0244 -0.1582
 3306W        W19440   8.771  13.265  13.647  0.4201 -0.4221 -0.2490
 3307W        W19441   6.366   9.796  12.503 -0.1467  0.2574 -0.0496
 3308W        W19442  11.459   3.509   6.203 -0.0653 -0.1065 -0.1037
 3309W        W19443   7.959  16.298  15.350  0.1544 -0.0723  0.0475
 3310W        W19444   6.919   9.915  11.414  0.0233  0.0101 -0.2279
 3311W        W19445   1.677  10.440   0.789 -0.0262  0.0881  0.0829
 3312W        W19446   2.942   4.261   2.798 -0.2996  0.1802  0.3195
 3313W        W19447   7.332   4.982  11.417 -0.1277  0.0611  0.2875
 3314W        W19448   8.457  14.355  13.979  0.5457  0.2001  0.1735
 3315W        W19449   7.800   3.560   0.523  0.1992  0.1384 -0.2505
 3316W        W19450  17.107   4.503  15.650 -0.1527  0.1329 -0.0407
 3317W        W19451   2.563   2.834   0.744 -0.2627 -0.1803  0.3102
 3318W        W19452   3.043   0.106   5.021 -0.1572  0.1913  0.0344
 3319W        W19453  17.921  12.679   0.363 -0.3509 -0.2139 -0.1259
 3320W        W19454   0.710   0.453  14.546 -0.2378  0.3656  0.1353
 3321W        W19455   4.669  16.417   6.235  0.3120 -0.4223 -0.0345
 3322W        W19456  13.789   3.406  13.736  0.2360 -0.1191  0.0762
 3323W        W19457   7.709   0.007   0.181 -0.1228 -0.0323  0.0606
 3324W        W19458   1.980  17.934  12.851 -0.0239 -0.1636  0.1024
 3325W        W19459   5.280   4.499   1.593  0.0424  0.1573  0.1919
 3326W        W19460   6.594   7.267  11.709  0.2763  0.0397 -0.2296
 3327W        W19461  17.349   4.154   2.684  0.3809 -0.0868 -0.2412
 3328W        W19462   6.259  17.008  12.046  0.0706  0.1634  0.0599
 3329W        W19463  15.167   5.690   5.325  0.2634 -0.1646 -0.1557
 3330W        W19464  12.827   4.345  14.734  0.0178 -0.0666  0.3945
 3331W        W19465   7.916   9.151  14.327 -0.0974  0.2240  0.2338
 3332W        W19466  14.642   5.165  15.740 -0.0748 -0.0237  0.0908
 3333W        W19467  12.004   6.967  14.877 -0.2426  0.0467 -0.0088
 3334W        W19468  11.157   3.546   2.288  0.2379  0.1301 -0.0898
 3335W        W19469   1.436   4.213  12.713 -0.1685  0.2268  0.1613
 3336W        W19470  16.232   4.431   1.880  0.1475  0.2209 -0.0135
 3337W        W19471  14.288   2.836  14.709 -0.0163  0.1574 -0.3507
 3338W        W19472  13.809   9.479  15.508  0.1004 -0.2937  0.4126
 3339W        W19473   6.678  14.593   1.748 -0.1515  0.0065 -0.0187
 3340W        W19474   3.703  13.196  12.215  0.1789  0.2627 -0.1630
 3341W        W19475  16.242  13.936  14.765  0.2536  0.2286  0.0478
 3342W        W19476  15.190  15.633  15.782 -0.2773 -0.1012  0.1178
 3343W        W19477   2.329   9.177   1.192 -0.0688 -0.2651 -0.1596
 3344W        W19478   5.831  16.289  14.354  0.2824 -0.3994 -0.0128
 3345W        W19479  15.655   8.795  15.704 -0.1417  0.2613  0.2230
 3346W        W19480  11.475   3.741   4.171 -0.1511 -0.1809  0.3597
 3347W        W19481   9.697   2.599   0.980 -0.3372  0.4825 -0.0975
 3348W        W19482   4.041  13.017  11.368 -0.0555  0.3535  0.1514
 3349W        W19483  13.472  14.782  11.852  0.1788  0.0336  0.0233
 3350W        W19484  10.870   4.713  13.913  0.0364  0.2447  0.0120
 3351W        W19485   5.219  12.378   5.182 -0.0061 -0.0260  0.1290
 3352W        W19486   8.283  11.884  15.053 -0.0050 -0.1396  0.1132
 3353W        W19487   4.668  17.100   1.287  0.2082  0.2904  0.0062
 3354W        W19488   5.867   9.164   1.837  0.0060 -0.1475 -0.1301
 3355W        W19489   3.998   4.277  15.829 -0.1686  0.0302 -0.3480
 3356W        W19490  16.111   0.792  11.831  0.0350  0.0016 -0.2368
 3357W        W19491   2.426  15.450  16.256  0.0555 -0.1242  0.0740
 3358W        W19492   6.392  17.345   4.215 -0.0042  0.1505  0.1982
 3359W        W19493   9.549  16.461   6.040 -0.2501 -0.2725 -0.1129
 3360W        W19494  17.944   8.361  15.632  0.1407 -0.1828 -0.1186
 3361W        W19495  13.282  15.230  15.763  0.1208  0.1661 -0.1821
 3362W        W19496   7.541  17.100   1.050  0.1926 -0.0731  0.6243
 3363W        W19497   1.630  16.597   4.641 -0.2142 -0.2246  0.2984
 3364W        W19498   8.775  17.269  12.892  0.3958  0.0365  0.1665
 3365W        W19499   6.850   9.498  12.866  0.0229 -0.2741 -0.2439
 3366W        W19500   1.857   6.918  16.174 -0.1332  0.2370  0.0080
 3367W        W19501  11.413   5.606  11.973  0.1904 -0.1736  0.2057
 3368W        W19502   8.068   9.618   2.942  0.1046 -0.1283 -0.0202
 3369W        W19503   1.184   9.240  12.369 -0.1606  0.1838  0.0143
 3370W        W19504  16.602   3.559   5.203  0.2650 -0.1483 -0.4041
 3371W        W19505  11.390  14.742  15.775 -0.0793  0.2174  0.2735
 3372W        W19506  17.602   0.860  15.103 -0.2595  0.2284 -0.1154
 3373W        W19507   9.950  12.948  16.463 -0.0279  0.0097 -0.1514
 3374W        W19508   5.169   9.472  14.967  0.0960 -0.0884 -0.4813
 3375W        W19509  10.521  11.499  12.268  0.1209 -0.0482 -0.3919
 3376W        W19510  16.658  15.820  12.099  0.1465  0.0460  0.2213
 3377W        W19511  15.154  17.732   1.321 -0.2352 -0.4455 -0.0488
 3378W        W19512   4.763   6.567   2.332 -0.0160  0.2965 -0.0294
 3379W        W19513  13.487   2.347   4.552 -0.3389 -0.0061 -0.0895
 3380W        W19514  16.657   4.372  15.471 -0.1689 -0.2023  0.1396
 3381W        W19515   1.211   8.309  11.362 -0.0201  0.0588 -0.0596
 3382W        W19516   9.562  13.426   3.463 -0.0348 -0.0681 -0.1701
 3383W        W19517   7.054   8.190  15.771 -0.4243 -0.2431 -0.0939
 3384W        W19518   2.643   6.308   3.151  0.1096  0.2454 -0.1177
 3385W        W19519  13.799   7.025   3.637  0.3478 -0.1073 -0.3667
 3386W        W19520   9.843   5.065  15.564  0.1904 -0.3302 -0.2213
 3387W        W19521   9.306   6.048   2.208  0.0907 -0.0391 -0.0122
 3388W        W19522   4.053   9.812   5.376  0.1789  0.1522 -0.2018
 3389W        W19523   5.139   4.925  11.963  0.1133 -0.1081  0.1185
 3390W        W19524   0.878   8.612   1.966  0.0298 -0.0540 -0.1482
 3391W        W19525  17.011   7.835   3.186 -0.0134 -0.0500  0.2020
 3392W        W19526   5.727  12.262   4.387  0.0129 -0.1266  0.2387
 3393W        W19527   2.152  13.400   2.184 -0.0528 -0.0021 -0.3756
 3394W        W19528  16.760  15.267  13.522 -0.1527  0.0387  0.0419
 3395W        W19529  14.788  13.392  13.881  0.3290  0.1584 -0.0973
 3396W        W19530  11.697   9.433  12.292  0.1585 -0.1234  0.0762
 3397W        W19531  14.887  10.597  10.858  0.1286  0.1591 -0.2976
 3398W        W19532   3.569  13.877   2.793 -0.0852  0.2251 -0.0555
 3399W        W19533   5.171  14.081  15.284 -0.1669 -0.0331 -0.0015
 3400W        W19534   7.527   0.296  16.264  0.0289 -0.0019 -0.0720
 3401W        W19535   8.321   9.734  15.542  0.0179  0.0930 -0.1989
 3402W        W19536   9.646  17.101   0.716 -0.2341 -0.0055 -0.1635
 3403W        W19537   6.736   1.794   5.408 -0.1685  0.2357 -0.4995
 3404W        W19538   3.009   2.616   5.885 -0.2332 -0.0792 -0.1948
 3405W        W19539  15.508  16.577   4.285 -0.2086  0.3054  0.2733
 3406W        W19540   9.556  12.674   4.125  0.1111 -0.1606  0.0601
 3407W        W19541   2.076   7.760   2.861  0.0716 -0.1257 -0.0128
 3408W        W19542   3.360   4.023   6.024  0.0264  0.1829  0.0639
 3409W        W19543  17.887  12.443  11.778  0.3668  0.0329  0.2559
 3410W        W19544   8.458   6.956   1.250 -0.4708  0.0611  0.3326
 3411W        W19545  12.509  12.449   1.689  0.1982 -0.2377  0.2993
 3412W        W19546  13.448   3.405  16.204 -0.0394  0.0018  0.0357
 3413W        W19547   3.408  16.300   3.432  0.0520  0.2302 -0.1741
 3414W        W19548  12.048   1.647   5.804  0.2994 -0.0948 -0.1636
 3415W        W19549   7.042  11.761   3.645  0.0050 -0.0245  0.0662
 3416W        W19550  13.315   2.178  10.614 -0.1115  0.0635 -0.0568
 3417W        W19551  16.839  12.545  15.112  0.3200  0.1179 -0.2446
 3418W        W19552   6.166  12.457  11.814 -0.1026  0.0265 -0.1718
 3419W        W19553  16.874   2.388  16.196 -0.2521  0.0770  0.1111
 3420W        W19554  16.647   8.548  12.171 -0.0183  0.0303  0.5938
 3421W        W19555   8.636  16.515   1.357 -0.0112  0.0439  0.0081
 3422W        W19556  12.018   7.030  15.791  0.5731 -0.2346  0.1186
 3423W        W19557   4.709  12.215  15.946 -0.3701  0.0184  0.0785
 3424W        W19558  10.217   2.024  16.316  0.0136 -0.1074 -0.0033
 3425W        W19559   7.888  14.840  16.323 -0.2455 -0.0872  0.0040
 3426W        W19560  15.360   3.245  11.950  0.2506  0.1722 -0.0294
 3427W        W19561  12.993   4.868  13.332 -0.0801  0.1540 -0.2038
 3428W        W19562   4.138   5.204  14.099 -0.0936  0.1896  0.3630
 3429W        W19563   8.783   5.733   0.963  0.2845  0.0152  0.1162
 3430W        W19564   0.534  11.256  13.591 -0.2409 -0.2393 -0.1095
 3431W        W19565   7.207   0.970   4.335 -0.0054 -0.1208  0.2795
 3432W        W19566  11.698  10.060   3.578  0.1599  0.1279  0.0438
 3433W        W19567   9.317  14.900   0.765  0.0555  0.1805  0.0691
 3434W        W19568  15.772  16.234  15.236  0.2692  0.0462  0.3954
 3435W        W19569  12.199   7.663  11.021 -0.0812 -0.1328  0.1756
 3436W        W19570  12.358   8.142   1.133  0.0808 -0.0605  0.0456
 3437W        W19571  16.169  10.113  15.490 -0.3624 -0.2607  0.2439
 3438W        W19572   8.852   1.625   1.332 -0.2763  0.2255  0.1035
 3439W        W19573   9.425   7.010  10.658  0.2800  0.1699 -0.0626
 3440W        W19574   8.965   3.552  14.184 -0.0420  0.1162 -0.2223
 3441W        W19575  17.864  13.274  13.934  0.0198 -0.3392 -0.1094
 3442W        W19576  16.629   6.871  10.473  0.2130 -0.0190  0.1535
 3443W        W19577  13.707   2.323  14.298  0.1457 -0.1767 -0.0342
 3444W        W19578  13.482  11.231  15.268 -0.0011  0.1863  0.0168
 3445W        W19579  12.270  13.859  16.059 -0.1121 -0.1096  0.0374
 3446W        W19580  10.453  10.182  12.213 -0.0200 -0.1067  0.1540
 3447W        W19581  18.052  15.442  11.631  0.0031 -0.0712 -0.1644
 3448W        W19582  11.730   2.902  12.832 -0.1578  0.2988 -0.1605
 3449W        W19583   3.135   0.416   2.279  0.0395 -0.1270  0.2341
 3450W        W19584   0.254  16.767   0.355 -0.1795  0.2481 -0.0874
 3451W        W19585   5.114   4.553  16.282  0.0635 -0.0922 -0.1828
 3452W        W19586   0.921   6.396  14.861  0.0173  0.1720  0.0865
 3453W        W19587   6.932   4.988   1.365  0.0969 -0.1850 -0.2864
 3454W        W19588   7.955   5.181   4.304  0.1889  0.0961 -0.2136
 3455W        W19589   4.267  17.909   2.973 -0.2393 -0.1985 -0.0416
 3456W        W19590  12.475   5.747  16.173  0.0486 -0.0370 -0.0126
 3457W        W19591  11.935  17.970   6.501  0.0294  0.2419  0.0631
 3458W        W19592   2.435   5.372  11.404 -0.1984 -0.1436  0.0410
 3459W        W19593  11.699  14.357   5.059  0.2423  0.1259  0.0319
 3460W        W19594   6.713  10.487  14.243 -0.1692  0.3506  0.2234
 3461W        W19595   2.776  11.658  13.484  0.1580  0.0553 -0.0023
 3462W        W19596   9.910   2.915   2.649  0.0511 -0.0644  0.0558
 3463W        W19597   9.229   2.259   4.411  0.1936  0.1649  0.0460
 3464W        W19598   7.120  15.324  12.222 -0.2417  0.0743 -0.0309
 3465W        W19599  15.960   5.458   4.610 -0.0724 -0.1563  0.0702
 3466W        W19600  12.485  11.922   0.139  0.1260  0.2404  0.1275
 3467W        W19601  10.294   8.388   0.616  0.2807 -0.2616  0.1580
 3468W        W19602   1.845  11.600   2.653  0.0837 -0.0533 -0.0032
 3469W        W19603  15.770   5.682   2.216 -0.1080 -0.0015 -0.1226
 3470W        W19604  17.343   8.701   3.987  0.0243  0.1672 -0.2964
 3471W        W19605  10.389   7.966   4.797  0.0922 -0.1200 -0.3330
 3472W        W19606   0.780  13.910   3.131 -0.0358  0.0700 -0.2688
 3473W        W19607   4.158  12.314  12.609  0.0132 -0.0278  0.1234
 3474W        W19608   4.833   5.608  16.510  0.2880  0.0302  0.1118
 3475W        W19609  14.616   9.582   0.322  0.2502  0.1047 -0.0231
 3476W        W19610   0.125  12.507  13.432  0.1559 -0.2597 -0.0076
 3477W        W19611   5.136   9.968  15.176  0.0620 -0.3422 -0.0291
 3478W        W19612  15.263  14.992  16.403 -0.1092 -0.2384  0.0306
 3479W        W19613  15.625  15.162   1.334  0.3124  0.0529  0.0513
 3480W        W19614  13.509  14.639   5.248  0.0071 -0.0692 -0.0690
 3481W        W19615   2.917   9.486   2.986 -0.2430 -0.2248  0.0073
 3482W        W19616  17.751  17.381  12.327  0.0426  0.3222  0.3064
 3483W        W19617   4.226   0.533  12.300 -0.2449  0.2577  0.0122
 3484W        W19618   0.375   9.936  13.602  0.1385  0.2390 -0.1740
 3485W        W19619   9.891  16.404   0.047 -0.0644  0.1217 -0.2487
 3486W        W19620  16.292  11.717   1.356  0.0184 -0.3049 -0.0487
 3487W        W19621   1.231  14.219   4.639  0.1436  0.0335  0.0294
 3488W        W19622   2.276  13.494   4.454 -0.1312 -0.1477 -0.0520
 3489W        W19623  14.827   4.677  14.147 -0.1179  0.0455 -0.0153
 3490W        W19624  16.880   2.979  13.079  0.2427  0.1913 -0.1728
 3491W        W19625  16.498  10.497  14.279 -0.2491 -0.1050 -0.0184
 3492W        W19626  13.663   8.945   3.875  0.1707  0.4101 -0.1969
 3493W        W19627  11.012  16.485   5.029  0.1191 -0.0143 -0.3565
 3494W        W19628  16.328  13.805   5.366 -0.1847 -0.0490 -0.0797
 3495W        W19629   1.136   6.528  10.118  0.0618  0.1204  0.0818
 3496W        W19630  15.247  14.085  12.641  0.1871 -0.0737 -0.0420
 3497W        W19631   2.425  17.110   0.315  0.0108 -0.3943  0.3198
 3498W        W19632   7.395   3.417   1.673  0.1497 -0.2214 -0.0211
 3499W        W19633  12.972  13.492   0.641 -0.1714  0.0221 -0.1196
 3500W        W19634  10.803   0.572  14.710  0.0338  0.2484 -0.0651
 3501W        W19635   8.877   2.713   0.346 -0.1583 -0.2919 -0.4744
 3502W        W19636   4.437  14.471  16.534 -0.2098  0.0902 -0.0846
 3503W        W19637  11.377   0.533   6.235 -0.2047 -0.0778  0.2706
 3504W        W19638  11.567  17.629   2.505  0.0134  0.2512 -0.0384
 3505W        W19639  11.367  14.998  11.634 -0.0336 -0.0497 -0.2967
 3506W        W19640  15.242  15.515   4.651  0.1218  0.1185 -0.2229
 3507W        W19641  17.201   1.326   0.353 -0.0213  0.0633  0.4190
 3508W        W19642  14.257  12.873  12.679  0.1244  0.0827 -0.1279
 3509W        W19643   3.347   3.424   3.740  0.4009  0.0926 -0.2924
 3510W        W19644   6.600  14.908  13.921  0.0526 -0.0255 -0.0277
 3511W        W19645  11.104  10.157   4.326 -0.0363  0.2095  0.1475
 3512W        W19646  17.457  16.322  15.627  0.2000  0.0892  0.0214
 3513W        W19647  14.076  10.302  13.566 -0.0431  0.2247  0.0078
 3514W        W19648   5.040  15.122  16.384 -0.1299 -0.0425  0.0810
 3515W        W19649   3.896  14.685  13.561  0.0441 -0.2624 -0.7255
 3516W        W19650   9.344   6.884  12.403  0.1169  0.0298  0.0343
 3517W        W19651   7.903   9.786   2.427 -0.1606 -0.1625 -0.2078
 3518W        W19652  12.677  13.105   4.189  0.2053  0.3599  0.0692
 3519W        W19653   7.337   2.578   3.877 -0.4837  0.4027  0.0606
 3520W        W19654   4.736  16.542   1.113  0.0204 -0.0673 -0.2087
 3521W        W19655  17.500  16.049  12.328  0.1002  0.1706 -0.0178
 3522W        W19656   1.093   8.674  15.090 -0.1993 -0.1769  0.2290
 3523W        W19657   3.537   8.316  15.647  0.1573  0.1435 -0.4099
 3524W        W19658   0.551   6.143   1.719 -0.2517  0.2580 -0.3390
 3525W        W19659  16.436   9.229  14.996  0.1591  0.0045 -0.2277
 3526W        W19660  11.618  11.221  13.784 -0.0548 -0.2013 -0.3606
 3527W        W19661   0.130   4.514  14.067 -0.0171 -0.2248  0.1442
 3528W        W19662  16.673  14.903   6.743  0.0883  0.0375  0.2574
 3529W        W19663   2.668   3.565   2.365  0.1320  0.1441 -0.0998
 3530W        W19664  15.079   0.725  14.841  0.0386  0.0653  0.0849
 3531W        W19665  16.943   4.973   0.074  0.0236 -0.0095 -0.1891
 3532W        W19666  16.359  10.945   0.675 -0.0698  0.0929  0.3785
 3533W        W19667  15.691  11.864  14.991 -0.0285  0.0701 -0.0754
 3534W        W19668   2.658  10.117  14.787 -0.0589  0.1119 -0.4835
 3535W        W19669  11.136  16.669   3.170 -0.1983 -0.2369  0.3847
 3536W        W19670  10.442   7.816  11.174 -0.1647 -0.2690  0.0146
 3537W        W19671  14.806   5.245   2.056 -0.4472  0.0798  0.0574
 3538W        W19672   9.726   5.130  14.551  0.1108  0.0119 -0.2381
 3539W        W19673   0.303   4.929  14.218  0.0596 -0.0204 -0.2823
 3540W        W19674  13.707   5.687  15.177  0.2757 -0.1536  0.0360
 3541W        W19675   7.763   3.267   2.773  0.0881  0.0331 -0.0341
 3542W        W19676  15.241  15.322  13.935 -0.2157  0.0576  0.1692
 3543W        W19677  14.221  13.391  11.292  0.0051  0.1052  0.4461
 3544W        W19678   5.289  14.863   2.548 -0.3081  0.1025  0.2136
 3545W        W19679   5.132  17.588  14.730  0.0883 -0.1403 -0.0955
 3546W        W19680   8.837  14.217   3.615 -0.0042  0.1928 -0.0835
 3547W        W19681   4.480   8.171   5.375 -0.0526  0.0838 -0.0389
 3548W        W19682  17.104   3.880  12.849 -0.0898 -0.4850 -0.1496
 3549W        W19683   0.772  13.509   5.915 -0.1550 -0.3362  0.0164
 3550W        W19684   7.210   4.100   1.528  0.0323  0.2919 -0.1053
 3551W        W19685   1.903   5.374  13.240  0.0604  0.1325 -0.0024
 3552W        W19686  12.581  13.740   4.831  0.1957 -0.0394 -0.1649
 3553W        W19687  15.630  18.033  12.542 -0.3414  0.0809 -0.1320
 3554W        W19688   4.603  16.740  15.620 -0.0998  0.4609 -0.0382
 3555W        W19689  11.744   1.380  12.155 -0.1848  0.0979 -0.0569
 3556W        W19690  14.925   7.056  11.767  0.0714  0.2097  0.1364
 3557W        W19691  13.654  14.174   5.536 -0.2114  0.1848 -0.1937
 3558W        W19692  18.122   4.060   3.155 -0.1292 -0.0367  0.1101
 3559W        W19693   8.492   2.668   3.327  0.0874 -0.0577 -0.1751
 3560W        W19694  11.622  12.333  14.790  0.1138  0.1598  0.4965
 3561W        W19695   0.094   4.070   2.077 -0.2054 -0.0977 -0.1329
 3562W        W19696   2.017  14.898  15.770  0.1100  0.2040  0.0180
 3563W        W19697  13.744  16.509  12.960  0.0723  0.4809  0.0695
 3564W        W19698  11.512   2.812   3.327  0.0425  0.2300  0.0314
 3565W        W19699  17.799   8.999  13.507 -0.0449 -0.1228  0.0845
 3566W        W19700   0.916   3.275  15.475  0.1738 -0.1625  0.0023
 3567W        W19701  14.507   5.628   2.239  0.3279  0.2897  0.1383
 3568W        W19702   7.034  10.126   2.056  0.1865 -0.1261  0.0275
 3569W        W19703   0.984  11.627  12.234  0.1460  0.1050  0.4019
 3570W        W19704   3.434  17.685   1.894  0.2489  0.1575 -0.0755
 3571W        W19705   8.605  14.122   1.881  0.2699  0.1121  0.1206
 3572W        W19706  10.794   3.243   1.834  0.1419  0.0100 -0.2766
 3573W        W19707  12.576   0.466  12.882  0.0819 -0.0426 -0.2912
 3574W        W19708  17.133   4.347  12.065 -0.2807  0.0780  0.0747
 3575W        W19709   3.702   2.844   5.048 -0.0315  0.2636  0.3843
 3576W        W19710   6.930  14.862  16.162  0.0456 -0.0914 -0.0660
 3577W        W19711  14.997   9.985  13.785 -0.3726 -0.0666  0.5674
 3578W        W19712   8.546   5.766   4.953  0.0345 -0.0825 -0.1101
 3579W        W19713   4.200   1.975  14.224  0.0172 -0.2037 -0.3337
 3580W        W19714  16.345   6.725  16.229 -0.0286  0.0079  0.2336
 3581W        W19715  13.657   3.152   5.627 -0.0508  0.0899  0.2093
 3582W        W19716  12.368   0.065   5.316  0.0723  0.1705  0.0868
 3583W        W19717  13.322  17.971   1.893 -0.3505  0.2217 -0.0634
 3584W        W19718   2.562   0.377  15.910 -0.0545  0.0806  0.0777
 3585W        W19719   3.709  12.244  13.743  0.0433  0.1205 -0.0333
 3586W        W19720  12.815  17.488  11.867  0.0091  0.1323  0.0316
 3587W        W19721  11.341   9.934   3.153  0.1076  0.0112 -0.0828
 3588W        W19722  17.712   2.346  14.674  0.1117 -0.1025  0.0167
 3589W        W19723  15.834   0.927   1.413 -0.3988  0.0546 -0.0929
 3590W        W19724  10.568  15.154   1.760  0.0470  0.1493 -0.0963
 3591W        W19725   5.349   9.711  11.662 -0.2670 -0.0131 -0.3395
 3592W        W19726  18.130  15.185   4.217 -0.1032  0.2586 -0.1651
 3593W        W19727   8.124   3.958   0.756  0.0958 -0.1683 -0.1810
 3594W        W19728   3.095  16.634   5.128  0.2142  0.0690 -0.2444
 3595W        W19729  14.948   0.266   1.914  0.1635 -0.0007 -0.0109
 3596W        W19730  12.674   1.234  11.271 -0.1887  0.1916  0.2641
 3597W        W19731   9.768  17.488  14.144  0.1114 -0.0380 -0.0830
 3598W        W19732  12.359  11.183  15.725  0.1257  0.0684  0.0461
 3599W        W19733   8.570   1.777   3.797  0.0833  0.0055 -0.0299
 3600W        W19734   0.908  10.216   5.783 -0.1653  0.0213 -0.0372
 3601W        W19735  11.676  16.688  14.416 -0.2607  0.1567 -0.1010
 3602W        W19736  14.177  11.811  14.172 -0.1430  0.1786  0.0452
 3603W        W19737   2.293   3.188   0.557 -0.1587 -0.1618  0.1579
 3604W        W19738  12.384  14.079  12.921 -0.0839 -0.3627  0.1717
 3605W        W19739   5.451   6.064   2.273 -0.0651 -0.1100 -0.1089
 3606W        W19740   5.874   6.562  11.650 -0.0598 -0.0403  0.0596
 3607W        W19741   1.066   3.314  15.941  0.0967 -0.1331  0.1507
 3608W        W19742  17.896   9.819  13.139 -0.0212 -0.1235 -0.1327
 3609W        W19743   4.298  14.056   0.289 -0.3198 -0.2336  0.1411
 3610W        W19744  15.596  15.666  14.119  0.1286 -0.0698 -0.2667
 3611W        W19745  10.475  14.748   0.789 -0.0476 -0.0978 -0.0471
 3612W        W19746   2.033   6.726  11.304 -0.1321  0.1163 -0.1341
 3613W        W19747  15.884  12.900  13.042  0.1683  0.0623 -0.1178
 3614W        W19748  12.137  16.942   1.658  0.1218  0.0897  0.0514
 3615W        W19749   6.464  14.142  13.575  0.1790 -0.1650  0.0119
 3616W        W19750   8.148  13.823   5.922  0.3230 -0.2577 -0.2197
 3617W        W19751  12.291  12.651   3.409  0.1112  0.0270 -0.3678
 3618W        W19752  16.369   8.391   1.456 -0.0510  0.1697  0.0568
 3619W        W19753  15.479   1.455   1.989 -0.0926  0.0578  0.3126
 3620W        W19754  13.664   5.505   2.732 -0.1345 -0.0483  0.0357
 3621W        W19755   9.281  12.287   2.278  0.0650  0.2421  0.0040
 3622W        W19756   2.319   2.560   2.904  0.1479  0.1330  0.0278
 3623W        W19757  16.682   2.349  10.580 -0.1807  0.1165 -0.4903
 3624W        W19758  14.046  16.334   1.371 -0.1187  0.1669 -0.4200
 3625W        W19759   7.305   4.179  13.534  0.1847  0.0133  0.2095
 3626W        W19760  16.000  10.904   3.315  0.3170 -0.0746 -0.2018
 3627W        W19761   2.463   0.954  12.128 -0.0715  0.0622  0.2458
 3628W        W19762  16.262   1.958   1.749  0.1069 -0.0888 -0.1267
 3629W        W19763  11.180   2.862  13.531  0.1815 -0.0750 -0.1444
 3630W        W19764   0.617  13.324  13.461  0.1025 -0.0482  0.0090
 3631W        W19765   4.414  14.905   4.127 -0.0462  0.3613 -0.1502
 3632W        W19766  12.144  11.554  16.498  0.0572 -0.1940  0.1631
 3633W        W19767  11.776   5.045   0.215 -0.3294  0.2142  0.2293
 3634W        W19768  14.188  11.663   4.905  0.1549  0.3213  0.0561
 3635W        W19769   6.419   9.150  10.131  0.0096  0.0321  0.0528
 3636W        W19770  17.160  15.034   2.602  0.2907  0.1485 -0.1321
 3637W        W19771   7.633   7.916  15.661  0.0299 -0.4611  0.0064
 3638W        W19772   7.254  18.139   0.789  0.0446  0.0891 -0.1919
 3639W        W19773  10.077  14.170  14.284  0.2007  0.1644  0.0009
 3640W        W19774   4.532  16.208  16.210 -0.1340  0.1358 -0.2865
 3641W        W19775   0.498   9.418  11.921 -0.3441 -0.2273 -0.1796
 3642W        W19776   1.697  15.918  12.822  0.0485 -0.0787  0.0702
 3643W        W19777  15.121  15.348   1.344  0.0848  0.2171 -0.0965
 3644W        W19778  16.490   5.176  15.792  0.1342 -0.2201  0.1269
 3645W        W19779  17.902  11.287  15.294  0.0654 -0.0018 -0.4593
 3646W        W19780  10.920  15.659  15.922  0.1064  0.0954  0.0709
 3647W        W19781   3.677   4.330  14.749  0.0015 -0.0177  0.1279
 3648W        W19782   9.025   4.538  15.472  0.1484  0.2329  0.2751
 3649W        W19783   6.102  13.452   5.306 -0.1098  0.3513  0.0270
 3650W        W19784   6.399   4.987  15.202  0.5210  0.0797  0.1103
 3651W        W19785  12.507   8.244   2.687  0.0932 -0.0289 -0.2075
 3652W        W19786  11.003  14.573  12.980 -0.2620 -0.0299  0.0793
 3653W        W19787   8.830   6.704   0.996  0.2648  0.1455  0.1187
 3654W        W19788  16.008   9.377   5.272 -0.2293 -0.2577  0.1187
 3655W        W19789   5.547  14.822   3.512 -0.0971  0.1383  0.0297
 3656W        W19790   1.027   7.564  15.933 -0.1787 -0.1805 -0.1984
 3657W        W19791  12.287   8.452  13.882 -0.0720  0.3893 -0.1809
 3658W        W19792  16.151   3.018  15.233 -0.3228 -0.2606 -0.0629
 3659W        W19793   8.068   4.846  13.013 -0.1309  0.3539 -0.1889
 3660W        W19794   9.560   6.270   0.233 -0.0214  0.0630 -0.0969
 3661W        W19795  14.517  15.372   1.340 -0.3989 -0.2211  0.2372
 3662W        W19796   1.692  13.289  13.345 -0.2233 -0.2023  0.2243
 3663W        W19797  11.057   4.038   4.044 -0.0078 -0.1501  0.0828
 3664W        W19798   0.682   6.061   0.729  0.2976  0.1413 -0.0226
 3665W        W19799   6.661  12.092   2.702 -0.2292  0.0244  0.1239
 3666W        W19800   3.786  13.496   0.746  0.0010  0.1273 -0.0611
 3667W        W19801   6.518  14.708  15.296 -0.1284 -0.1938  0.1188
 3668W        W19802   5.473  14.103  13.947 -0.0700 -0.0195  0.1380
 3669W        W19803  10.447  16.056  13.057  0.3031 -0.0714  0.0597
 3670W        W19804   9.736  13.555   4.358  0.3980 -0.0650  0.1248
 3671W        W19805  17.188   2.489  13.088 -0.1120 -0.1803 -0.0263
 3672W        W19806   9.823  12.554   0.369  0.0942  0.0879  0.1131
 3673W        W19807   3.557   7.053  12.501  0.1216 -0.0612 -0.0513
 3674W        W19808  13.772   6.048   0.008 -0.1214 -0.0416  0.4357
 3675W        W19809   0.853   7.462   1.471 -0.0577 -0.1593 -0.0309
 3676W        W19810   6.172   0.538   0.918  0.1386  0.0696  0.1287
 3677W        W19811  18.055   7.686  11.875 -0.0099  0.2663 -0.1207
 3678W        W19812   6.185  17.898   3.374  0.1025 -0.0060  0.0779
 3679W        W19813  16.962  17.600   2.310 -0.1134  0.1223  0.1490
 3680W        W19814   6.866   7.868   1.541  0.0867  0.0339 -0.0404
 3681W        W19815  13.016   2.270   0.731 -0.3420  0.1371 -0.2021
 3682W        W19816   5.969  16.131   4.452  0.1563  0.2291 -0.2950
 3683W        W19817   2.857   8.801   0.920  0.1315 -0.2380 -0.0359
 3684W        W19818  11.859  16.825  12.086  0.1332  0.5933  0.1243
 3685W        W19819   1.792  16.364   1.912  0.1908 -0.1100  0.0636
 3686W        W19820   9.871   5.214  16.064  0.1319  0.2423 -0.0783
 3687W        W19821   9.132  15.729  13.665  0.3753  0.2864  0.1273
 3688W        W19822  12.007   3.600  12.438  0.1967 -0.0081  0.0620
 3689W        W19823   1.045  16.840   3.763 -0.1794 -0.0555 -0.1268
 3690W        W19824   3.577  14.269   4.232  0.4607 -0.0213  0.2735
 3691W        W19825  15.018   2.133  13.194 -0.0813  0.0288 -0.2178
 3692W        W19826   7.736  16.273  14.093 -0.0316 -0.1455 -0.0740
 3693W        W19827   5.856   4.617  14.004 -0.0974  0.0001 -0.0526
 3694W        W19828   1.018  16.009   1.205  0.0275  0.3076 -0.0409
 3695W        W19829   2.388   1.488   1.353 -0.1995  0.2221 -0.0789
 3696W        W19830   4.942  12.757  16.047  0.1783 -0.2061 -0.1697
 3697W        W19831   6.010  15.535  14.626  0.1489  0.2058 -0.0287
 3698W        W19832   2.530   4.208   5.833 -0.0621 -0.0380  0.1197
 3699W        W19833   0.978   5.626   2.752 -0.3241  0.1953 -0.0953
 3700W        W19834  10.446  11.431   3.319 -0.0546 -0.2066 -0.0586
 3701W        W19835  17.071  16.206   1.730 -0.1751  0.0936 -0.1512
 3702W        W19836   3.488  17.876   1.395 -0.1044  0.0652 -0.0511
 3703W        W19837   0.035   3.777  12.420  0.1154  0.0086 -0.1416
 3704W        W19838  15.573   8.396  11.478  0.1006  0.2096  0.0295
 3705W        W19839  11.776  12.022   4.005 -0.0327 -0.2072 -0.0898
 3706W        W19840  11.130  16.172   1.156  0.1406 -0.1579  0.0093
 3707W        W19841  17.909  10.045   1.830 -0.2079 -0.1232 -0.0106
 3708W        W19842   5.547   4.012  16.274 -0.0585  0.2914 -0.0329
 3709W        W19843  17.319   1.781   4.201 -0.2528 -0.4062  0.3178
 3710W        W19844  11.944   8.505   1.949  0.3441 -0.2624  0.0689
 3711W        W19845  12.181   5.428  15.313 -0.1391 -0.1494 -0.2941
 3712W        W19846  10.608  17.178   6.470  0.0534 -0.0126 -0.2764
 3713W        W19847   4.908   5.776  15.692 -0.0640  0.1344  0.1614
 3714W        W19848  16.815   5.086  13.431  0.3073  0.0770 -0.0550
 3715W        W19849   5.761  17.042  13.002 -0.0418  0.0567 -0.0021
 3716W        W19850   0.393  15.404   4.068  0.0107  0.1490 -0.0798
 3717W        W19851   2.333   3.020  12.511  0.0342  0.2868 -0.0454
 3718W        W19852   4.768   9.205  15.496 -0.2307  0.1496 -0.1857
 3719W        W19853  14.418  12.514   4.734  0.4987 -0.1964  0.2867
 3720W        W19854  16.360   7.016   2.125 -0.0998  0.0591  0.1599
 3721W        W19855  12.448  16.328   2.776  0.0057  0.0885 -0.1326
 3722W        W19856  11.925  16.992   4.169 -0.2915 -0.0308 -0.0699
 3723W        W19857  13.247  17.004   2.528 -0.1158  0.1590 -0.0963
 3724W        W19858   9.011   5.530  11.909 -0.4042 -0.1557 -0.2941
 3725W        W19859  10.571   0.780   0.259 -0.0476 -0.2398  0.2806
 3726W        W19860  12.619   6.577   3.717  0.3286 -0.1490 -0.0400
 3727W        W19861  16.067  14.443  14.113  0.1288  0.2051  0.0335
 3728W        W19862   5.332  15.637   2.160  0.0357  0.1739  0.0428
 3729W        W19863  13.445  15.388   0.902 -0.0128 -0.0551  0.1601
 3730W        W19864  15.794   4.262   0.840 -0.1996  0.1236  0.3023
 3731W        W19865   5.438  11.789   1.709  0.0223 -0.1027  0.2806
 3732W        W19866  15.913   0.104  13.234  0.3303 -0.1589 -0.1054
 3733W        W19867  14.064   7.558   4.100  0.0081  0.0160 -0.1902
 3734W        W19868  15.481  18.025  13.493  0.1296  0.1862  0.2756
 3735W        W19869   7.488   4.470  13.883 -0.0956 -0.2739 -0.2116
 3736W        W19870   9.188  16.242  12.095  0.0006 -0.0620 -0.1064
 3737W        W19871   0.862  15.546   3.181  0.1632 -0.1750  0.2355
 3738W        W19872   9.234   6.941   1.975 -0.3267  0.3239  0.1494
 3739W        W19873  17.980   3.939   0.745 -0.1812 -0.1745 -0.2239
 3740W        W19874   1.723  12.068   0.278  0.3229  0.2029 -0.1122
 3741W        W19875   2.678   4.224  11.725 -0.1407  0.1658  0.2079
 3742W        W19876  15.101   0.556  16.031  0.2480  0.1663  0.0360
 3743W        W19877  15.798   9.063   4.859 -0.0387  0.3288 -0.0121
 3744W        W19878   3.290   1.673  15.246 -0.0331  0.1496  0.0409
 3745W        W19879  11.910  10.994  15.754 -0.0724 -0.1584  0.0427
 3746W        W19880  12.838   9.671   4.410 -0.2346 -0.3606  0.2465
 3747W        W19881  17.070  16.336   4.112 -0.0444  0.0796  0.0491
 3748W        W19882  17.526  11.695  13.077 -0.0814 -0.2966 -0.2204
 3749W        W19883  16.783   5.411  14.189  0.1626  0.0113  0.3233
 3750W        W19884  18.035   0.973  12.018 -0.1045 -0.2435  0.0530
 3751W        W19885   6.095  12.851   3.354 -0.1861 -0.3678  0.1673
 3752W        W19886   2.956  12.324   0.824  0.4744 -0.0338 -0.0296
 3753W        W19887  11.148   9.416  14.756  0.0163  0.0762  0.1973
 3754W        W19888  17.068   7.013   0.514  0.3354 -0.0443  0.0267
 3755W        W19889   1.378  17.463   4.513  0.0317  0.0435  0.0242
 3756W        W19890   3.048  15.913   1.523 -0.2056 -0.1021  0.0745
 3757W        W19891  15.389   7.082   2.857 -0.0345  0.1796  0.0255
 3758W        W19892  12.390   0.299   3.037 -0.0969 -0.1643 -0.0046
 3759W        W19893   9.938   7.977  12.601  0.1968 -0.1460 -0.0194
 3760W        W19894  16.039  12.549  13.778 -0.0165  0.0772  0.3800
 3761W        W19895  11.264   7.472  13.442  0.1944 -0.3467  0.1604
 3762W        W19896   3.214   3.614   1.048 -0.2565 -0.2099 -0.2659
 3763W        W19897  10.147  15.765   8.340 -0.2002  0.1588 -0.2648
 3764W        W19898   5.994   2.053  14.887  0.0819  0.3373  0.1398
 3765W        W19899  14.447  10.225  12.177 -0.2742  0.3072  0.2471
 3766W        W19900   2.978  18.022  11.842  0.1189  0.1197  0.1003
 3767W        W19901  14.302  10.008   3.767 -0.0269  0.1353  0.2855
 3768W        W19902  10.962  11.188   2.594 -0.3897  0.0291 -0.1150
 3769W        W19903   5.028   2.928   2.888 -0.1559  0.0682  0.0435
 3770W        W19904  15.374   3.000  13.999 -0.0540 -0.4192 -0.0701
 3771W        W19905  15.975  17.430  11.988 -0.1630 -0.2312  0.0599
 3772W        W19906  11.130  15.991  16.278  0.0575 -0.1012 -0.3612
 3773W        W19907  17.585   3.014   0.936 -0.3674 -0.0843  0.0691
 3774W        W19908  10.127  17.301  12.245 -0.1097  0.0702 -0.2097
 3775W        W19909   9.095  17.701   4.822  0.3628 -0.1929 -0.2551
 3776W        W19910   2.494   9.056  16.193 -0.1430 -0.3755  0.3097
 3777W        W19911   3.481  16.301   5.066 -0.0010  0.1544  0.0059
 3778W        W19912  13.480   9.244  11.046 -0.0609 -0.1770 -0.0711
 3779W        W19913   1.452  11.955  11.544  0.1127 -0.0164 -0.0725
 3780W        W19914   4.701   4.284  11.842  0.1810  0.3016  0.1536
 3781W        W19915   0.645   7.860   0.833  0.1229  0.0569  0.2514
 3782W        W19916  12.507  16.567  16.511  0.0803  0.0861  0.0648
 3783W        W19917   6.477   7.646   2.971 -0.0079 -0.0539  0.1773
 3784W        W19918   0.882   2.530  13.062  0.1398  0.1956 -0.1076
 3785W        W19919   1.742  11.342  13.917  0.0663  0.0738  0.1061
 3786W        W19920   4.605  11.570   0.940  0.0034 -0.0103  0.1010
 3787W        W19921  10.946   2.120  14.590 -0.0820  0.3177  0.0032
 3788W        W19922   0.036   0.118   2.440  0.1631  0.1174 -0.0769
 3789W        W19923   3.017   9.681   3.711 -0.0318 -0.1154 -0.3610
 3790W        W19924   6.294  12.410   3.490 -0.0219 -0.1922 -0.2183
 3791W        W19925   0.813   4.454   2.023 -0.0507  0.2903  0.0957
 3792W        W19926   0.605   0.238   4.037 -0.0299 -0.0473  0.0752
 3793W        W19927   6.075   8.787   0.140 -0.0636 -0.0471 -0.0717
 3794W        W19928   9.644   5.898  12.956  0.0492  0.2944  0.0874
 3795W        W19929  15.670   8.217   4.178  0.1284  0.1376 -0.1218
 3796W        W19930  17.779  11.422   0.779  0.0251  0.0298  0.0003
 3797W        W19931   1.172  18.110   1.456 -0.0094 -0.2102 -0.3235
 3798W        W19932   3.522   0.434   3.192  0.0891  0.1853 -0.0382
 3799W        W19933   5.190   3.507   0.546  0.0045 -0.0455 -0.5058
 3800W        W19934   9.538   8.128  13.612  0.0955  0.1759 -0.4160
 3801W        W19935  16.731   2.686   0.005  0.0771  0.4336 -0.2227
 3802W        W19936  15.519   5.865  15.061 -0.1344 -0.0902  0.0542
 3803W        W19937  14.319   9.222   4.509 -0.0356  0.0094 -0.1691
 3804W        W19938  16.295   6.540  13.081  0.3133  0.2968 -0.1348
 3805W        W19939  16.707  11.695   2.155  0.0576 -0.0003  0.4105
 3806W        W19940   8.242   3.233  13.785 -0.2487 -0.2957  0.0816
 3807W        W19941   0.329  15.004  12.828 -0.3558 -0.0009 -0.1196
 3808W        W19942  10.677   6.846   3.509 -0.2800  0.1135 -0.1581
 3809W        W19943   5.902   6.757   5.547 -0.0004 -0.1607 -0.1635
 3810W        W19944   4.728   4.807  16.150  0.3275 -0.0294 -0.1995
 3811W        W19945  16.976  12.056  15.031  0.0391 -0.1506  0.0247
 3812W        W19946   2.300  11.665  12.666  0.0236 -0.5428  0.3487
 3813W        W19947  15.733   2.860  16.161  0.1532  0.0457 -0.1414
 3814W        W19948  17.999   9.455   1.521 -0.0578 -0.0868  0.0244
 3815W        W19949   2.648   4.474   2.470  0.0294  0.0884 -0.1020
 3816W        W19950   1.364  17.373   3.349 -0.3749 -0.3953 -0.0721
 3817W        W19951  10.770  15.676   6.210  0.0902  0.0155  0.3706
 3818W        W19952   3.970   4.968   5.135 -0.3334  0.4070  0.1069
 3819W        W19953   5.473   5.362   1.759  0.2607 -0.0914 -0.1414
 3820W        W19954  15.565  11.355  15.752  0.0861  0.0522 -0.3357
 3821W        W19955   1.322  10.970   4.464 -0.1186 -0.0863 -0.0539
 3822W        W19956  15.449   6.111   4.139 -0.1770  0.3512  0.0075
 3823W        W19957  10.012  11.922   0.265 -0.1519  0.1548 -0.1749
 3824W        W19958   2.672   9.187  15.748  0.1164  0.1721  0.1462
 3825W        W19959   4.895   6.063  15.160  0.3848 -0.0269  0.2366
 3826W        W19960   3.506   8.933  13.170 -0.0083  0.0288  0.0039
 3827W        W19961   2.199   5.943  16.167 -0.0684 -0.2134  0.1921
 3828W        W19962  14.924   1.974   2.439 -0.4904  0.0245 -0.0600
 3829W        W19963   9.960   1.225  15.669  0.1245  0.1052  0.0561
 3830W        W19964   6.604  11.773  12.165 -0.1933  0.0441  0.1780
 3831W        W19965   6.485   5.431  10.898 -0.0443  0.1051 -0.1618
 3832W        W19966   8.216  15.225   2.781  0.0207  0.0691  0.1137
 3833W        W19967   8.190  15.054   0.170 -0.0755  0.0610 -0.0340
 3834W        W19968   6.643   9.594  16.331  0.4134  0.0857 -0.4011
 3835W        W19969  12.014   6.420   4.914 -0.0138 -0.1259  0.2703
 3836W        W19970   2.238   1.095  14.872 -0.1187  0.2996  0.1607
 3837W        W19971   8.414   2.992   5.344  0.0093  0.4510  0.0410
 3838W        W19972   4.862  10.614   3.064  0.0505 -0.2524 -0.0654
 3839W        W19973  14.995   6.352  15.736  0.3676  0.3695  0.0766
 3840W        W19974  10.943   2.870  13.033 -0.0272  0.4312  0.2402
 3841W        W19975  13.181   9.529   9.773 -0.2766  0.1386 -0.2121
 3842W        W19976  16.470   0.216   2.460 -0.2028 -0.0899 -0.3160
 3843W        W19977   4.896  18.124   1.217  0.3421  0.2426 -0.1697
 3844W        W19978  17.039  10.496   5.045 -0.0124  0.1187  0.1876
 3845W        W19979   8.958  12.191   2.664 -0.2212 -0.1166  0.2283
 3846W        W19980   1.490   0.194   4.421  0.0259  0.1464  0.2411
 3847W        W19981   9.699   5.611   0.624  0.0614 -0.1239 -0.0010
 3848W        W19982   1.192  11.088  13.028  0.0659 -0.1273  0.3465
 3849W        W19983   8.667   2.816  14.388  0.1299  0.2559 -0.1036
 3850W        W19984  12.053  11.122  15.297 -0.0249  0.0595 -0.0018
 3851W        W19985   6.054   7.810   4.723  0.0003  0.1263 -0.1605
 3852W        W19986   7.304  16.968   0.683 -0.0382  0.1501  0.3961
 3853W        W19987  17.312   5.997  16.508 -0.1901 -0.0655  0.1797
 3854W        W19988   7.950  13.631   4.508  0.1398 -0.2202 -0.0411
 3855W        W19989   6.199   4.828  14.725 -0.2827 -0.0261  0.1365
 3856W        W19990   6.215   2.877   2.372  0.2582  0.0086  0.4788
 3857W        W19991   7.723   8.830  15.387  0.1332 -0.1979 -0.2604
 3858W        W19992   1.620   7.225  13.389  0.0750  0.0319 -0.1730
 3859W        W19993  12.049  11.868  15.975  0.0191  0.0115  0.0911
 3860W        W19994   6.600   5.346  15.845  0.1703  0.1281 -0.0350
 3861W        W19995   2.116   0.529  12.282 -0.1846  0.2649  0.1066
 3862W        W19996  14.781   4.428   6.335 -0.0680  0.1955 -0.1030
 3863W        W19997  11.317   4.141   3.597 -0.1049  0.2449  0.0170
 3864W        W19998   3.866  10.107  14.847 -0.0571 -0.2389 -0.1782
 3865W        W19999  14.227  14.022   0.473  0.1397  0.2353  0.0192
 3866W        W20000   6.781   2.684  14.586 -0.2032  0.1460  0.2547
 3867W        W20001  18.102   5.686  12.933 -0.2196 -0.0889  0.1436
 3868W        W20002   1.265   3.323  14.484 -0.0854 -0.1120 -0.0528
 3869W        W20003  11.551   8.242  14.805  0.0687 -0.1323  0.1096
 3870W        W20004   8.321  15.769   2.567 -0.1139 -0.2358 -0.0052
 3871W        W20005   7.888   4.538   2.042 -0.2705 -0.3224 -0.2628
 3872W        W20006  11.864   8.274  13.482  0.1549  0.0449  0.1261
 3873W        W20007  13.808   9.949  15.402  0.3971 -0.0241  0.1195
 3874W        W20008  12.854  13.301  11.663  0.1218  0.0107 -0.1455
 3875W        W20009   1.557   5.055   1.065 -0.1673 -0.1519 -0.0571
 3876W        W20010   0.363   2.290  13.542  0.1210 -0.0253  0.1647
 3877W        W20011  17.330   9.414   2.592 -0.0203 -0.2673  0.0020
 3878W        W20012   8.306   0.732   4.216 -0.3903  0.0399 -0.1344
 3879W        W20013  17.682   3.055   4.529 -0.1046  0.1144  0.0279
 3880W        W20014  15.965   5.237  15.736 -0.1666 -0.2118  0.0005
 3881W        W20015   7.015   7.472   4.750 -0.3937 -0.1936 -0.2487
 3882W        W20016   7.769   1.245   0.873  0.0737 -0.1097 -0.2134
 3883W        W20017   8.198   6.747   3.984 -0.0833 -0.1687  0.1148
 3884W        W20018  10.426   0.954   3.990  0.2187  0.1116  0.0102
 3885W        W20019   0.853  14.038   5.602 -0.3599  0.0517 -0.0203
 3886W        W20020   9.537  15.694   3.519  0.0618  0.0335  0.5396
 3887W        W20021   9.567  17.826   3.958  0.6307 -0.1353  0.0345
 3888W        W20022  14.620  17.092   5.368 -0.3917  0.2968  0.2239
 3889W        W20023   8.667  15.454  13.569 -0.2756 -0.5076 -0.3840
 3890W        W20024   4.747   9.837   1.724  0.2207  0.1798  0.0784
 3891W        W20025  16.360   4.608  14.605 -0.1148  0.1999  0.0250
 3892W        W20026  10.572  17.324  13.852  0.1785  0.1094 -0.2017
 3893W        W20027   8.949  14.274   5.570 -0.2390  0.0156 -0.1188
 3894W        W20028  13.495   8.910  13.947  0.1134  0.3378 -0.0104
 3895W        W20029   6.463   9.595  10.299 -0.2241 -0.0938 -0.2668
 3896W        W20030   1.259  13.313   1.561 -0.1141  0.1934 -0.1958
 3897W        W20031   8.101   5.344   5.552 -0.1358  0.1983 -0.1174
 3898W        W20032   1.608  13.947   0.900  0.0663 -0.2177  0.0238
 3899W        W20033   3.423  13.605  16.488 -0.1748 -0.1809 -0.0489
 3900W        W20034   2.693   7.340   1.093  0.0629  0.2372 -0.0119
 3901W        W20035   3.662   3.554   5.074  0.0039 -0.1508 -0.0171
 3902W        W20036  13.044  12.056  14.895  0.1890  0.1724 -0.1854
 3903W        W20037   5.994   0.625  13.092  0.0769 -0.0179 -0.3988
 3904W        W20038  11.103   1.299   3.631 -0.1071  0.0650  0.1278
 3905W        W20039  12.868  13.650   3.656 -0.1563  0.0756  0.2207
 3906W        W20040  18.164   3.499  12.003 -0.1201 -0.1027 -0.0030
 3907W        W20041  16.567  15.690   0.746  0.0510  0.0799  0.3568
 3908W        W20042  10.796   8.049  15.232  0.1306  0.1797  0.3170
 3909W        W20043  12.312  10.766  14.432  0.1795  0.4216  0.0071
 3910W        W20044  13.545  13.790  15.575 -0.1420 -0.0905 -0.1471
 3911W        W20045  16.762   9.871  13.418 -0.5247 -0.1282  0.0407
 3912W        W20046  10.720   7.123  14.434 -0.1386 -0.4983 -0.1159
 3913W        W20047  12.393  16.867   4.968  0.0273  0.1166  0.0171
 3914W        W20048   2.504   1.854   5.536  0.3080 -0.1674 -0.0948
 3915W        W20049   9.957   7.807  12.101  0.3740 -0.2969 -0.1325
 3916W        W20050  10.710   6.006   2.065 -0.1979  0.1504  0.3515
 3917W        W20051  11.765   1.708   4.530  0.0661  0.0096  0.2999
 3918W        W20052  17.159   2.684   2.677  0.5184  0.2854  0.1063
 3919W        W20053   0.845  17.369   3.625  0.0326 -0.3473 -0.3148
 3920W        W20054   6.095  11.746  12.471 -0.2340  0.1634  0.1420
 3921W        W20055   9.694  13.415   2.401 -0.1352  0.0013  0.0314
 3922W        W20056  13.389   7.082  16.279 -0.1441 -0.4881 -0.0606
 3923W        W20057  17.967  12.775  11.238 -0.1404  0.0349  0.0214
 3924W        W20058  14.734   3.118  14.661 -0.1588  0.0803 -0.1160
 3925W        W20059   7.452   3.180  14.313 -0.0936  0.2896  0.1504
 3926W        W20060   8.378  13.275  11.349  0.2312  0.0366 -0.0325
 3927W        W20061  13.780   4.764   0.202 -0.0723 -0.0450  0.2255
 3928W        W20062   1.468  12.892  12.026 -0.2950  0.1003 -0.0464
 3929W        W20063   7.061  17.786   3.824 -0.0375  0.0396  0.1996
 3930W        W20064  11.106  14.978   2.331  0.0824  0.0349 -0.2106
 3931W        W20065  11.552  13.167   3.507 -0.1193 -0.0798  0.2622
 3932W        W20066   8.876  16.573  13.711 -0.1858  0.1300  0.0036
 3933W        W20067  10.025   9.897   4.236  0.1607  0.0736 -0.2720
 3934W        W20068   5.573  14.331   2.636  0.1496 -0.1066 -0.1175
 3935W        W20069  12.832  17.108  16.051 -0.0106 -0.0341  0.2120
 3936W        W20070  16.814   2.098   4.854  0.0291  0.0467  0.0334
 3937W        W20071   0.941   4.872   0.440  0.1779  0.0781 -0.2703
 3938W        W20072   4.282   1.104  15.543 -0.1268  0.0442  0.1501
 3939W        W20073  14.592   1.616   2.249 -0.1159 -0.1078  0.1244
 3940W        W20074  14.658  13.223   5.386 -0.4446 -0.0015 -0.0779
 3941W        W20075   1.770  17.083   3.249 -0.0447  0.0098  0.0638
 3942W        W20076  12.514  12.786   5.327  0.1572  0.1946 -0.1225
 3943W        W20077   2.083   4.684  15.541  0.2625 -0.1879 -0.3093
 3944W        W20078   1.689  15.818   5.600 -0.1143 -0.2608  0.0759
 3945W        W20079  14.512   2.838   0.333 -0.1794 -0.1900 -0.2422
 3946W        W20080  11.735   2.611  15.176 -0.0395 -0.3181  0.0743
 3947W        W20081  11.075  17.345   4.391  0.0736 -0.2126  0.0503
 3948W        W20082   5.396  12.431  12.239  0.2359 -0.1602 -0.0124
 3949W        W20083   9.248  16.400  16.352  0.0530  0.2228  0.0519
 3950W        W20084   6.700  11.830   3.194  0.0428  0.1761 -0.0440
 3951W        W20085   2.880   6.293  13.607  0.1607  0.1809 -0.0249
 3952W        W20086  10.584   7.196   2.744 -0.0754  0.2250  0.1194
 3953W        W20087  11.920  14.856   1.315  0.5281 -0.1588 -0.4941
 3954W        W20088   9.930   3.450   6.238  0.0235  0.2508 -0.0633
 3955W        W20089   5.229   1.801   0.364 -0.0581 -0.1590 -0.1347
 3956W        W20090   2.278  15.520   5.173 -0.0567  0.2198  0.2433
 3957W        W20091   7.240   6.885  15.789 -0.1778 -0.2142 -0.0167
 3958W        W20092  11.133  12.938   3.435 -0.0592  0.1564  0.0119
 3959W        W20093  16.577   0.708   4.387  0.2083 -0.5034 -0.1072
 3960W        W20094   0.954  12.192  11.636 -0.1507  0.0187 -0.2492
 3961W        W20095   4.109   7.387  11.572  0.0917 -0.0170 -0.0147
 3962W        W20096  17.116   7.093  12.493  0.2333  0.0525  0.3475
 3963W        W20097  15.149   9.529  14.494 -0.0775  0.1267  0.0966
 3964W        W20098  16.507   4.899   5.023 -0.2016 -0.2983 -0.1621
 3965W        W20099  16.528  12.686   4.895  0.2199 -0.1296  0.0046
 3966W        W20100   0.660   8.818   1.421 -0.1742  0.1689 -0.0103
 3967W        W20101   6.546  15.919   1.458  0.2122  0.2026 -0.2218
 3968W        W20102  13.757   7.831  11.768  0.0510 -0.2409  0.3368
 3969W        W20103   4.062   7.159  12.351 -0.0020 -0.0542  0.1438
 3970W        W20104  13.304   3.158   3.967  0.1937 -0.2514 -0.1040
 3971W        W20105   2.839   4.942  15.771  0.1864  0.1648 -0.1318
 3972W        W20106  12.246   7.802  10.575 -0.2085 -0.0049  0.0004
 3973W        W20107   8.387   1.908  14.351  0.1270 -0.2913 -0.5167
 3974W        W20108  10.188   0.127   5.052 -0.1074  0.1430  0.0987
 3975W        W20109   0.536   1.778   2.041  0.0914 -0.1380 -0.0211
 3976W        W20110   7.008  13.150  15.238  0.0685  0.0964  0.0532
 3977W        W20111   0.212   5.058   6.184 -0.0027 -0.2028 -0.1756
 3978W        W20112   9.558   2.089   0.516 -0.5624  0.0983 -0.1434
 3979W        W20113   8.812  10.308  14.456  0.2725 -0.0734 -0.0890
 3980W        W20114   9.226  15.722   1.638 -0.0577 -0.1454  0.0342
 3981W        W20115  16.716   5.133   3.713 -0.2887 -0.1772  0.0255
 3982W        W20116  13.360  16.844  12.119  0.0323  0.1684  0.0993
 3983W        W20117   4.103   4.698  13.363  0.1412  0.1561  0.1871
 3984W        W20118   9.697   5.401  12.590  0.1436 -0.0115  0.1538
 3985W        W20119   4.757  12.717  13.872 -0.0196  0.1882  0.4081
 3986W        W20120  17.782   6.276   3.868  0.2603 -0.0970 -0.1601
 3987W        W20121   5.914  14.859  15.983 -0.1408 -0.3711 -0.1565
 3988W        W20122   0.516   9.830  11.404 -0.0921  0.1086 -0.0869
 3989W        W20123   6.742  17.255   2.821 -0.5369 -0.0093 -0.1783
 3990W        W20124   8.855  14.536  13.661  0.2160  0.1966 -0.0385
 3991W        W20125   4.098  16.413   1.277  0.3714 -0.2168  0.0006
 3992W        W20126  10.817  12.484  14.722  0.1339  0.3454 -0.1147
 3993W        W20127   4.892  16.947  12.630  0.1734  0.0566  0.0254
 3994W        W20128  16.461  12.295  15.415 -0.1885 -0.4567  0.1305
 3995W        W20129  17.224   9.885  12.361 -0.0406 -0.3105  0.0288
 3996W        W20130   9.860   3.611   0.438  0.3287  0.0719  0.2894
 3997W        W20131   4.980   1.101   3.944 -0.1890 -0.2822  0.1988
 3998W        W20132  14.599  13.351   1.548  0.2476 -0.4033  0.0724
 3999W        W20133  17.817  11.396  14.697 -0.0849 -0.2203 -0.1523
 4000W        W20134  15.095   4.107   2.897 -0.2174  0.1670  0.1897
 4001W        W20135   4.005   2.284  12.379 -0.1072  0.0306 -0.0089
 4002W        W20136   0.442  12.214  16.533  0.0819 -0.0078  0.4268
 4003W        W20137   0.876  10.907  12.412 -0.0659 -0.0529 -0.0743
 4004W        W20138   8.358  13.332   5.730  0.0833 -0.1281 -0.1391
 4005W        W20139   0.232   7.558  15.446 -0.1381  0.2136 -0.1477
 4006W        W20140  17.115   7.904   5.237 -0.0994  0.3896  0.1249
 4007W        W20141  17.682  11.866   3.364 -0.1869  0.1431  0.0031
 4008W        W20142   4.452   9.148  16.526  0.0123  0.1496  0.0609
 4009W        W20143   6.179  14.231   2.232  0.0155 -0.1079 -0.2115
 4010W        W20144   9.284  11.686   3.333  0.0070  0.0004  0.1099
 4011W        W20145  10.118  15.628  13.079 -0.0448 -0.2428 -0.1889
 4012W        W20146  16.239   1.992  14.460  0.0819 -0.3899  0.0073
 4013W        W20147  11.999   3.973   3.368  0.1280  0.3266  0.1738
 4014W        W20148  12.219  16.629  12.325  0.0757 -0.1163 -0.0873
 4015W        W20149   0.366   3.178  13.071  0.0698  0.1379 -0.4035
 4016W        W20150  16.036   0.078  14.128  0.2009  0.2122  0.2853
 4017W        W20151  12.675   2.056   4.173 -0.1060 -0.3025  0.3474
 4018W        W20152  12.715   1.716  12.706  0.0482 -0.1053  0.0770
 4019W        W20153  11.681   6.480   0.857 -0.0840 -0.1498  0.1897
 4020W        W20154   4.229  14.991  10.704 -0.3416  0.0051 -0.1091
 4021W        W20155   4.757   8.197   2.892  0.0834 -0.3289  0.1123
 4022W        W20156   2.798  14.065   2.299  0.2805 -0.1102  0.0807
 4023W        W20157   7.028   3.144   5.007 -0.1137  0.1647  0.0980
 4024W        W20158  12.555   6.883   1.647  0.1455  0.3906  0.0482
 4025W        W20159  15.287  16.963   0.656  0.2674 -0.1078  0.1819
 4026W        W20160   2.293  16.330  14.155  0.0093 -0.0019 -0.0904
 4027W        W20161   7.145  16.283  14.985  0.1387  0.0517  0.1334
 4028W        W20162  15.951  11.136  14.818 -0.0626 -0.3137  0.0179
 4029W        W20163   0.918  12.698  15.929 -0.2186  0.1892  0.5568
 4030W        W20164  14.031   4.319   3.849 -0.0730  0.1500  0.2211
 4031W        W20165  13.069   7.588   5.006  0.1071  0.0183  0.1942
 4032W        W20166  14.123  13.490   0.549 -0.0542 -0.0031 -0.1015
 4033W        W20167  13.191  15.083  16.270 -0.1860 -0.0222  0.2285
 4034W        W20168  17.326   6.368   5.138 -0.1038  0.0997  0.2670
 4035W        W20169   5.005  11.705   3.368 -0.2058  0.0962  0.2477
 4036W        W20170  11.329   7.659  15.269  0.2167 -0.0649 -0.3110
 4037W        W20171   0.055  12.808   4.452  0.2526  0.1140 -0.0939
 4038W        W20172  11.307  13.965  10.909  0.0871 -0.0363 -0.1027
 4039W        W20173   3.121   9.003  14.668  0.3605 -0.0809 -0.1126
 4040W        W20174  10.380   8.376  15.603  0.1980  0.0654 -0.0794
 4041W        W20175   8.469   3.925   4.386  0.2019 -0.3266 -0.0696
 4042W        W20176  10.950  16.300  13.065  0.3474 -0.2922  0.0217
 4043W        W20177  11.134   4.097  14.108 -0.0696 -0.3095  0.1518
 4044W        W20178   1.358  12.358   3.160 -0.2677  0.0481  0.2087
 4045W        W20179   6.372  14.973   4.455  0.0954 -0.0966  0.1092
 4046W        W20180  10.512  10.184  11.572  0.0995  0.2507 -0.4986
 4047W        W20181   8.054  14.674   1.694  0.0254  0.3094 -0.4168
 4048W        W20182  12.664  12.223  11.759  0.1218  0.2878 -0.4137
 4049W        W20183  12.958   9.562   2.518  0.0556  0.3448 -0.1976
 4050W        W20184   7.015  12.166   3.410 -0.1367 -0.1383 -0.1232
 4051W        W20185   9.483   8.568   3.882  0.0184  0.1744  0.1290
 4052W        W20186   6.299  13.053   0.845  0.2374 -0.1238  0.1169
 4053W        W20187   6.819  13.293   5.240  0.2730  0.1943  0.3690
 4054W        W20188   9.597  14.672  14.770  0.1373 -0.1093  0.1138
 4055W        W20189  10.783   2.565  11.665  0.0376 -0.0019  0.3415
 4056W        W20190  12.369   6.411  12.909  0.0286 -0.2539  0.3057
 4057W        W20191   8.639   4.010   3.394  0.2027  0.3857  0.2005
 4058W        W20192  11.917   2.806   0.655  0.0695  0.6272 -0.0620
 4059W        W20193   8.741  10.405  13.585 -0.3601 -0.0480 -0.2264
 4060W        W20194  15.200   3.312   3.725  0.0040  0.0784 -0.1828
 4061W        W20195  14.332   1.369  16.267 -0.1946 -0.2439 -0.1881
 4062W        W20196  12.226  14.768  11.803  0.1255  0.3098  0.1870
 4063W        W20197   4.291   1.582  13.537 -0.0663  0.3037  0.0437
 4064W        W20198  13.928   8.299  11.826 -0.0663 -0.2112 -0.0951
 4065W        W20199  10.526  10.391  10.729  0.0558  0.0079 -0.0032
 4066W        W20200   2.737   2.249   2.774 -0.0531 -0.1881  0.1605
 4067W        W20201   8.150   4.879  11.250 -0.2800  0.1149  0.1756
 4068W        W20202   0.018  10.786   3.948 -0.2206 -0.0478  0.1537
 4069W        W20203  16.195   8.103  15.759  0.3614 -0.2084  0.0457
 4070W        W20204   8.872  16.416  15.251  0.1252  0.0837  0.0160
 4071W        W20205   9.965   2.875   5.546  0.1091 -0.1059  0.1204
 4072W        W20206  10.711   6.799  16.440 -0.1588  0.0758 -0.1549
 4073W        W20207  16.131  11.937  11.112  0.0683  0.0687 -0.3340
 4074W        W20208   9.414   6.225  13.255 -0.0905  0.0954  0.0748
 4075W        W20209   1.635   2.621  14.991  0.1376 -0.1321 -0.0297
 4076W        W20210  11.426  13.455  13.148  0.1135 -0.1238 -0.0384
 4077W        W20211   9.296   1.832   0.129  0.1631 -0.3562  0.2114
 4078W        W20212   2.248   3.956  14.834  0.0427  0.2752  0.0401
 4079W        W20213   7.348   8.963   1.551  0.0409 -0.1947 -0.1778
 4080W        W20214  10.348   7.864  15.423 -0.3440 -0.1914 -0.2152
 4081W        W20215  14.024   9.578  16.482 -0.3528 -0.0825  0.2189
 4082W        W20216  17.656  13.784   4.036 -0.0173  0.0428 -0.0941
 4083W        W20217   7.234  15.509   1.054 -0.0875 -0.2233 -0.2884
 4084W        W20218  15.133   7.318  16.242 -0.3068  0.1019 -0.0907
 4085W        W20219   5.795   5.895   5.763 -0.2715  0.0302 -0.3894
 4086W        W20220  11.581  13.961  11.484  0.0577 -0.1873  0.1141
 4087W        W20221   3.324  10.945  15.668 -0.1737  0.3679 -0.0069
 4088W        W20222  12.809  16.245   1.981  0.0884 -0.0139  0.0959
 4089W        W20223   0.424  17.786  11.963 -0.0644 -0.1011 -0.0712
 4090W        W20224   6.273  18.072   5.477 -0.4380 -0.0385 -0.0763
 4091W        W20225  16.968   0.064  15.358  0.1834 -0.1824 -0.1677
 4092W        W20226   4.567   2.638  13.067  0.2390  0.0941  0.1082
 4093W        W20227   8.779  10.672  12.175 -0.1256 -0.0919 -0.2996
 4094W        W20228   2.146   9.205  15.773 -0.1809 -0.0081  0.1277
 4095W        W20229   7.994   7.248   3.911  0.1275 -0.0432  0.0600
 4096W        W20230   5.364   6.529   2.401  0.4125  0.1703  0.0788
 4097W        W20231  10.402   3.119  12.115  0.0599 -0.1225 -0.0548
 4098W        W20232   1.410   7.294   2.996  0.4796 -0.1293 -0.0957
 4099W        W20233   7.463   2.274  15.741  0.0816 -0.2351  0.2818
 4100W        W20234  10.918   5.744   2.913  0.3947  0.0268  0.1193
 4101W        W20235  17.774  15.923   3.963  0.4952 -0.3517 -0.1124
 4102W        W20236   4.525  16.150   2.106  0.5017 -0.0410  0.2142
 4103W        W20237   7.637   7.338   2.435  0.2012 -0.0796 -0.0703
 4104W        W20238  10.043   1.849   0.184 -0.0307  0.1890  0.3737
 4105W        W20239   4.816   7.375   2.294  0.0240  0.1285 -0.1050
 4106W        W20240   5.789  10.342  13.705 -0.0811  0.4255  0.2874
 4107W        W20241  10.256  13.369  15.599  0.2854 -0.3163 -0.0292
 4108W        W20242   2.845   9.251   1.177  0.0704 -0.0841  0.1483
 4109W        W20243   9.492  13.616  13.653 -0.1912 -0.1503 -0.1118
 4110W        W20244  16.949   8.316  15.116  0.1948  0.2362 -0.4220
 4111W        W20245  12.712   3.168  14.278 -0.2998  0.1693 -0.2230
 4112W        W20246   6.028   1.797  14.018  0.0479  0.0553 -0.0534
 4113W        W20247  11.885   0.880   4.727  0.3001 -0.0238 -0.0307
 4114W        W20248  10.466  16.842   4.307  0.1889  0.1549 -0.2122
 4115W        W20249   9.443   7.126  12.821  0.3963 -0.0797 -0.2210
 4116W        W20250   9.457   6.920  13.688  0.1492 -0.0681 -0.0972
 4117W        W20251   8.397  18.043   1.919 -0.2890  0.1204 -0.0814
 4118W        W20252  16.372   1.087  10.775  0.1804 -0.1382 -0.1445
 4119W        W20253   9.010  10.473   2.532 -0.0438 -0.0241 -0.1270
 4120W        W20254  17.459   9.173   0.376  0.1555 -0.0399 -0.0673
 4121W        W20255   2.681   0.098  13.413 -0.0470  0.1628  0.0412
 4122W        W20256   3.153  13.539  15.536 -0.2796  0.3198 -0.0511
 4123W        W20257   2.753   9.405  14.112 -0.4390 -0.3933  0.2077
 4124W        W20258   9.341   6.867  14.658  0.1297  0.0296 -0.1372
 4125W        W20259  13.780   3.157   6.539 -0.0547 -0.1996  0.1549
 4126W        W20260  14.179  13.183   3.129  0.0993  0.1347  0.2320
 4127W        W20261   9.297  11.041  15.483  0.0268  0.0988  0.0055
 4128W        W20262  10.427   8.923  12.452 -0.0809 -0.0345 -0.1107
 4129W        W20263  11.963   9.622   4.250 -0.1013 -0.1857  0.2045
 4130W        W20264  11.872  13.494   3.700 -0.1569  0.0470  0.1432
 4131W        W20265   1.649   8.164  14.488  0.0481 -0.0633 -0.2071
 4132W        W20266   2.460  14.976   4.428 -0.0618 -0.7226  0.0015
 4133W        W20267   9.152   7.698  14.601  0.0070  0.1087  0.0870
 4134W        W20268   3.352  13.346   1.915  0.0615 -0.1151 -0.0365
 4135W        W20269  17.092   6.882  13.127 -0.1334 -0.1156 -0.1455
 4136W        W20270   7.819   1.657   2.663 -0.1967  0.1020  0.1378
 4137W        W20271  17.506  18.098  14.035  0.2382 -0.2533  0.1490
 4138W        W20272   6.206   6.945   3.512 -0.1597  0.0148  0.1109
 4139W        W20273  10.466  10.706  13.814 -0.1316 -0.0210  0.1216
 4140W        W20274  11.431  12.030  13.580 -0.0367  0.0104 -0.0394
 4141W        W20275  10.506   2.617   0.473  0.1980 -0.1049 -0.2483
 4142W        W20276   6.289  15.141  12.731  0.0303 -0.1912  0.1254
 4143W        W20277  13.872   5.920   2.588  0.1256 -0.0461 -0.3988
 4144W        W20278  11.857   8.769   1.537 -0.0830  0.3383  0.0752
 4145W        W20279  10.971   1.800  13.629 -0.1677 -0.0825 -0.1353
 4146W        W20280   2.933   3.485  15.870 -0.0322 -0.1118  0.0145
 4147W        W20281  10.523  16.830   1.117 -0.1420  0.0222 -0.1782
 4148W        W20282  16.853   8.947   4.123  0.0360 -0.1904  0.1057
 4149W        W20283  11.406   6.289  15.961  0.4604 -0.0184 -0.1699
 4150W        W20284  13.674   5.479   1.191  0.1885  0.0535  0.1161
 4151W        W20285   2.000  14.556  11.920  0.5416 -0.0369  0.0230
 4152W        W20286   1.413   7.630   4.524  0.1142  0.0621  0.2192
 4153W        W20287  10.750   2.984   3.140 -0.3113 -0.2194  0.0272
 4154W        W20288  11.020  10.348   0.640  0.1467  0.0547  0.1086
 4155W        W20289   5.598   8.997  14.204  0.0570  0.1322 -0.1202
 4156W        W20290  14.997   0.679   1.629  0.1780  0.1794 -0.0465
 4157W        W20291   6.047   4.422  11.496 -0.0355  0.1687 -0.3081
 4158W        W20292   0.269   7.115  12.952 -0.0336 -0.0816  0.0908
 4159W        W20293  16.786  11.493   3.368 -0.1405 -0.3561  0.2744
 4160W        W20294   1.031  15.418  16.057 -0.1669 -0.0374  0.1985
 4161W        W20295  11.509   9.223  12.689 -0.0194  0.0208 -0.0959
 4162W        W20296  18.040   5.004  16.091 -0.0894  0.2719 -0.1922
 4163W        W20297   5.454   3.115  13.036  0.0969  0.0657 -0.3306
 4164W        W20298   2.082   9.053  14.082 -0.2044 -0.0465  0.0112
 4165W        W20299  14.164   5.483  11.939 -0.3576 -0.0655  0.0554
 4166W        W20300  10.215   6.432  14.568  0.2453  0.0867  0.1766
 4167W        W20301  17.443  17.773  14.434  0.0037 -0.0892 -0.0129
 4168W        W20302   6.937   0.201   3.383 -0.4871 -0.1965  0.2382
 4169W        W20303   5.011   7.495   3.558 -0.0980 -0.1814 -0.0623
 4170W        W20304   0.647  12.286   2.645  0.0739  0.1236  0.0336
 4171W        W20305  14.995   9.799   4.140 -0.0198 -0.0780  0.0820
 4172W        W20306  12.489  16.296   1.458 -0.4034 -0.1026  0.0474
 4173W        W20307   8.677   8.598  16.143  0.0549 -0.3985 -0.0410
 4174W        W20308   5.160   3.110   1.947  0.3534  0.0038 -0.0587
 4175W        W20309   6.020  17.338  11.612 -0.0224 -0.1428 -0.2083
 4176W        W20310  16.716  15.287   5.125  0.3187  0.1673 -0.1283
 4177W        W20311  13.200  11.316   0.178 -0.0740 -0.1404 -0.1085
 4178W        W20312   8.948  15.280  15.286 -0.2080  0.1227  0.1527
 4179W        W20313  15.770   8.492  14.652  0.0836  0.2505 -0.0322
 4180W        W20314   7.718   5.432  14.727  0.1697 -0.0444 -0.1666
 4181W        W20315   5.194  12.232   4.683 -0.0771 -0.3689  0.0151
 4182W        W20316  11.953   6.025   2.508 -0.0179  0.3146 -0.1263
 4183W        W20317  12.279  17.518  12.893  0.1626 -0.0033 -0.0518
 4184W        W20318   0.599   4.725  15.258 -0.3326 -0.0867 -0.0414
 4185W        W20319   5.702   3.021   2.291 -0.2923 -0.2725  0.0882
 4186W        W20320   2.865   8.512   0.373  0.0224 -0.0068  0.0320
 4187W        W20321   8.657  17.935   0.719  0.0700  0.2744  0.0933
 4188W        W20322  12.686   0.141   4.323  0.0944 -0.0282  0.2627
 4189W        W20323   5.559   2.141  13.943  0.0990  0.3797 -0.0350
 4190W        W20324   8.059   2.068   4.929 -0.2499 -0.1119 -0.0539
 4191W        W20325   0.879   3.026  14.597 -0.0049  0.0706  0.1986
 4192W        W20326   5.061   9.173  11.450  0.1890  0.1604  0.1869
 4193W        W20327   8.212   1.742  13.056 -0.0684 -0.1452  0.3673
 4194W        W20328   1.705   5.904  16.493  0.0970 -0.0134  0.3016
 4195W        W20329  15.526  17.793   5.022  0.0512  0.0082 -0.0933
 4196W        W20330   0.880   9.817  12.525 -0.2573  0.3222 -0.0705
 4197W        W20331   5.365  17.071  14.275 -0.2690 -0.0282  0.0818
 4198W        W20332   2.241   9.275   0.377  0.2224 -0.0780  0.0928
 4199W        W20333   2.603  13.282  15.020  0.0438 -0.3549  0.1451
 4200W        W20334   3.534   5.427  12.409  0.0319  0.0371  0.2798
 4201W        W20335   9.728  15.286  13.012 -0.1533 -0.1015  0.0879
 4202W        W20336   1.135   7.956   2.798  0.1096 -0.0833 -0.0710
 4203W        W20337  10.875   8.176   3.216  0.1479 -0.3432 -0.1727
 4204W        W20338  12.208   0.829  13.398  0.2402 -0.2484  0.1681
 4205W        W20339   3.936   5.589   0.954 -0.2977  0.0670  0.3369
 4206W        W20340  14.116   5.109   0.963 -0.4136  0.0853  0.1455
 4207W        W20341  17.448   1.300  15.550 -0.0094 -0.1941 -0.0007
 4208W        W20342  10.047   0.916   5.022  0.0429 -0.4006  0.1891
 4209W        W20343   3.509  13.904  15.739  0.1840 -0.2466 -0.2893
 4210W        W20344  11.086   5.776   4.369 -0.0753  0.2651  0.0443
 4211W        W20345   7.550   9.342  15.175  0.0621 -0.3346 -0.3992
 4212W        W20346  11.710   1.671  12.931  0.1372  0.0058 -0.0478
 4213W        W20347  15.323   4.543   2.102  0.0652 -0.1453  0.1191
 4214W        W20348   9.369   4.804   1.394  0.0281  0.3190 -0.2768
 4215W        W20349  16.458  16.287   2.323 -0.3296 -0.0710  0.0258
 4216W        W20350   3.956   3.461   0.220  0.2468 -0.0100 -0.1734
 4217W        W20351   0.055   8.596  15.940  0.0727  0.0221 -0.2266
 4218W        W20352   3.909  17.212  14.933 -0.1494  0.3007 -0.3955
 4219W        W20353  10.859  17.095   0.762  0.3548  0.0227  0.1231
 4220W        W20354  14.204  16.424  13.116 -0.0320  0.2277  0.2201
 4221W        W20355   9.982   2.315   5.600  0.0329 -0.0553  0.2825
 4222W        W20356   0.452   0.008   3.167  0.3218  0.0137  0.2183
 4223W        W20357   8.014  10.689   2.723  0.1620 -0.1221  0.3324
 4224W        W20358   3.491   4.743  14.041 -0.1288 -0.0743 -0.0803
 4225W        W20359  16.964   1.039  13.320  0.0062 -0.3160 -0.1190
 4226W        W20360   2.774  17.100  11.855 -0.0578  0.2685 -0.1182
 4227W        W20361   9.384  16.255  15.420 -0.1840 -0.2318  0.1252
 4228W        W20362  12.614   8.639   3.420  0.0707 -0.2051  0.0198
 4229W        W20363  11.783   3.081  14.287 -0.3814 -0.3352  0.1680
 4230W        W20364   0.039  16.621  12.173 -0.0474  0.1090  0.1214
 4231W        W20365   6.486  17.036   0.296  0.1512 -0.0429 -0.1723
 4232W        W20366   2.368   9.122   4.729 -0.0576 -0.1651  0.2048
 4233W        W20367  16.168   4.596  13.500  0.1018 -0.3016 -0.0030
 4234W        W20368   2.794   0.538  16.378 -0.0204  0.0418  0.1938
 4235W        W20369  10.367   2.613   5.531 -0.0809 -0.3893  0.1431
 4236W        W20370   0.145   4.951  11.771 -0.2126  0.2713 -0.1302
 4237W        W20371  12.917  15.980  13.897  0.0301  0.3015 -0.0900
 4238W        W20372  10.221   6.779  16.392  0.0712  0.1512 -0.1035
 4239W        W20373   1.304  11.711  16.505  0.0942  0.3110 -0.3089
 4240W        W20374  15.552   4.564  13.536 -0.0486  0.1614 -0.1434
 4241W        W20375  15.417   9.831  13.020  0.0877 -0.0282  0.1335
 4242W        W20376   1.736  16.742   4.116  0.2628  0.1605  0.1651
 4243W        W20377  10.029  13.159   1.136  0.0608 -0.1176 -0.0925
 4244W        W20378  12.476   2.354  12.745 -0.2285  0.2201 -0.0140
 4245W        W20379   8.531  17.586   3.243  0.0394 -0.1148 -0.2802
 4246W        W20380   9.832   9.337   1.671  0.0979 -0.1985  0.0071
 4247W        W20381   2.349  14.073   2.016 -0.0375  0.1713 -0.3464
 4248W        W20382   5.176   3.518  10.531  0.0401  0.1244  0.0681
 4249W        W20383  16.298   9.078  11.221 -0.0634 -0.3464  0.0039
 4250W        W20384   3.457  16.877   6.519 -0.0224  0.2183  0.0081
 4251W        W20385   4.243  12.083  14.529 -0.1412 -0.2454  0.2193
 4252W        W20386   7.100   5.375  12.177  0.1945  0.2490  0.2450
 4253W        W20387  12.633   3.297   2.455  0.1115 -0.2282  0.0285
 4254W        W20388  13.643  16.336   0.911  0.0595 -0.1906 -0.2376
 4255W        W20389  10.147   6.747   5.459  0.0430 -0.0890 -0.0497
 4256W        W20390  12.160  11.421   3.223 -0.0417 -0.1114 -0.0756
 4257W        W20391   5.538   6.180   0.367 -0.2440  0.2633  0.1056
 4258W        W20392   3.480   2.822   3.937 -0.0254  0.1664 -0.0800
 4259W        W20393  15.809  14.033  16.129  0.0851 -0.0218 -0.1942
 4260W        W20394   5.646  17.937   1.772 -0.0677  0.1159  0.0164
 4261W        W20395  13.274  10.587   3.250  0.0369 -0.1221 -0.2368
 4262W        W20396  10.589   1.098  12.738 -0.1534 -0.5470  0.3813
 4263W        W20397   5.819  11.148   0.561  0.3448 -0.4780  0.0816
 4264W        W20398   3.195  13.843   5.411  0.5828 -0.0193  0.0593
 4265W        W20399  13.592  10.514  16.082 -0.1794  0.0465  0.0595
 4266W        W20400   9.477   4.738  11.450 -0.1368 -0.0457  0.1361
 4267W        W20401   0.893   8.966  12.770 -0.0455  0.0466  0.0301
 4268W        W20402   6.109  11.938  13.545 -0.0223  0.1977  0.1563
 4269W        W20403   8.370   0.349   5.276 -0.1408  0.0638 -0.1458
 4270W        W20404  11.217   1.555   4.047 -0.0167 -0.0731  0.1227
 4271W        W20405   7.558  12.890   3.417  0.1255 -0.1348  0.2796
 4272W        W20406  15.977  13.945   3.964  0.1046 -0.1088  0.0237
 4273W        W20407   2.252   9.358  14.420 -0.0597 -0.2380 -0.1857
 4274W        W20408  11.591   7.314   3.460  0.2585  0.0766 -0.2737
 4275W        W20409   1.801   0.221  13.037  0.2627  0.0111  0.0931
 4276W        W20410   6.755  11.776  14.088 -0.3164 -0.0951 -0.0978
 4277W        W20411   5.980   4.965  12.353 -0.1187  0.1544  0.0708
 4278W        W20412  11.475   6.197  14.925  0.0873 -0.0743 -0.1017
 4279W        W20413   8.197  14.378   2.080  0.1624  0.0508  0.0611
 4280W        W20414  11.072   9.339  11.188 -0.2121 -0.0032 -0.1032
 4281W        W20415   1.440  10.915  14.611  0.1701  0.0256  0.3063
 4282W        W20416   9.253   5.644  13.322 -0.4607 -0.2940 -0.0947
 4283W        W20417   7.890   8.654  10.866  0.2398  0.0861 -0.1666
 4284W        W20418   0.465   7.059  10.716 -0.0253 -0.3245  0.2958
 4285W        W20419  17.789  15.138  16.193 -0.2811 -0.0010 -0.1444
 4286W        W20420   8.426  12.924   4.261 -0.2361 -0.0126 -0.2112
 4287W        W20421   9.201   0.519   4.904  0.3668  0.0846 -0.0387
 4288W        W20422   1.407   6.903   0.922  0.0646 -0.1268 -0.2339
 4289W        W20423   1.179  10.070   4.220  0.3209 -0.0506  0.2091
 4290W        W20424   3.707  15.439   2.340  0.3055 -0.0332  0.1370
 4291W        W20425   8.240   7.682  13.541 -0.0666 -0.1738  0.1788
 4292W        W20426   7.947   0.560   5.392 -0.3605  0.1765 -0.1619
 4293W        W20427   0.329  10.833  16.436 -0.0616  0.1309  0.1557
 4294W        W20428  15.199  17.915  12.302  0.1789  0.0229  0.2077
 4295W        W20429   8.571  14.123  15.284  0.0509  0.2103 -0.0293
 4296W        W20430  14.171   9.227  15.689  0.0642  0.0906  0.0692
 4297W        W20431   7.541   3.456  15.331  0.0686  0.2128  0.0810
 4298W        W20432  13.653   7.053   0.121  0.0212 -0.1801  0.1492
 4299W        W20433   1.660   7.765  11.377 -0.1571  0.2065 -0.1786
 4300W        W20434   6.467   4.486   0.944  0.0516  0.1916 -0.0892
 4301W        W20435   6.432   7.746   4.304 -0.4716 -0.1678  0.0124
 4302W        W20436  12.016   5.834  13.038 -0.1467 -0.1826 -0.0808
 4303W        W20437   4.327   2.849   2.853 -0.3833 -0.0895  0.0066
 4304W        W20438  16.062  14.961  14.234 -0.1777  0.0519  0.2830
 4305W        W20439   4.832   1.395   4.780  0.1754 -0.0226  0.4427
 4306W        W20440  16.697  13.035   0.212 -0.1661  0.2030  0.0486
 4307W        W20441   6.923  16.843  11.537 -0.1085  0.4163 -0.2194
 4308W        W20442   8.355  13.156   4.770 -0.0676  0.0970 -0.0778
 4309W        W20443   0.368   0.284  16.204  0.3269  0.4793  0.1322
 4310W        W20444  12.299   4.187   5.088  0.2997  0.2623 -0.0990
 4311W        W20445   8.060   3.055   4.641  0.1092 -0.0010  0.1539
 4312W        W20446   6.078   8.727   1.899  0.1795  0.1130  0.2418
 4313W        W20447   3.591   7.846  12.973 -0.2820  0.1688  0.1816
 4314W        W20448   7.504   0.921  15.221  0.1285 -0.2111 -0.0110
 4315W        W20449  14.242   9.085  11.504 -0.1234  0.2590 -0.2012
 4316W        W20450   5.033   0.965  15.421 -0.0295 -0.0084 -0.1396
 4317W        W20451   6.114  16.929  10.826  0.0326  0.0591 -0.1767
 4318W        W20452   7.571   6.481  15.741  0.0151 -0.1848 -0.1981
 4319W        W20453  10.113   5.041   3.665 -0.1233  0.0442 -0.0122
 4320W        W20454  10.714  10.816  14.971  0.1236 -0.1970 -0.0582
 4321W        W20455   7.271   9.304   1.908 -0.0549  0.1551  0.0563
 4322W        W20456  11.178   9.497   2.409 -0.0029  0.2311 -0.0762
 4323W        W20457  13.851   6.654   5.204  0.1747 -0.0583  0.1949
 4324W        W20458   1.191   8.144   1.930  0.3157  0.0525  0.1563
 4325W        W20459  10.371  11.509   4.982 -0.2562  0.0513 -0.1676
 4326W        W20460   3.603  11.871  11.817 -0.2189  0.0560 -0.1160
 4327W        W20461   4.795  15.355  15.082  0.2355  0.3664 -0.2676
 4328W        W20462   7.061   1.266  13.749 -0.1170 -0.1963  0.1268
 4329W        W20463   1.229   3.781  13.937 -0.1051  0.0942 -0.0192
 4330W        W20464   7.122   7.413   1.657 -0.0818 -0.0054 -0.0557
 4331W        W20465   6.280   2.456  15.029  0.0067  0.0903 -0.0801
 4332W        W20466   3.055  14.996   3.026  0.0723  0.1513 -0.2246
 4333W        W20467   2.543   0.382  12.509  0.1335 -0.3959  0.1622
 4334W        W20468   4.719   8.685   4.098  0.1358  0.0411 -0.1144
 4335W        W20469   8.522  12.459   0.104 -0.0866  0.1950  0.3110
 4336W        W20470   8.063  17.335   3.561  0.1533  0.0795  0.4664
 4337W        W20471   0.516   8.404   2.181  0.3058  0.2436  0.0600
 4338W        W20472  12.602  11.468  13.543  0.2908 -0.0002 -0.1310
 4339W        W20473   3.728   3.491   4.262  0.3115 -0.2485 -0.2093
 4340W        W20474   0.869  13.399  11.630  0.0479 -0.0084 -0.2808
 4341W        W20475   9.289  13.660   2.185 -0.1163  0.2175 -0.1618
 4342W        W20476  13.739  17.731  12.450 -0.2864  0.0912  0.1300
 4343W        W20477  11.347  16.994  12.642 -0.1427 -0.2278 -0.0421
 4344W        W20478   5.833  15.575   2.416 -0.2153 -0.2002  0.2886
 4345W        W20479  16.138  17.600   3.241 -0.1951  0.1555 -0.1531
 4346W        W20480  16.781  17.963  13.595 -0.1099  0.0603  0.3363
 4347W        W20481   0.182  17.252   3.408 -0.1139 -0.1692 -0.0436
 4348W        W20482   3.427   3.463  15.859 -0.1849  0.1663 -0.1561
 4349W        W20483  15.180  12.677  11.647  0.1847  0.1955  0.0187
 4350W        W20484  13.855   8.533  14.053 -0.1008  0.0072 -0.0205
 4351W        W20485   2.392  15.545   6.309  0.1006 -0.2192 -0.0457
 4352W        W20486  14.925  11.078   0.070 -0.2741  0.1669 -0.0826
 4353W        W20487   3.846  15.562  16.541  0.0881  0.2131 -0.3822
 4354W        W20488   8.862  13.308   2.261 -0.1221  0.0159  0.0125
 4355W        W20489   8.020  12.836  13.723 -0.2882 -0.1499  0.2922
 4356W        W20490  13.090   3.588   4.304 -0.0401 -0.0584  0.2652
 4357W        W20491   5.424   8.760  15.014 -0.1805  0.5450 -0.0966
 4358W        W20492   8.464   2.077   6.279  0.1401 -0.0716  0.1550
 4359W        W20493  14.244   4.251  12.244  0.1401 -0.0108  0.1825
 4360W        W20494  11.754   1.308   0.633 -0.2731  0.1803  0.0005
 4361W        W20495   7.020   5.863  15.736  0.3354  0.0064 -0.0014
 4362W        W20496  10.240   1.162  14.614  0.1873  0.1336  0.1685
 4363W        W20497   7.585   1.124   5.804  0.0422  0.0597  0.0353
 4364W        W20498   8.843  12.001   0.872 -0.0293  0.0615 -0.2108
 4365W        W20499  12.785  10.727  16.106  0.0336  0.0544 -0.1947
 4366W        W20500   9.679  17.587  13.642  0.1749  0.3724  0.2890
 4367W        W20501   6.217   6.729   5.122  0.3452  0.0026 -0.1903
 4368W        W20502  10.488  11.176  13.400 -0.1318 -0.0382 -0.0577
 4369W        W20503  14.308   2.747   4.555  0.0907 -0.0395 -0.1068
 4370W        W20504  10.857   2.254   0.420 -0.1460  0.2315  0.1280
 4371W        W20505   5.447   3.788   5.085 -0.1188  0.0420 -0.1725
 4372W        W20506  16.943  13.436   2.532 -0.3231  0.0712 -0.0937
 4373W        W20507   9.771  14.898   4.548 -0.3581 -0.4210  0.0140
 4374W        W20508   0.544  14.531   6.124  0.0922  0.0275  0.0859
 4375W        W20509  15.121   7.777   1.605  0.2847  0.1805  0.3927
 4376W        W20510   0.130  16.189  14.105 -0.3389 -0.3799  0.0019
 4377W        W20511  11.766  15.958  14.423  0.1161 -0.1124  0.1001
 4378W        W20512   0.099   7.802   0.946 -0.2091 -0.1004 -0.0363
 4379W        W20513  13.840  12.671   0.400 -0.1227 -0.1918 -0.0401
 4380W        W20514  17.469   1.446   2.345 -0.0326  0.0599  0.0871
 4381W        W20515   2.552   4.107  12.704  0.1258  0.0829  0.0547
 4382W        W20516  10.489  12.401   3.713 -0.3120  0.3573 -0.0821
 4383W        W20517   4.333   8.395  13.327  0.0161  0.0841 -0.1657
 4384W        W20518  14.042   9.673   0.503  0.1454  0.1663  0.4320
 4385W        W20519  14.770   5.059  12.963 -0.0094 -0.3265 -0.0668
 4386W        W20520   9.701   6.763   3.824 -0.1066 -0.0337  0.0538
 4387W        W20521   2.603   6.846   0.837 -0.2922 -0.1092 -0.1833
 4388W        W20522   5.269  12.040  11.911 -0.0824 -0.2063  0.1197
 4389W        W20523  11.813  14.550  14.561  0.2061  0.1293  0.2339
 4390W        W20524  11.796  17.991   3.938 -0.1213 -0.2153 -0.1649
 4391W        W20525  10.432   8.483   1.650  0.0276  0.0883 -0.2213
 4392W        W20526  16.088   4.926  11.382  0.3031 -0.0264  0.0036
 4393W        W20527   8.372  13.010   0.977 -0.0290  0.2200  0.1104
 4394W        W20528   5.435   7.530  14.306  0.1714 -0.2072 -0.4037
 4395W        W20529   6.946  16.679   2.641 -0.2809  0.4024 -0.0410
 4396W        W20530  10.696  14.935  12.154 -0.1466  0.3048  0.2412
 4397W        W20531  15.995   1.479  13.474 -0.1253 -0.2239 -0.1320
 4398W        W20532  12.647  17.399   2.876 -0.0259  0.2347  0.1597
 4399W        W20533  16.306  10.806  16.033 -0.0596  0.2373  0.0808
 4400W        W20534   6.331   8.568   4.622  0.1287  0.3255  0.0348
 4401W        W20535  17.694  11.461   3.691 -0.2638 -0.0477 -0.2040
 4402W        W20536   4.875   4.592   2.276 -0.2320  0.1108 -0.1926
 4403W        W20537  14.428   4.689   0.892  0.3306  0.1698 -0.2641
 4404W        W20538   1.895   1.837   4.116 -0.0258  0.0278  0.0243
 4405W        W20539   0.879   7.896   6.088 -0.0000 -0.2619 -0.3590
 4406W        W20540  13.443  16.046  13.087  0.0940  0.0123  0.0234
 4407W        W20541  15.550  10.797   1.897 -0.1689 -0.1273 -0.1064
 4408W        W20542  13.484  17.039   3.755 -0.1563 -0.1892  0.3280
 4409W        W20543  13.755  14.217   4.424  0.2151 -0.1249  0.3223
 4410W        W20544  13.663   8.622  14.916 -0.1439 -0.0507  0.0208
 4411W        W20545  11.382   4.250   0.644  0.1196  0.1236  0.1448
 4412W        W20546   6.160   1.911  16.232  0.1682 -0.2003 -0.0251
 4413W        W20547   6.963  12.599   1.632 -0.0546 -0.0427 -0.0379
 4414W        W20548   5.568   7.655   2.823 -0.2045 -0.0926 -0.0868
 4415W        W20549  14.794  10.603  11.347 -0.2674 -0.0226 -0.1197
 4416W        W20550  17.876   9.306  13.028 -0.0749 -0.0222  0.0687
 4417W        W20551   9.308  17.283   4.983 -0.1399  0.2000 -0.2025
 4418W        W20552  11.970   6.862  13.946  0.0286 -0.0078  0.2041
 4419W        W20553  13.921   6.264   3.027  0.1145 -0.0924  0.0158
 4420W        W20554   0.412   8.958   3.241  0.2411 -0.0691 -0.0384
 4421W        W20555   4.202  16.167  12.522 -0.0016 -0.1699  0.0469
 4422W        W20556   6.116  13.223   2.484 -0.0283 -0.2798  0.0016
 4423W        W20557  14.598   1.239   5.151 -0.1267 -0.1944  0.2402
 4424W        W20558   9.132   5.862   4.184  0.1817  0.3473 -0.0632
 4425W        W20559   8.567   2.443   5.437 -0.2453 -0.0519 -0.1281
 4426W        W20560  12.390  14.240   0.789  0.0432  0.0783  0.1749
 4427W        W20561   0.941   3.373  14.062  0.0014  0.0710  0.1901
 4428W        W20562  14.278   1.504  14.307 -0.3037  0.0361  0.0650
 4429W        W20563  10.443   8.813  11.059 -0.0879 -0.0239 -0.3505
 4430W        W20564  12.388  12.728  15.237 -0.0308 -0.1583 -0.1269
 4431W        W20565   9.003  15.531  15.980 -0.2280 -0.0280 -0.0540
 4432W        W20566   6.131   9.130   3.862  0.0523  0.0841 -0.2503
 4433W        W20567  13.001  10.305  14.836 -0.0941  0.1091  0.1787
 4434W        W20568  16.173   4.448  11.917 -0.1773 -0.3383 -0.2564
 4435W        W20569   6.921   0.966   3.899  0.0227  0.1014  0.0278
 4436W        W20570  12.873   7.378   5.506 -0.1334 -0.0888  0.0533
 4437W        W20571   1.413  14.438  12.788 -0.0649  0.1063 -0.0327
 4438W        W20572   9.341   0.525  16.471  0.1006  0.0198  0.0724
 4439W        W20573  11.830   6.878   2.573  0.0515  0.1425 -0.0004
 4440W        W20574   8.154   3.272   3.247  0.0676  0.0054 -0.0161
 4441W        W20575   5.307   5.714   3.882  0.1161 -0.2422 -0.1292
 4442W        W20576  13.226  17.207   4.163  0.0917  0.0304  0.1843
 4443W        W20577   0.767   7.956  12.333 -0.4398 -0.2773 -0.0585
 4444W        W20578   5.644   8.506   0.391  0.2507 -0.1010  0.0930
 4445W        W20579   8.998   4.319   0.729 -0.2192 -0.0120  0.1827
 4446W        W20580  12.740   2.671   0.988  0.0488 -0.0896  0.0780
 4447W        W20581  17.164   5.952   4.423 -0.0047 -0.0157 -0.0070
 4448W        W20582  11.802  13.298   4.721 -0.2071 -0.0820  0.0247
 4449W        W20583   1.732  17.616   2.514 -0.0512 -0.1574 -0.2872
 4450W        W20584  12.030   0.521  15.261 -0.1132  0.1484 -0.0691
 4451W        W20585  16.263   5.765   0.010  0.1866 -0.3163  0.1484
 4452W        W20586  11.297  16.579  15.777 -0.0238  0.0360 -0.2155
 4453W        W20587   5.346   2.183   5.803  0.1668 -0.2060 -0.0461
 4454W        W20588  16.067   4.127   2.542  0.0686  0.5086  0.0408
 4455W        W20589   8.079   0.322  14.295 -0.2274  0.1412 -0.2333
 4456W        W20590   9.407   0.433   0.899 -0.3259 -0.2802  0.1692
 4457W        W20591   8.667   8.897   4.070 -0.2589 -0.2697  0.2910
 4458W        W20592  15.045  14.269   4.990  0.1432  0.1990 -0.2219
 4459W        W20593   2.242  15.834  15.281  0.1838 -0.1352 -0.1781
 4460W        W20594   3.149  12.371   0.268 -0.2547 -0.2486  0.0283
 4461W        W20595  15.898  11.789   5.711 -0.1919 -0.0702 -0.1883
 4462W        W20596   9.680   0.309   2.715 -0.2316  0.0745 -0.0663
 4463W        W20597  13.110  14.298  14.691  0.0810 -0.0268  0.4735
 4464W        W20598   2.216  16.328  12.828  0.1796 -0.2750 -0.2090
 4465W        W20599  12.520  11.359   2.785  0.2542  0.2967 -0.1656
 4466W        W20600   0.821   7.189  15.212 -0.0571 -0.5001  0.0967
 4467W        W20601  12.867   1.404   5.948  0.0160 -0.2190 -0.1999
 4468W        W20602  11.497   4.663   1.282 -0.0330  0.2829 -0.0237
 4469W        W20603  11.238  14.259   2.839 -0.1002  0.0055 -0.0094
 4470W        W20604   7.751   4.136  12.800 -0.1589 -0.2451 -0.1346
 4471W        W20605   2.298   5.643  12.364 -0.2472 -0.0552  0.0274
 4472W        W20606   2.009   6.943  13.749 -0.0522  0.1077 -0.1436
 4473W        W20607  16.150   8.298  13.094 -0.4742  0.3372 -0.1229
 4474W        W20608   7.247  10.609  16.154  0.0504  0.0919  0.0750
 4475W        W20609   5.172   3.358   5.351  0.0727 -0.0273 -0.1877
 4476W        W20610  12.799   8.289  14.521  0.0398 -0.2423  0.2152
 4477W        W20611   3.648  10.392   2.379 -0.0528  0.6591 -0.1130
 4478W        W20612   9.736  17.325   4.148 -0.2741  0.2217  0.4904
 4479W        W20613   4.236   9.892   3.055 -0.2547 -0.4329  0.3844
 4480W        W20614  11.855  17.632   0.147  0.1808  0.0641 -0.1912
 4481W        W20615  12.446   8.839  12.904 -0.2191 -0.1961  0.0029
 4482W        W20616  17.961   8.239  14.689 -0.1074  0.0727 -0.2876
 4483W        W20617  10.878   5.529   0.214  0.0138 -0.0186 -0.0353
 4484W        W20618  16.948  10.046   4.737 -0.3913 -0.1337 -0.4108
 4485W        W20619  15.414  15.383   4.152 -0.0544 -0.0286 -0.2715
 4486W        W20620  17.559   6.479   1.950  0.2533  0.2695  0.0700
 4487W        W20621   7.626   5.458  15.189 -0.0949  0.0956  0.1818
 4488W        W20622  12.609  18.018  16.489 -0.1465 -0.0246  0.1461
 4489W        W20623   0.348  11.249   2.671  0.0792 -0.1653 -0.3267
 4490W        W20624   9.425  10.636   0.616  0.3711 -0.1048  0.1436
 4491W        W20625   1.288   6.081   3.618 -0.1503 -0.3226  0.2394
 4492W        W20626   0.188   4.307   0.953 -0.0668 -0.1043 -0.1722
 4493W        W20627   1.628   4.243   1.883 -0.1234 -0.1825  0.1834
 4494W        W20628  13.357   0.700  13.402 -0.0075 -0.1139 -0.2793
 4495W        W20629  12.191   1.547  11.975  0.1348 -0.0989 -0.1602
 4496W        W20630  15.462   2.148   1.114 -0.2675  0.1228 -0.0323
 4497W        W20631  12.640  10.527  15.150  0.0346 -0.1684  0.2053
 4498W        W20632  13.595   5.436  14.667 -0.0002  0.0806 -0.0768
 4499W        W20633   7.505   2.846   1.941 -0.3779 -0.2088 -0.0111
 4500W        W20634   7.318   4.133   0.514  0.0297  0.0764 -0.1238
 4501W        W20635   0.840   4.597  13.400 -0.0299  0.1053  0.0924
 4502W        W20636   1.562  14.819   3.532 -0.2265 -0.1459  0.0815
 4503W        W20637   1.696   6.776   0.141 -0.0325 -0.2227 -0.2101
 4504W        W20638  12.765  14.040   1.745  0.1399  0.0013 -0.0011
 4505W        W20639  13.035   6.077  11.672  0.1036 -0.1035  0.1858
 4506W        W20640   2.411  12.901   4.365 -0.3222  0.0805  0.0081
 4507W        W20641   8.111   5.181   0.247 -0.2450  0.7466 -0.5649
 4508W        W20642   8.921  15.367  12.430  0.2542 -0.3084  0.2335
 4509W        W20643  13.629   8.381   1.207 -0.0503  0.3062  0.0869
 4510W        W20644  15.091   5.855   1.316 -0.1615 -0.2402 -0.1592
 4511W        W20645  15.143   2.134   5.615  0.1948  0.2037  0.0452
 4512W        W20646   5.331   9.803   5.276 -0.1221  0.1900 -0.2008
 4513W        W20647   9.695   2.327   2.795 -0.0833  0.2503 -0.3523
 4514W        W20648   6.179  17.153  12.725 -0.1120 -0.4655  0.1685
 4515W        W20649   5.114  14.506  15.666  0.1281  0.0973 -0.0933
 4516W        W20650  18.079  17.587  15.511 -0.3547  0.1729 -0.1084
 4517W        W20651  11.490   8.009  15.670  0.3512  0.2343 -0.0521
 4518W        W20652  13.126  12.652  12.484 -0.1469 -0.1609  0.1750
 4519W        W20653   9.553   9.388  15.478 -0.2668  0.2771  0.4197
 4520W        W20654  12.519   6.223  14.836  0.3409  0.0864  0.2597
 4521W        W20655  11.130   1.111  11.569 -0.0060 -0.3903 -0.2634
 4522W        W20656  14.269   8.785  14.340  0.1739 -0.1240 -0.0990
 4523W        W20657   5.934   7.386  16.103 -0.0009 -0.0956  0.0225
 4524W        W20658  11.415  17.554   0.883 -0.0818  0.0161 -0.1319
 4525W        W20659  12.349   1.396   2.317  0.0642  0.2595 -0.0314
 4526W        W20660   7.761   5.144   0.982 -0.1671  0.2224 -0.0317
 4527W        W20661  11.854  13.916   2.862 -0.1903 -0.0979 -0.1946
 4528W        W20662  12.673   1.724  13.240 -0.0134  0.1641  0.4206
 4529W        W20663  11.472   3.581  14.386 -0.0346  0.1541 -0.0829
 4530W        W20664  14.796  10.989  15.145  0.0928 -0.1379  0.0667
 4531W        W20665   5.906  15.098  11.818 -0.3668  0.1441 -0.0200
 4532W        W20666  13.398   1.638  10.859 -0.1570  0.1538  0.1028
 4533W        W20667  11.358   2.247  15.387 -0.2329 -0.0485 -0.0041
 4534W        W20668  14.837  17.816   3.586 -0.1115 -0.0773 -0.1268
 4535W        W20669   5.588   9.186  12.294  0.3639 -0.1620 -0.2418
 4536W        W20670   8.065   5.054  14.824  0.0281 -0.0369 -0.1589
 4537W        W20671  17.473   4.452  11.387 -0.0609 -0.0192 -0.0065
 4538W        W20672   0.051   1.438   4.273 -0.2528  0.3913 -0.2784
 4539W        W20673   0.240   8.891  11.105 -0.3171  0.4424  0.2553
 4540W        W20674  17.435  16.630  13.128 -0.3083  0.0882 -0.1990
 4541W        W20675  15.090   8.996  16.370  0.2643 -0.0077  0.1178
 4542W        W20676  14.064  17.296   0.807  0.2694 -0.2827  0.2442
 4543W        W20677   6.303  11.679   3.484  0.2735 -0.0631  0.1933
 4544W        W20678   9.668  17.426  12.428 -0.2438  0.1626 -0.0119
 4545W        W20679   2.284   2.779  13.315 -0.1398 -0.1037  0.1741
 4546W        W20680   4.442  14.348   3.928  0.1476 -0.0765  0.0134
 4547W        W20681   7.226  17.302   2.619 -0.2675  0.2028  0.2429
 4548W        W20682   0.328  17.892   5.593  0.2228 -0.1730 -0.4637
 4549W        W20683   0.645   3.646   1.549  0.0514 -0.1441  0.1933
 4550W        W20684   0.443  15.526   0.471  0.2641 -0.3122 -0.0663
 4551W        W20685   8.029   9.573  15.927 -0.2380  0.1027 -0.2189
 4552W        W20686  14.775  11.895  15.506  0.0226  0.1644  0.0434
 4553W        W20687   5.101  18.012  15.495  0.2304  0.1490  0.3176
 4554W        W20688   5.640  15.450  14.053  0.1512 -0.0077  0.1370
 4555W        W20689   7.278   7.952   1.948 -0.1475 -0.2099  0.0444
 4556W        W20690   9.843  13.188   3.100 -0.2390 -0.0102  0.2485
 4557W        W20691  12.767  17.544   0.131  0.3392  0.0829 -0.1258
 4558W        W20692   5.556   1.500   2.023 -0.0248 -0.1174  0.0817
 4559W        W20693   9.283  12.722   3.676  0.0228 -0.2175  0.0282
 4560W        W20694   9.861  14.390  11.719  0.0421  0.1435 -0.0135
 4561W        W20695  15.331   0.399  15.128  0.0803 -0.2405 -0.0191
 4562W        W20696  13.176   8.757  11.357  0.1548  0.1049 -0.2041
 4563W        W20697   4.326   9.287   9.995  0.4253  0.3948 -0.0832
 4564W        W20698  16.144  10.698   1.061  0.1802 -0.1923  0.3752
 4565W        W20699   4.605   2.753   0.610 -0.0797 -0.0132 -0.1103
 4566W        W20700   8.361   8.399   3.864  0.1368 -0.1325 -0.0013
 4567W        W20701  17.309  10.975   3.022  0.1431  0.0774 -0.1247
 4568W        W20702   9.780   1.246  16.159  0.0617 -0.0612  0.1924
 4569W        W20703  10.875   6.295   1.639 -0.3109 -0.2531 -0.0341
 4570W        W20704  16.357   2.775   2.455  0.0117  0.0370  0.2942
 4571W        W20705   1.919   9.868   4.443 -0.1965  0.2312 -0.1756
 4572W        W20706   9.345   6.224  11.102  0.0073  0.2970  0.1623
 4573W        W20707   2.642   0.936  14.540 -0.3206 -0.0024 -0.2079
 4574W        W20708   3.005   6.729   3.202  0.1863  0.2326 -0.2198
 4575W        W20709   2.601  15.523  13.000  0.2934 -0.1758  0.1395
 4576W        W20710  17.651  16.159  15.146 -0.0503 -0.1003  0.2681
 4577W        W20711   0.251   5.944  13.233  0.0802 -0.2582 -0.0927
 4578W        W20712  13.723   4.302   0.430  0.3120  0.1090  0.0338
 4579W        W20713   9.225   8.136   2.995  0.0089 -0.0839  0.0161
 4580W        W20714   6.153   8.539  13.078  0.2448 -0.0551  0.2428
 4581W        W20715   8.707   3.528   3.248  0.2523 -0.2328 -0.0980
 4582W        W20716   9.369  14.036   4.644  0.2300  0.1600  0.2098
 4583W        W20717   4.247   7.837   3.924 -0.1654 -0.5788 -0.0909
 4584W        W20718   5.039  11.439  11.167 -0.1083  0.2785 -0.2298
 4585W        W20719   4.437   6.066  11.380 -0.4117  0.0927  0.2933
 4586W        W20720   9.017   4.452   1.284 -0.0292  0.2804  0.1474
 4587W        W20721  17.230   0.345  16.405 -0.0581 -0.1710 -0.0846
 4588W        W20722   6.406  13.496   4.901 -0.1338  0.1603 -0.0877
 4589W        W20723   6.014  11.635  11.390  0.0990 -0.0726 -0.2381
 4590W        W20724   6.870   6.623  11.656  0.2648  0.1248 -0.0829
 4591W        W20725   7.069   3.983   5.081  0.1364 -0.0197  0.0395
 4592W        W20726  16.340   2.321   4.726 -0.2236  0.1094  0.0164
 4593W        W20727  13.879  12.247   2.827 -0.3056 -0.2802 -0.2510
 4594W        W20728   1.405   3.158   1.537 -0.1978  0.2041 -0.0115
 4595W        W20729  17.159  18.088   1.529 -0.1783 -0.0142  0.0774
 4596W        W20730  17.622  12.228   5.286  0.1186 -0.3103 -0.1348
 4597W        W20731   0.443   5.168  11.422 -0.1278  0.2331 -0.0644
 4598W        W20732   0.146   2.950   3.249  0.0986 -0.3193 -0.1209
 4599W        W20733   6.880  17.031  15.635  0.0544 -0.0694  0.0166
 4600W        W20734  11.787   8.677   3.922  0.3310  0.1362 -0.2009
 4601W        W20735  13.274   5.940   5.176 -0.1545  0.1048  0.0224
 4602W        W20736   1.645  17.151   5.307 -0.0253  0.2331  0.1200
 4603W        W20737   8.672  14.303  11.742  0.1893  0.1049 -0.0048
 4604W        W20738  12.539   8.823  11.793  0.0849  0.1717  0.0036
 4605W        W20739  14.889  14.293   0.894 -0.1748  0.1298 -0.0314
 4606W        W20740  10.146  13.758   4.028  0.0060 -0.1432  0.4165
 4607W        W20741   5.170   7.847  14.645  0.0797 -0.0415  0.2547
 4608W        W20742   2.741  10.052  10.702 -0.0080 -0.1644 -0.0536
 4609W        W20743   9.204   8.689  16.101 -0.0752 -0.3536 -0.2249
 4610W        W20744   4.586   0.045   3.190 -0.2995  0.0154 -0.0862
 4611W        W20745   6.327   9.867  16.019  0.0317  0.0725 -0.2383
 4612W        W20746   9.119   0.038  12.312 -0.0594  0.1036  0.2868
 4613W        W20747   8.291   7.110  11.023  0.2984  0.0082 -0.1058
 4614W        W20748  10.040  17.887  14.533 -0.1670 -0.0524 -0.0611
 4615W        W20749  14.372   6.776  15.312  0.0100 -0.0438  0.0412
 4616W        W20750   6.916  11.382   4.604  0.3561 -0.1728 -0.1171
 4617W        W20751   2.376  17.578  12.408  0.0282  0.0121  0.0305
 4618W        W20752   8.456  10.594  12.615 -0.0919  0.1406 -0.0777
 4619W        W20753   2.305  10.175   1.956  0.4945  0.1007 -0.3761
 4620W        W20754  15.940   7.352   5.264  0.0010 -0.0939 -0.2623
 4621W        W20755  10.272   9.393   3.914  0.1819 -0.1462  0.3143
 4622W        W20756  15.442   7.003   3.921 -0.2267  0.1231 -0.1765
 4623W        W20757  14.835  15.961  15.546  0.2206 -0.1963 -0.0547
 4624W        W20758   4.525  11.143   5.072  0.2015  0.0201 -0.2281
 4625W        W20759  12.420   5.328   0.957 -0.0991  0.2069 -0.1192
 4626W        W20760  10.282   9.386   0.755 -0.1214  0.1881  0.0953
 4627W        W20761   1.275   1.344   3.581  0.1949 -0.3761  0.2315
 4628W        W20762   9.294  15.688  15.500 -0.0176 -0.0709 -0.4835
 4629W        W20763   4.076  10.335   4.149 -0.1178 -0.3132 -0.1992
 4630W        W20764   2.207   4.857   2.390  0.1533 -0.0549  0.0594
 4631W        W20765   3.934   5.587   2.061 -0.1381  0.1103  0.2174
 4632W        W20766  10.767   9.340  11.777  0.3501  0.0742 -0.1073
 4633W        W20767   5.039  11.650  10.628 -0.1465 -0.0354 -0.0828
 4634W        W20768   0.150  15.425   1.371 -0.0248 -0.1819 -0.1857
 4635W        W20769   7.446  17.479   1.476 -0.2409 -0.3555 -0.0462
 4636W        W20770   6.121  17.918  16.493  0.0780 -0.6076  0.2298
 4637W        W20771  14.576   0.234  11.348  0.2112  0.2150  0.0754
 4638W        W20772  15.561  15.700   2.807  0.1430 -0.1835  0.1414
 4639W        W20773   1.032   0.301  11.619  0.1089  0.0327  0.0346
 4640W        W20774   0.075   1.493  14.208 -0.2415 -0.1872  0.2483
 4641W        W20775   3.948  13.672   0.067  0.2918 -0.4393  0.0383
 4642W        W20776  17.190   3.480   3.916 -0.0348 -0.1731  0.0480
 4643W        W20777  15.683   1.480  13.060 -0.0875 -0.1091 -0.3819
 4644W        W20778   9.638   1.598   0.436  0.1381 -0.1793  0.1504
 4645W        W20779   7.465   5.176   1.372  0.1890  0.1662  0.1305
 4646W        W20780   2.467   8.117  16.492  0.3888 -0.0723 -0.0652
 4647W        W20781  12.998  11.664  15.242 -0.2669 -0.1112  0.0046
 4648W        W20782   2.875  17.971   2.114  0.0293  0.2531  0.0240
 4649W        W20783   3.925  15.803  11.745  0.0598 -0.0558 -0.3584
 4650W        W20784   8.630   7.631   3.433  0.3368  0.1557  0.2201
 4651W        W20785   0.855   9.508  14.803  0.0959 -0.0611 -0.0487
 4652W        W20786   2.621   5.358   1.988  0.3177  0.1132  0.0655
 4653W        W20787   5.413   9.573  15.399 -0.0632 -0.2270 -0.0055
 4654W        W20788   3.793  12.918   0.469 -0.0921 -0.0328 -0.1237
 4655W        W20789  16.620  15.309   3.224  0.0288 -0.1680 -0.2644
 4656W        W20790   6.281   9.987   2.723 -0.1908  0.1679 -0.5244
 4657W        W20791  16.777   8.051  12.302 -0.2418 -0.0777 -0.2527
 4658W        W20792   8.515   3.329  14.215 -0.0951  0.0465  0.0560
 4659W        W20793   5.564  10.932  10.524 -0.0584  0.2435 -0.2424
 4660W        W20794  16.924   4.830   4.678 -0.0528  0.0137  0.3143
 4661W        W20795   3.137   0.192  15.569 -0.2698 -0.3329 -0.0714
 4662W        W20796  14.486   7.712  15.834  0.1231  0.0700 -0.0513
 4663W        W20797   5.111  13.448   1.507  0.0739  0.2498 -0.3731
 4664W        W20798   6.595  15.625   2.409  0.0402 -0.0247 -0.1361
 4665W        W20799   6.534  12.612  13.841 -0.2940  0.2620 -0.3842
 4666W        W20800   2.094  17.836   6.090  0.0396  0.2490  0.0751
 4667W        W20801  17.697   7.755  16.112  0.0037 -0.3688  0.0098
 4668W        W20802   4.596   0.195   3.995  0.2033  0.0359 -0.4248
 4669W        W20803  14.065  13.668  16.181  0.2028  0.2039 -0.0875
 4670W        W20804   2.308  16.062   3.028  0.2389  0.1595  0.0001
 4671W        W20805   5.119   4.642  11.078 -0.0690  0.2227  0.2579
 4672W        W20806  11.740   1.154   3.760 -0.1093 -0.1044 -0.1908
 4673W        W20807   6.169   4.891   4.953  0.3212 -0.2186 -0.2602
 4674W        W20808   5.904   0.257   4.728 -0.1299  0.0251  0.2122
 4675W        W20809  17.217  15.855  15.576  0.1594 -0.1992  0.0387
 4676W        W20810   6.542  11.338   3.225 -0.3269  0.2021 -0.1722
 4677W        W20811   8.121  17.792   2.826 -0.1281 -0.0976  0.0037
 4678W        W20812  14.859   3.262   3.315 -0.1267  0.2790 -0.1330
 4679W        W20813  12.731  17.322  13.562 -0.0359  0.0501 -0.0669
 4680W        W20814   2.427   7.827  13.312 -0.3381  0.0074 -0.2789
 4681W        W20815   0.213   8.577   5.926 -0.2194  0.2235 -0.0979
 4682W        W20816  14.004   7.153   1.818  0.1273  0.0525 -0.0396
 4683W        W20817   9.913  14.412  13.122 -0.0998  0.1329 -0.1506
 4684W        W20818  14.943  16.466   4.431 -0.5905 -0.0706 -0.0839
 4685W        W20819   0.753  14.054   2.205  0.0909  0.1136  0.0365
 4686W        W20820   1.684   5.293  15.868 -0.2010  0.0433 -0.2990
 4687W        W20821  11.186   2.992   4.569 -0.0929  0.0858 -0.0940
 4688W        W20822  13.953   7.848  11.175 -0.0587 -0.2088 -0.0801
 4689W        W20823  17.184  15.687  14.118  0.1512  0.2478  0.0471
 4690W        W20824  10.738   0.806  15.163 -0.0377 -0.0198 -0.1038
 4691W        W20825  17.008  14.340  13.839 -0.1194  0.0074 -0.1484
 4692W        W20826   2.492  10.444  10.937  0.0031  0.1291  0.0942
 4693W        W20827  17.490  15.599   1.531 -0.3143  0.0387 -0.2559
 4694W        W20828   6.254  14.714  14.233  0.2301  0.0684 -0.2648
 4695W        W20829   3.376  13.501  15.975  0.3233  0.1207  0.0321
 4696W        W20830  12.103   5.568   3.947  0.0145 -0.1239 -0.1802
 4697W        W20831  12.626  11.477  16.452  0.0014  0.1015 -0.0596
 4698W        W20832   2.057   3.231   5.890 -0.3761  0.1423 -0.1015
 4699W        W20833  13.215   7.372   2.027 -0.0639  0.0484  0.0832
 4700W        W20834   0.033   4.768   3.137  0.2587 -0.2372  0.0361
 4701W        W20835   4.102  15.069   3.778  0.0170  0.0332 -0.1495
 4702W        W20836   0.778   8.451  12.155 -0.0404 -0.0885  0.3394
 4703W        W20837  15.796  16.219   4.063 -0.0678  0.1444  0.0329
 4704W        W20838  17.417  10.500  15.491  0.2489 -0.1279  0.0762
 4705W        W20839   8.766   8.558  14.594 -0.4065 -0.0316  0.4462
 4706W        W20840   4.219  10.243  14.177 -0.0288  0.0934  0.1687
 4707W        W20841   7.063  17.905  16.067 -0.1289 -0.1461  0.0614
 4708W        W20842  10.671   3.227  16.192 -0.3165 -0.5140 -0.4598
 4709W        W20843   0.973   0.106  14.236  0.2342  0.0951 -0.1074
 4710W        W20844   7.975  11.690   2.138  0.1155  0.2813  0.1983
 4711W        W20845   9.221   9.856  16.505  0.2782 -0.0636 -0.1122
 4712W        W20846  11.602   4.230   1.569 -0.0099  0.2376  0.2266
 4713W        W20847   5.327  18.124  12.224 -0.0402  0.0333 -0.0428
 4714W        W20848  15.382   1.388   0.563  0.1310  0.1127 -0.0732
 4715W        W20849   5.080  13.177  13.787 -0.2415  0.1237  0.1297
 4716W        W20850  12.345   7.890  12.860  0.0615  0.2889 -0.1264
 4717W        W20851  16.801   6.928   1.744  0.1876 -0.3273 -0.0261
 4718W        W20852   1.843   3.010   5.505  0.2367  0.0301  0.0701
 4719W        W20853  10.847   4.063  15.942 -0.4346  0.0788  0.0665
 4720W        W20854  13.775   4.052  13.792  0.0019  0.2061  0.0051
 4721W        W20855   9.841  14.659   2.947  0.1640 -0.0610 -0.2311
 4722W        W20856   7.669  15.888  15.495 -0.1356 -0.1347  0.2547
 4723W        W20857   0.392   8.341  13.898 -0.0854 -0.1338 -0.0414
 4724W        W20858   1.683  14.439  11.456 -0.0671 -0.0177  0.2058
 4725W        W20859  12.871   3.155   1.179  0.2974 -0.1861  0.3589
 4726W        W20860  10.075  16.730   2.292  0.1539  0.0881  0.2619
 4727W        W20861   2.680  10.900   1.634  0.2010  0.1765 -0.0447
 4728W        W20862  11.449  12.131   4.441  0.3243  0.0801  0.0588
 4729W        W20863  15.958   6.578  15.438 -0.0478 -0.0331  0.4444
 4730W        W20864   7.447  16.668  11.758 -0.0440  0.1437 -0.0006
 4731W        W20865   2.094   6.656  11.822 -0.1982  0.0987 -0.2092
 4732W        W20866   4.639   2.992   3.221 -0.1527  0.1496  0.3073
 4733W        W20867  15.759  11.840   6.243 -0.2128  0.0303  0.2237
 4734W        W20868  12.390   6.145  13.348  0.4234  0.0255 -0.0212
 4735W        W20869  16.234  17.582   5.784  0.2418  0.2271 -0.2896
 4736W        W20870   7.207   8.728   3.405  0.1459  0.1711  0.0598
 4737W        W20871   0.158  11.375  12.251  0.2577 -0.2290 -0.0949
 4738W        W20872  10.292  14.148   4.385  0.1591 -0.1282  0.1592
 4739W        W20873   3.676   7.373   1.291 -0.0306  0.0125  0.3426
 4740W        W20874   0.881  17.621  13.214  0.1268 -0.0511  0.1119
 4741W        W20875  17.951   7.253  11.656 -0.2572 -0.0811 -0.1441
 4742W        W20876  15.783   1.127   6.014 -0.0054  0.3462  0.2882
 4743W        W20877  14.700   7.712  12.051  0.3106 -0.0589  0.1987
 4744W        W20878  12.509  13.705  13.705  0.3413 -0.2708 -0.0232
 4745W        W20879  13.055   9.113   3.347 -0.0329 -0.3565  0.5202
 4746W        W20880   0.825   6.270   3.355 -0.2047 -0.1800  0.0557
 4747W        W20881   1.042  14.932   3.010 -0.0778 -0.1975  0.0203
 4748W        W20882  18.057  13.700   1.780 -0.0358  0.1572 -0.0940
 4749W        W20883  12.248  16.759   4.467 -0.1256  0.0202  0.0312
 4750W        W20884   7.845  17.154  13.066 -0.0946  0.0443  0.0789
 4751W        W20885  10.942   2.392   1.195  0.0242 -0.0971  0.0225
 4752W        W20886   5.921  18.032   0.462 -0.1077 -0.1953 -0.0819
 4753W        W20887   2.719  10.393  12.977 -0.0385  0.2692  0.1745
 4754W        W20888  15.768   7.208  12.897  0.4415  0.1969 -0.0591
 4755W        W20889   4.572  14.490  15.659  0.1604 -0.3833 -0.2363
 4756W        W20890  12.749   4.683   5.176  0.1935 -0.2106 -0.1369
 4757W        W20891   8.424  18.088  15.543 -0.1205 -0.2303 -0.0060
 4758W        W20892   5.188   0.774   2.473  0.2095 -0.0839  0.2251
 4759W        W20893   5.901   8.714  13.683  0.2240  0.3304 -0.1489
 4760W        W20894   0.187   4.986  15.261 -0.0656 -0.1792 -0.1278
 4761W        W20895  14.228   5.326  12.940 -0.2401 -0.0946  0.0173
 4762W        W20896  17.342  13.326  14.911 -0.0487  0.3329 -0.5374
 4763W        W20897  10.291   0.734  12.947 -0.2832  0.4227  0.0401
 4764W        W20898  11.604   5.424  12.920 -0.1437  0.1712 -0.1901
 4765W        W20899   5.445  17.171  14.768  0.1520  0.1314  0.4616
 4766W        W20900   6.150   1.840   4.328  0.0460 -0.2185 -0.0497
 4767W        W20901   7.726   4.638  12.663 -0.1469 -0.1852  0.2537
 4768W        W20902  10.848  12.080  11.403  0.0285  0.1551  0.0533
 4769W        W20903   8.939  11.462   2.024 -0.0535  0.0654  0.3567
 4770W        W20904   9.772  10.772  15.030  0.0299  0.1931  0.1724
 4771W        W20905   5.834  12.980   2.894 -0.0822  0.0273 -0.0286
 4772W        W20906   4.560   7.589  14.492 -0.0334 -0.1195 -0.1617
 4773W        W20907  12.410   0.238  16.136  0.0501 -0.1144  0.1000
 4774W        W20908   4.455   7.048  13.735 -0.0454 -0.0983 -0.0292
 4775W        W20909  13.058   6.827  15.547 -0.0201  0.0734 -0.0265
 4776W        W20910  15.202   3.197   0.779  0.1544  0.0790 -0.1547
 4777W        W20911  14.634  12.895  12.297  0.1798 -0.2771  0.1155
 4778W        W20912  15.278   8.187   3.856  0.1414  0.0165  0.2381
 4779W        W20913   2.214  13.127   4.852  0.1217 -0.2479 -0.0075
 4780W        W20914   5.946   0.906  15.744  0.1260 -0.1212 -0.1890
 4781W        W20915   3.459  18.061   0.423  0.0890  0.1824  0.0674
 4782W        W20916  13.294  17.340  15.967  0.2757 -0.1598  0.1772
 4783W        W20917  11.524  14.771   1.004 -0.0963  0.0948  0.0093
 4784W        W20918   2.470  16.816  16.392 -0.0409  0.1808  0.1032
 4785W        W20919  13.759  11.603   2.414 -0.3109  0.3498 -0.0230
 4786W        W20920   4.762   8.190  13.823 -0.0469 -0.1790 -0.3512
 4787W        W20921  14.764  18.113   4.799  0.4218 -0.1406  0.1250
 4788W        W20922   0.255   7.518   5.670  0.2971 -0.0481 -0.3883
 4789W        W20923   8.428   8.135  15.303 -0.2191 -0.0771  0.2380
 4790W        W20924  14.949  12.602   0.727 -0.0954  0.2255  0.0392
 4791W        W20925   0.897  17.578  12.649 -0.4340 -0.2518  0.3984
 4792W        W20926  16.562   7.186  12.254  0.0153  0.0455 -0.2483
 4793W        W20927  11.022   2.602  15.409  0.1214 -0.0483  0.0513
 4794W        W20928   9.177  15.623   4.430 -0.0337  0.1395  0.0544
 4795W        W20929  13.362   2.972   1.230  0.0351  0.0843 -0.0804
 4796W        W20930   9.790  14.941  15.161  0.2891 -0.1779  0.0431
 4797W        W20931  11.992  11.364   2.415 -0.4177  0.0193  0.1586
 4798W        W20932   2.082   8.709   3.696 -0.3010 -0.2684  0.0093
 4799W        W20933   9.164  13.002  12.085  0.2578  0.3013  0.1210
 4800W        W20934  14.188  15.425   5.325  0.5095 -0.3208 -0.3635
 4801W        W20935   0.379  16.384  13.161 -0.0766  0.3191  0.2194
 4802W        W20936   0.227   0.075   0.520  0.1117 -0.4452 -0.0089
 4803W        W20937  13.738   8.763  15.869  0.3139 -0.1129  0.2588
 4804W        W20938  12.342  10.704  11.920 -0.1932  0.1637  0.0659
 4805W        W20939   9.027   9.001  12.327  0.0419  0.0454  0.0666
 4806W        W20940  13.312   1.127  13.747  0.2626 -0.0894 -0.1683
 4807W        W20941   4.683   7.193   3.191 -0.1998  0.1623 -0.1366
 4808W        W20942  10.951  17.496  14.130 -0.0274 -0.0526  0.0469
 4809W        W20943   2.861  10.881   4.162  0.1374  0.2245 -0.1043
 4810W        W20944   7.053   6.536  12.190  0.3802  0.0045 -0.0085
 4811W        W20945   0.193  17.019   0.812 -0.0264  0.0043  0.1512
 4812W        W20946   8.612   2.525   0.846 -0.4660 -0.1247 -0.0937
 4813W        W20947   6.832   6.346   5.603 -0.1417 -0.1088 -0.0245
 4814W        W20948   9.456   1.348   3.296  0.2741  0.1796  0.2748
 4815W        W20949  14.852  18.124  12.639  0.1873 -0.2255 -0.1827
 4816W        W20950  13.265   2.085   0.354 -0.0843  0.0621 -0.0902
 4817W        W20951   1.227   2.506   5.096 -0.0866  0.4191 -0.3324
 4818W        W20952  11.147  15.183  12.050  0.0414 -0.3824  0.2295
 4819W        W20953   2.884   0.829  12.703  0.0231 -0.0803  0.1833
 4820W        W20954   0.632   3.188  13.723  0.1585  0.1209  0.1129
 4821W        W20955   2.924  17.443  14.640  0.0603 -0.1896 -0.3161
 4822W        W20956   7.225   4.800   4.494  0.1062 -0.0575  0.3510
 4823W        W20957   5.848  15.361  12.565 -0.0537 -0.1061  0.0206
 4824W        W20958   0.141   6.773  12.003 -0.3772 -0.0233 -0.3888
 4825W        W20959   1.746  12.278  12.024  0.2327 -0.4341 -0.2173
 4826W        W20960  15.211   5.050  10.934  0.1567  0.1370 -0.5526
 4827W        W20961   2.476   6.065   1.215  0.1176  0.3506  0.0979
 4828W        W20962  10.790   6.182   5.504  0.3047  0.1482 -0.1867
 4829W        W20963  10.521  12.151   4.184  0.0037  0.1100  0.0548
 4830W        W20964  17.838   7.729   4.631  0.0541 -0.3764  0.0910
 4831W        W20965   0.132   9.894   0.381 -0.1568  0.0144 -0.1962
 4832W        W20966  12.293  15.729   0.510  0.2820 -0.1642  0.1063
 4833W        W20967   6.791  13.147  16.194 -0.3001  0.1100  0.3155
 4834W        W20968   5.968   9.411  12.654 -0.1087  0.0981  0.1529
 4835W        W20969   6.456  15.845   3.124 -0.0474 -0.0043 -0.2468
 4836W        W20970  16.795   7.574   3.541 -0.2073 -0.1290 -0.2648
 4837W        W20971  10.545   2.032   3.280 -0.0536 -0.0391 -0.3475
 4838W        W20972  12.337   4.480  11.967 -0.0003 -0.0129  0.0849
 4839W        W20973   3.378  11.684   4.796 -0.0522 -0.0417  0.1014
 4840W        W20974   4.460   9.936   0.400 -0.1525 -0.1048 -0.2886
 4841W        W20975  18.101   1.776  15.118  0.0931  0.0861  0.2112
 4842W        W20976   3.643  16.008  13.157 -0.1118 -0.1705  0.0581
 4843W        W20977  14.284  15.215  15.425  0.1637 -0.0967  0.3407
 4844W        W20978   9.575  17.611   5.458 -0.1793  0.1174 -0.1661
 4845W        W20979  14.922   9.475  14.061  0.0177  0.0893  0.1306
 4846W        W20980   8.486   4.339   4.099  0.0716 -0.0933  0.1158
 4847W        W20981  17.318   8.770  11.872 -0.0240  0.0861  0.0311
 4848W        W20982   5.567   8.974   5.156 -0.2708 -0.1929 -0.0946
 4849W        W20983   6.782  14.420  14.347 -0.2170  0.0039 -0.3981
 4850W        W20984  15.497   1.396  12.483  0.2163 -0.1226 -0.1279
 4851W        W20985  10.237  17.508   4.790 -0.0217  0.1851 -0.1030
 4852W        W20986  14.552   6.390   3.612 -0.1975 -0.0972  0.2506
 4853W        W20987   2.705   9.952  12.350 -0.0386  0.1731 -0.0232
 4854W        W20988  15.535   8.922  12.747 -0.2559  0.1487 -0.1798
 4855W        W20989  14.661  10.052  11.320  0.2397 -0.0909 -0.1828
 4856W        W20990   4.435  10.466   3.327 -0.2494  0.0644  0.1567
 4857W        W20991  14.184   3.480   1.411  0.0234  0.2155  0.2188
 4858W        W20992   1.611   2.401  13.664 -0.0452  0.4099  0.0082
 4859W        W20993   7.432  11.113  15.939  0.2240 -0.1244  0.0077
 4860W        W20994  15.593  11.715   3.727 -0.2155  0.2795  0.0470
 4861W        W20995   7.091  11.309  11.063  0.0725  0.1017  0.1159
 4862W        W20996   2.331  12.432  13.185 -0.0977  0.0604  0.0358
 4863W        W20997  12.231   8.921   3.762  0.2774 -0.1967 -0.1490
 4864W        W20998   6.355   6.987  12.683  0.0901 -0.0586 -0.0871
 4865W        W20999  16.373  14.954   4.629 -0.2682  0.0528  0.1987
 4866W        W21000   1.690  14.030   4.595  0.1790  0.0189  0.0643
 4867W        W21001   1.813   2.222   0.921  0.0884 -0.2987  0.1000
 4868W        W21002   6.403  14.956  16.397 -0.1815 -0.2628  0.4037
 4869W        W21003  12.893  11.960   3.444  0.0097  0.0834 -0.1812
 4870W        W21004  17.565  13.071   5.363 -0.1157  0.3293 -0.1601
 4871W        W21005  13.747  11.534  15.559 -0.2529  0.1307  0.3664
 4872W        W21006  10.746   9.585   1.662  0.0080 -0.0603  0.2756
 4873W        W21007  15.255   8.340   2.172  0.0365 -0.0974  0.0121
 4874W        W21008  11.343  16.160   3.114  0.0733 -0.2766  0.2435
 4875W        W21009  17.651   8.081  13.528  0.3062  0.0312  0.0593
 4876W        W21010   6.026   5.661   3.825  0.1722  0.2056  0.0851
 4877W        W21011  11.834   8.521  14.380  0.3416  0.1470  0.0362
 4878W        W21012   9.844  14.088   3.048 -0.1917  0.0262 -0.0562
 4879W        W21013  10.094   3.742   4.897 -0.2383 -0.0949  0.1643
 4880W        W21014  12.776   5.430   4.512 -0.3150 -0.0990 -0.2145
 4881W        W21015   7.748  16.932  15.337 -0.2300 -0.0351 -0.0983
 4882W        W21016   3.015  11.318  15.662  0.0766 -0.0280 -0.1577
 4883W        W21017  12.874   6.333  16.145 -0.0551 -0.3040  0.1581
 4884W        W21018  11.044  17.043   5.044 -0.3753 -0.0083 -0.0409
 4885W        W21019   0.774  15.287  12.706 -0.0304  0.2429  0.1426
 4886W        W21020   8.836  11.465  11.729 -0.1406 -0.0490  0.2486
 4887W        W21021   5.672   9.683   0.202 -0.2069  0.1747  0.2309
 4888W        W21022   7.134   2.257  14.578  0.0602  0.0623 -0.0451
 4889W        W21023  16.710  13.452   3.080  0.1374  0.2157  0.0800
 4890W        W21024   6.600  16.141   0.251 -0.3058  0.0061  0.3494
 4891W        W21025  13.052  10.317  13.373  0.1419 -0.0442 -0.0753
 4892W        W21026   9.268  15.969   6.046  0.2697  0.1229  0.1767
 4893W        W21027   4.646   7.670   0.982  0.0239 -0.3324  0.0340
 4894W        W21028  12.108   4.152   1.449 -0.0809  0.1599 -0.1602
 4895W        W21029  16.541   7.681   0.237  0.1628  0.3614 -0.1047
 4896W        W21030  10.936  10.393  13.816  0.1588  0.2321 -0.1431
 4897W        W21031  10.097   7.660   3.505 -0.2165  0.2025  0.1857
 4898W        W21032  13.728   1.108   5.573  0.0461  0.2618  0.0756
 4899W        W21033   4.323   3.692   3.314  0.0952  0.0859  0.0495
 4900W        W21034  17.912  18.145   1.561 -0.0160 -0.1125  0.3717
 4901W        W21035  10.186  16.513   1.898 -0.1092 -0.0252  0.0911
 4902W        W21036  10.293   7.283  14.214 -0.1415 -0.2678  0.0838
 4903W        W21037  15.879  12.069   1.371 -0.1311  0.0184 -0.1668
 4904W        W21038   0.120   8.452   3.348  0.0652 -0.2487 -0.1935
 4905W        W21039   3.935   9.116  13.405 -0.0959 -0.0542  0.0592
 4906W        W21040  16.194  14.721   1.000  0.0147 -0.0625 -0.0199
 4907W        W21041  13.350   8.532   1.748  0.1162  0.2962 -0.0401
 4908W        W21042   8.670   1.289  14.978  0.2088 -0.2667 -0.1302
 4909W        W21043   6.315   5.734  13.123  0.1999 -0.3241 -0.1914
 4910W        W21044  12.959  15.857  15.766 -0.0367  0.0681  0.0368
 4911W        W21045  12.991  10.730   2.516  0.0718 -0.0389 -0.1128
 4912W        W21046   5.041  15.243   0.308  0.1129  0.3920 -0.1299
 4913W        W21047   4.692  12.237   1.148  0.0765  0.1059 -0.1261
 4914W        W21048  13.432   9.355  14.219  0.1417  0.2624 -0.0623
 4915W        W21049   5.048   9.194   4.750 -0.0921  0.1324  0.1375
 4916W        W21050   8.790  10.397   0.161  0.1258 -0.1150  0.1258
 4917W        W21051  10.751  16.514   4.601  0.0236 -0.0689 -0.2020
 4918W        W21052   9.797   3.086   4.067 -0.2090 -0.0367 -0.3255
 4919W        W21053  12.804   4.806  12.817 -0.1363 -0.2290  0.1647
 4920W        W21054   7.455  15.699  11.502  0.0095 -0.1774 -0.2357
 4921W        W21055  13.086   6.787   0.853  0.4067 -0.2031 -0.0612
 4922W        W21056  10.937  16.860   4.242 -0.3311  0.0115 -0.1952
 4923W        W21057  16.326   3.864   0.448  0.2067 -0.0510  0.4077
 4924W        W21058  17.269  16.446  11.856  0.2281 -0.0889  0.0773
 4925W        W21059  12.404   1.531   6.176 -0.2981 -0.0370 -0.1280
 4926W        W21060  10.448  16.882  15.569  0.1289 -0.0695  0.0203
 4927W        W21061  10.673   8.410   9.883 -0.2807  0.0137 -0.2586
 4928W        W21062  10.518   5.925   0.180  0.1896 -0.2265 -0.2471
 4929W        W21063   5.016   1.388   0.286  0.1016 -0.1889 -0.1746
 4930W        W21064   1.855   6.724   1.070 -0.0024  0.1440  0.1470
 4931W        W21065   1.564  12.149   0.793  0.1580  0.3142 -0.1707
 4932W        W21066   9.892   8.216   0.390 -0.1207  0.2364  0.1728
 4933W        W21067  11.873  12.015  12.353  0.0802  0.2078  0.0737
 4934W        W21068   1.772   0.762  16.101  0.0772  0.3388  0.0470
 4935W        W21069   3.780   0.881   3.995  0.2291 -0.3866  0.0871
 4936W        W21070   8.411  12.172  13.383  0.2356 -0.0563 -0.0233
 4937W        W21071   0.846   1.030  12.149  0.0066 -0.0758  0.3596
 4938W        W21072  13.413   7.429   0.501  0.1236 -0.0762  0.0177
 4939W        W21073   5.839   6.838   1.881  0.0885  0.0580  0.1094
 4940W        W21074  10.118   5.306  14.822 -0.1347 -0.6232  0.0580
 4941W        W21075  16.321   1.010   1.748  0.0349  0.2913 -0.2203
 4942W        W21076   7.006  13.173   4.220  0.0207  0.0684 -0.0312
 4943W        W21077  14.485   0.364   0.136  0.0048  0.0180 -0.0293
 4944W        W21078  10.253   1.631  14.613  0.2316 -0.1135  0.1721
 4945W        W21079   1.825   0.364  13.677 -0.1674  0.2222 -0.1759
 4946W        W21080  12.211   9.345   0.409 -0.4673 -0.0471  0.1207
 4947W        W21081   3.994   9.402  11.259  0.2721  0.0428 -0.3104
 4948W        W21082   8.789  16.789  16.507  0.2869 -0.3499 -0.0851
 4949W        W21083   1.365  18.101   0.185  0.0237  0.0326  0.1466
 4950W        W21084  10.519  14.171  13.057 -0.0714 -0.0402 -0.1534
 4951W        W21085  10.305   4.924  11.904  0.0407 -0.2653  0.1069
 4952W        W21086   7.381   4.000  12.248  0.0348 -0.0241 -0.0126
 4953W        W21087   4.179   7.455  13.613  0.0910 -0.1982 -0.1754
 4954W        W21088   5.484   2.267   5.259 -0.2157 -0.0085 -0.0103
 4955W        W21089  15.857   4.812  11.855  0.0876  0.0780  0.0754
 4956W        W21090   2.895   6.695   1.798  0.2201  0.1999  0.0071
 4957W        W21091   0.088   0.250  14.622 -0.0530  0.1907 -0.5399
 4958W        W21092   8.522  15.827   4.313  0.2809 -0.0661  0.1180
 4959W        W21093   2.787   9.553  10.636 -0.0446  0.0608 -0.1222
 4960W        W21094  18.080  13.592   2.291 -0.0060 -0.2974  0.1781
 4961W        W21095   2.774  17.147   5.065  0.0056  0.0671 -0.0756
 4962W        W21096   0.587  17.298  14.984 -0.3204 -0.1174 -0.0323
 4963W        W21097  10.871   1.578   2.351 -0.0885  0.0097  0.0982
 4964W        W21098  14.523  16.207   4.634 -0.1407 -0.1262  0.0365
 4965W        W21099  17.487  17.578   2.746  0.2103  0.1225  0.3008
 4966W        W21100   4.037   3.211   5.255  0.0851 -0.2510 -0.0530
 4967W        W21101   3.817  17.032   3.204 -0.1146  0.0624 -0.1087
 4968W        W21102   4.863   8.085  12.678 -0.1074 -0.1135 -0.0663
 4969W        W21103   5.884   9.773   4.596  0.0844  0.0221 -0.0634
 4970W        W21104  17.384  11.277   4.567 -0.0682  0.0448  0.0819
 4971W        W21105  14.155   8.679   4.116 -0.3214  0.0026 -0.2573
 4972W        W21106  10.661  17.340  12.100 -0.2569  0.0022 -0.0870
 4973W        W21107  11.627   9.205  13.614 -0.0279 -0.1071 -0.1042
 4974W        W21108   9.394  10.897   3.860  0.0726 -0.0077 -0.2800
 4975W        W21109  12.833  11.031  16.542 -0.0231 -0.2787  0.0107
 4976W        W21110   4.334  10.057  14.610 -0.0689  0.1434  0.1458
 4977W        W21111   4.596   4.034  13.556  0.3223  0.0312  0.1054
 4978W        W21112   0.208   3.141   2.728  0.0528 -0.1496  0.2365
 4979W        W21113   7.906   0.552   2.593  0.1826 -0.1512  0.0588
 4980W        W21114   7.574  11.901  12.957  0.1969  0.0208  0.0861
 4981W        W21115  16.302   5.010   3.470 -0.0413 -0.0205 -0.3608
 4982W        W21116  14.168   0.274  14.100 -0.2209  0.0590 -0.3643
 4983W        W21117   3.501  12.324   3.730 -0.1197  0.1476 -0.1331
 4984W        W21118   3.365   6.746   5.180 -0.3866  0.0033 -0.1715
 4985W        W21119   9.182   6.075  12.847  0.0187 -0.3267  0.2487
 4986W        W21120  15.228   4.430  11.468  0.0668 -0.1375 -0.1987
 4987W        W21121   1.749   7.230   1.032  0.2139 -0.0585  0.1148
 4988W        W21122   7.975  15.909   5.383 -0.1211 -0.0125  0.1919
 4989W        W21123   1.384   3.633   4.366  0.0188 -0.3336  0.0389
 4990W        W21124  14.781  15.878   4.991 -0.2228  0.0276 -0.3027
 4991W        W21125   0.216   9.371  13.338  0.2185  0.2562  0.3098
 4992W        W21126  10.612   0.723  16.279  0.2685 -0.3140 -0.2931
 4993W        W21127   8.601  12.217   3.064 -0.1366  0.0832 -0.0384
 4994W        W21128   5.476   2.537   0.728 -0.0290  0.1839 -0.0189
 4995W        W21129   4.153  15.770   2.111  0.0071  0.1817 -0.2904
 4996W        W21130   9.737   7.001  15.529  0.1095  0.0854  0.0198
 4997W        W21131  15.531   5.589   3.154  0.3047  0.0388 -0.1867
 4998W        W21132  13.016   9.164  11.139 -0.2718 -0.1933 -0.2143
 4999W        W21133  17.524  17.412   5.660 -0.3524  0.0687  0.3210
 5000W        W21134  16.797   4.267   3.571  0.0592  0.1474  0.0412
 5001W        W21135   6.028  11.531  10.915  0.3528  0.3322 -0.1509
 5002W        W21136   4.427   9.233  12.170 -0.2055 -0.1152  0.0954
 5003W        W21137  12.202   4.536  13.640 -0.1600 -0.1598 -0.1170
 5004W        W21138  16.649  14.560  15.771  0.0617 -0.1128 -0.0626
 5005W        W21139   4.027  13.316  15.045 -0.0004 -0.2563  0.0023
 5006W        W21140  12.821   6.020  13.109 -0.0887 -0.3386  0.1912
 5007W        W21141   5.504  16.148  16.411  0.0137 -0.1820 -0.1124
 5008W        W21142   0.795  15.086   4.638  0.1044  0.5136  0.2275
 5009W        W21143   1.937  15.751   3.264  0.0286  0.1958 -0.0808
 5010W        W21144   4.268   7.890   1.884  0.0698 -0.0449 -0.1118
 5011W        W21145   0.150   1.992   4.916  0.1924 -0.0762  0.0595
 5012W        W21146   0.829  15.080   1.962 -0.0193 -0.0775 -0.2785
 5013W        W21147   5.122  10.159  11.767 -0.3372 -0.2004  0.3182
 5014W        W21148   9.657   8.660  13.604  0.2727 -0.2762 -0.0063
 5015W        W21149   3.694   1.784   1.848  0.1396 -0.1430  0.0492
 5016W        W21150   3.769   3.241   1.833  0.0220  0.1355  0.2199
 5017W        W21151   2.596   3.631   1.024 -0.0911  0.1129 -0.1181
 5018W        W21152  17.127   0.853   1.942  0.0472 -0.1087  0.0107
 5019W        W21153   1.508  10.319   2.516  0.1725 -0.0321 -0.0878
 5020W        W21154   7.907   8.058  15.229  0.0805  0.1220 -0.0333
 5021W        W21155   7.293  13.703   3.532  0.0303 -0.1427  0.4139
 5022W        W21156  10.819  17.497   1.729  0.0465 -0.0151  0.0204
 5023W        W21157  16.107   4.547   2.806 -0.0794 -0.1076  0.0276
 5024W        W21158   7.561   4.657   3.067 -0.0299  0.1400  0.1303
 5025W        W21159   8.017  16.304   0.396  0.1889  0.2038 -0.1487
 5026W        W21160   3.742   7.063  16.228 -0.2185 -0.3191 -0.0760
 5027W        W21161  13.190   8.831  15.748 -0.2314  0.3678  0.0216
 5028W        W21162  14.087   9.232  13.087 -0.0318 -0.0589  0.0354
 5029W        W21163  16.227   1.442   3.277 -0.0606 -0.4485 -0.1228
 5030W        W21164   3.231   3.080   3.444  0.1499 -0.0542  0.1804
 5031W        W21165  17.085   1.033  15.306 -0.0089 -0.2224 -0.2807
 5032W        W21166  16.773   6.764   0.257 -0.2162  0.1796 -0.0614
 5033W        W21167   9.150  12.770  15.009  0.1659 -0.1353 -0.1500
 5034W        W21168   8.150   8.956   1.204  0.0316  0.1052 -0.0653
 5035W        W21169  16.020   1.050  14.964  0.1774 -0.0434 -0.0745
 5036W        W21170  16.474   4.420   2.332 -0.4066  0.0894  0.0592
 5037W        W21171  13.129  17.218  16.417 -0.2371 -0.1662  0.2406
 5038W        W21172  15.775   2.483  11.687 -0.2631 -0.0182 -0.0531
 5039W        W21173  18.050  15.347  12.216  0.0009 -0.0970 -0.1832
 5040W        W21174   7.657  15.961  11.851 -0.1656 -0.1535  0.2731
 5041W        W21175  18.162  11.648  14.474 -0.0067 -0.1211 -0.0346
 5042W        W21176   5.700  11.990   1.205  0.2437 -0.3048  0.4453
 5043W        W21177  13.616   0.777   3.181  0.0442  0.2073 -0.0386
 5044W        W21178   0.153   9.804  11.760 -0.1474  0.1203  0.2158
 5045W        W21179  11.718   3.741   0.840  0.1206 -0.1267 -0.1141
 5046W        W21180   6.076   1.284   0.487  0.0675 -0.2420 -0.1438
 5047W        W21181   4.080  15.309  16.205 -0.1985  0.2044  0.1593
 5048W        W21182  15.940   4.077  13.886 -0.0226 -0.3306 -0.3176
 5049W        W21183   9.681   7.453  10.847  0.2685  0.2140  0.4001
 5050W        W21184   3.429  15.731  16.170  0.2060 -0.2461  0.0420
 5051W        W21185   4.968   4.344  13.424 -0.2256  0.2033  0.1638
 5052W        W21186   1.482   9.948  11.348  0.0318  0.2331 -0.2280
 5053W        W21187  13.614  14.939  13.482 -0.0748 -0.1117 -0.2458
 5054W        W21188   2.815   7.148  11.903  0.0446 -0.0250  0.0238
 5055W        W21189   7.555   0.822   2.816  0.2686  0.1384  0.1654
 5056W        W21190  14.458  10.198   3.314 -0.0234  0.0259  0.2599
 5057W        W21191  14.586   0.872   4.808 -0.2485  0.0191  0.0181
 5058W        W21192   8.310   5.881  11.803 -0.0732 -0.1542 -0.0950
 5059W        W21193   0.394  10.244   3.679  0.0056  0.1480 -0.0583
 5060W        W21194   0.122   9.302   4.553  0.1103  0.0854 -0.0129
 5061W        W21195   3.500  10.942  12.043  0.0892  0.0172 -0.2520
 5062W        W21196  17.391   1.540  16.105 -0.3028  0.0924  0.2918
 5063W        W21197  14.300   9.212   0.404  0.2279 -0.0750 -0.0541
 5064W        W21198  13.375   7.534  14.877  0.0661 -0.1133  0.0935
 5065W        W21199   3.245   1.654   1.609 -0.2386  0.2193  0.0110
 5066W        W21200   5.320   4.687   5.095 -0.3266 -0.2100  0.0174
 5067W        W21201   4.467   7.205  15.292 -0.0659  0.3400 -0.1136
 5068W        W21202   1.015   2.294  15.734 -0.2597  0.1411 -0.2813
 5069W        W21203   2.158   4.235   3.653 -0.2473  0.0230  0.0939
 5070W        W21204   1.915  11.963  14.529  0.0456  0.2242  0.2753
 5071W        W21205   0.022   2.146  14.739  0.0553 -0.1586  0.0219
 5072W        W21206   7.552  13.857  12.678  0.1416  0.1918 -0.1359
 5073W        W21207   2.096  11.338   1.827 -0.2619  0.0629 -0.2106
 5074W        W21208  15.759  16.116  13.396  0.2127 -0.0945  0.0699
 5075W        W21209  10.744  12.301  15.269  0.0257  0.0489  0.0398
 5076W        W21210  15.518   0.756   3.541 -0.4092 -0.0966 -0.1735
 5077W        W21211   6.218   7.698   1.378  0.0880  0.3392  0.1228
 5078W        W21212  11.949   2.091   3.502 -0.1289  0.2744  0.0664
 5079W        W21213   6.600   9.691   1.957  0.0644  0.1007 -0.0834
 5080W        W21214   5.028   5.267   1.967 -0.0257 -0.0948  0.0351
 5081W        W21215  16.804   0.495  11.201 -0.2318  0.1525  0.0943
 5082W        W21216   2.180   7.599  11.622  0.0227 -0.0047 -0.1656
 5083W        W21217  11.362  15.616  12.225 -0.0339 -0.6363 -0.0334
 5084W        W21218   0.864   8.226  11.015  0.1167 -0.0802  0.1144
 5085W        W21219  13.609  13.971   6.345  0.1762  0.2129 -0.2984
 5086W        W21220   7.223   4.344   3.357 -0.1469  0.1596 -0.1491
 5087W        W21221   7.349   8.820  13.477 -0.3431 -0.0694 -0.1825
 5088W        W21222   5.411  15.265   4.462  0.0352  0.0333  0.4850
 5089W        W21223  14.727   9.252   1.306  0.6192  0.0626 -0.1880
 5090W        W21224  17.186   5.265  15.327  0.1598  0.3473  0.0896
 5091W        W21225  17.824   2.013   1.319  0.1972 -0.2253  0.0628
 5092W        W21226  11.974  13.977   0.586 -0.3659 -0.0762 -0.0237
 5093W        W21227  12.702  16.699   3.663  0.1570  0.1102  0.0061
 5094W        W21228  18.123  17.254  11.271  0.1617  0.0699  0.1189
 5095W        W21229   0.938  14.826   2.508 -0.2571 -0.3274  0.0759
 5096W        W21230  13.709   0.959  14.595  0.2902  0.1813  0.0119
 5097W        W21231  11.232   2.960   2.919 -0.1083 -0.2507 -0.1660
 5098W        W21232   1.204   4.942  14.549  0.1126 -0.0648  0.0327
 5099W        W21233  14.018   4.752  14.919  0.2691 -0.0275  0.1235
 5100W        W21234  12.519   1.527   1.819 -0.0930  0.2882  0.2971
 5101W        W21235  13.886   2.899   3.712  0.0804 -0.0011  0.1319
 5102W        W21236   1.118   1.320   2.539 -0.1512 -0.0500  0.0160
 5103W        W21237   3.096  12.973  13.597  0.1696  0.1516 -0.1764
 5104W        W21238  14.150  13.088  15.559 -0.1745  0.1003 -0.0827
 5105W        W21239   9.699  11.201  11.190 -0.2004  0.2784 -0.1068
 5106W        W21240  16.532  14.699   1.448  0.3551 -0.0172 -0.0058
 5107W        W21241   0.056  15.734  15.502 -0.1280 -0.4010  0.0520
 5108W        W21242   6.805  18.173  12.796  0.1288  0.0124  0.2729
 5109W        W21243  14.345  11.028   3.232  0.1161 -0.0896  0.2698
 5110W        W21244   3.918   2.075  11.935 -0.1694  0.0354 -0.0963
 5111W        W21245   1.046   2.780   1.647  0.1922 -0.1636 -0.0905
 5112W        W21246   8.422  16.345   2.336  0.1435  0.2294  0.1899
 5113W        W21247   1.098  17.602   0.148  0.1371 -0.2540 -0.1269
 5114W        W21248   6.764   8.344  11.366  0.0594 -0.0424  0.0138
 5115W        W21249  14.914  10.180  12.752  0.2818 -0.1842 -0.4284
 5116W        W21250   7.105   4.157   4.412  0.0160  0.1218 -0.2634
 5117W        W21251  18.027   2.970   3.763 -0.0331  0.2784  0.1078
 5118W        W21252  14.532  10.938  12.658  0.1530  0.2405 -0.2621
 5119W        W21253  17.990   4.454  11.618  0.0883 -0.3474  0.4923
 5120W        W21254   3.326   3.687  14.204 -0.0074  0.0356  0.0962
 5121W        W21255   1.570   0.458   1.701 -0.1597 -0.2342 -0.0540
 5122W        W21256  15.040   7.726   3.796 -0.0710  0.4510  0.3000
 5123W        W21257   6.076  12.951   4.169 -0.1064 -0.0423  0.0930
 5124W        W21258   6.248   8.146  11.675  0.2499  0.2874 -0.0983
 5125W        W21259  15.001   4.878  14.994 -0.2317 -0.3683  0.1303
 5126W        W21260   2.251  12.013  13.484 -0.2546  0.4847 -0.0920
 5127W        W21261  16.547  11.116  11.770  0.2594 -0.0058  0.4352
 5128W        W21262   7.714   0.035   4.783 -0.2750  0.0352  0.0485
 5129W        W21263  13.978  11.253   4.649 -0.0006 -0.0519 -0.2523
 5130W        W21264  14.680   9.011  10.804  0.1816 -0.4673 -0.0460
 5131W        W21265   9.159   8.568  14.964 -0.2330  0.2378  0.0479
 5132W        W21266   6.791   3.449  13.894 -0.1569  0.4657  0.2967
 5133W        W21267   4.428  11.992   0.743 -0.1996  0.1424 -0.1498
 5134W        W21268  15.315   9.485  13.459 -0.0596  0.1087  0.0984
 5135W        W21269   2.571   3.041   5.118 -0.0160 -0.2307 -0.1000
 5136W        W21270  16.276   7.555  13.804  0.1809  0.0045 -0.1021
 5137W        W21271   5.032   2.096   3.297  0.0315 -0.1322  0.1425
 5138W        W21272   3.330   9.748  15.817  0.2741 -0.0262 -0.1512
 5139W        W21273  13.489   3.324   2.587  0.1077 -0.1004 -0.0402
 5140W        W21274  15.593   8.585   0.451 -0.1184 -0.1104 -0.2468
 5141W        W21275   3.761  16.694   1.651 -0.3835 -0.0226  0.0775
 5142W        W21276  16.386   6.595   3.129 -0.0590  0.3850 -0.2145
 5143W        W21277  10.783   1.910  11.770 -0.1879 -0.0371  0.1916
 5144W        W21278   7.364  11.021  12.486  0.0220  0.0753  0.4317
 5145W        W21279  11.033   8.709  13.146 -0.5263  0.2981  0.0544
 5146W        W21280  16.448  15.085   4.149 -0.1221  0.1298  0.1813
 5147W        W21281   6.981   8.403  14.999  0.4110  0.0534 -0.1463
 5148W        W21282   3.740   9.797   1.499 -0.0614 -0.2307  0.0178
 5149W        W21283   2.878   5.821   3.114  0.0733 -0.3706 -0.0377
 5150W        W21284   6.069  15.767  14.210  0.1266 -0.0353 -0.1748
 5151W        W21285  17.473   3.718  13.946 -0.1010  0.0602 -0.1608
 5152W        W21286   5.748  12.852  12.186 -0.2175  0.1395  0.0280
 5153W        W21287   8.578   7.801  14.066  0.1342  0.0679 -0.1567
 5154W        W21288   0.750   4.998   4.086 -0.0624  0.0706  0.2453
 5155W        W21289   8.646   3.022   3.950 -0.0022 -0.1753 -0.0354
 5156W        W21290  16.088   5.377   2.428  0.0826 -0.0556  0.1403
 5157W        W21291  15.947   3.333   4.277 -0.3260 -0.2373  0.0464
 5158W        W21292  12.873   6.124   1.316  0.0962  0.0966 -0.0206
 5159W        W21293   7.016  12.166   3.966 -0.0173 -0.2333  0.0515
 5160W        W21294  11.377   0.015  14.832  0.1653  0.2077 -0.0519
 5161W        W21295   5.207  14.823  13.086  0.1234  0.1069  0.0938
 5162W        W21296  11.974  15.552   3.382  0.1930 -0.0270  0.0791
 5163W        W21297   5.270  15.248  14.999 -0.1722  0.0136 -0.2269
 5164W        W21298   9.435   8.115   1.684 -0.2174 -0.4221 -0.0208
 5165W        W21299  15.957   9.515   1.627 -0.0446 -0.2051  0.0079
 5166W        W21300  15.459   0.028   1.178 -0.2423 -0.0345 -0.0465
 5167W        W21301  15.436  15.564   0.574  0.1284  0.2780  0.3576
 5168W        W21302   2.376  10.682   2.439 -0.3082  0.2444  0.0206
 5169W        W21303  16.205  13.590  16.240  0.1842  0.0925 -0.1397
 5170W        W21304  14.539   2.176   1.411 -0.0938 -0.1015 -0.0237
 5171W        W21305   5.708  17.141   1.466 -0.1901 -0.1231  0.0016
 5172W        W21306  14.841  17.347  16.198  0.2203  0.0050 -0.2160
 5173W        W21307  11.242   2.162   5.722 -0.2003  0.0883 -0.0589
 5174W        W21308  17.079  13.234   4.489  0.1255  0.0826 -0.2335
 5175W        W21309   6.117   5.984  13.719 -0.2587 -0.0403  0.1155
 5176W        W21310  17.053  10.429   1.838  0.0821 -0.0519  0.1398
 5177W        W21311   2.474  10.703  13.984  0.0164  0.1078 -0.0187
 5178W        W21312  10.597  13.260  15.155  0.1271 -0.1881 -0.1216
 5179W        W21313  11.988   3.695  13.280  0.0551  0.1331 -0.1203
 5180W        W21314   3.012   2.614   3.623 -0.1990  0.1723  0.0895
 5181W        W21315  13.657   5.470  14.174  0.0256 -0.0700 -0.1488
 5182W        W21316   6.502   1.865   4.761 -0.0333  0.0851 -0.1872
 5183W        W21317  14.274   6.221  14.372  0.0675 -0.0235 -0.0160
 5184W        W21318  12.670  10.456   4.590  0.2524  0.0500 -0.0853
 5185W        W21319   4.161   3.862   0.898 -0.2427 -0.0149  0.3267
 5186W        W21320  10.748  17.091   5.954 -0.3788 -0.0543 -0.3071
 5187W        W21321   0.404   1.568  10.612  0.2416 -0.0962  0.1684
 5188W        W21322  13.265   9.869   3.379 -0.0606 -0.0163  0.0697
 5189W        W21323   1.537   2.894  13.770 -0.0346  0.2478 -0.0579
 5190W        W21324   8.461  17.851   4.102 -0.0208  0.1632  0.0718
 5191W        W21325  15.102   7.967   0.752  0.0286  0.0640  0.0007
 5192W        W21326  14.313   7.058   2.426  0.0953  0.0703  0.2688
 5193W        W21327   8.532   2.820   4.404 -0.0722  0.2812 -0.0348
 5194W        W21328   8.372  15.866  11.460 -0.1989  0.0797  0.2353
 5195W        W21329   9.244   2.594   6.066  0.2937  0.1695  0.0396
 5196W        W21330   1.495   3.395   5.306 -0.0545 -0.4137  0.0236
 5197W        W21331  17.680   0.559   1.024  0.0201  0.1078  0.2248
 5198W        W21332  14.174   2.362  14.568  0.0922 -0.2867  0.1165
 5199W        W21333  13.788  16.623  13.693  0.1497 -0.1625 -0.1494
 5200W        W21334  11.699   5.791   5.376  0.1314  0.1251 -0.0636
 5201W        W21335  16.322   7.382  15.335 -0.0085 -0.1366  0.0151
 5202W        W21336   4.438  17.832   0.572  0.0416  0.0185 -0.0976
 5203W        W21337  16.532   0.783   3.321 -0.2490  0.1760 -0.3843
 5204W        W21338   5.796  11.098   2.189 -0.1219  0.2239  0.1019
 5205W        W21339  17.563  14.709   5.729 -0.0004 -0.1389 -0.0882
 5206W        W21340   6.892  15.799  13.066  0.2087 -0.1486 -0.2132
 5207W        W21341  14.439   3.499   3.264 -0.0614 -0.1917 -0.3421
 5208W        W21342   4.589  10.829  14.883  0.0799  0.0236 -0.3260
 5209W        W21343   1.356   7.342  12.809  0.2048  0.0740  0.3360
 5210W        W21344   1.564   2.282   1.352 -0.1090  0.3090 -0.2857
 5211W        W21345  13.561   3.546  14.480 -0.0583  0.0411  0.0410
 5212W        W21346  14.252   4.547   3.403  0.1626  0.0732  0.1368
 5213W        W21347   5.618   2.054  13.186  0.1279  0.1930  0.0556
 5214W        W21348  13.629  15.993   4.414 -0.0208 -0.1822 -0.2035
 5215W        W21349  17.507   4.041   0.834  0.0077 -0.1053 -0.0192
 5216W        W21350   3.356  16.389  15.285  0.0332  0.2574 -0.0050
 5217W        W21351  16.724   4.105  11.948 -0.1271 -0.0285  0.0003
 5218W        W21352  17.100   3.359   1.274  0.2638  0.0871  0.2249
 5219W        W21353   0.048   1.862  16.083 -0.2655  0.3260 -0.1152
 5220W        W21354   6.154   9.004  12.888 -0.0823  0.0026 -0.3841
 5221W        W21355   4.779   5.367   1.556 -0.3046 -0.1281  0.1628
 5222W        W21356   4.483   9.977  15.678  0.0303  0.0351  0.2876
 5223W        W21357  10.918  13.362  14.751 -0.0710 -0.0950 -0.2203
 5224W        W21358  12.771  11.768   2.584 -0.1125 -0.1537  0.0243
 5225W        W21359   6.026   8.494   2.643 -0.1965 -0.2253 -0.0546
 5226W        W21360   3.628   6.035   1.232 -0.0815 -0.0914 -0.1886
 5227W        W21361  16.233  10.310   4.124  0.1997  0.0484 -0.2277
 5228W        W21362   4.111  16.786   5.288 -0.1344 -0.1100  0.0169
 5229W        W21363   9.078   3.732   3.609 -0.3416 -0.1162 -0.1894
 5230W        W21364  12.989   8.201   4.202  0.3066  0.2499  0.0392
 5231W        W21365  14.586  12.537   0.265 -0.2361 -0.0780  0.0702
 5232W        W21366   2.527  10.988  11.356  0.0643 -0.3235 -0.2269
 5233W        W21367  17.946   6.895   0.879 -0.0356 -0.0494  0.0353
 5234W        W21368  17.096  15.794   0.330  0.2158  0.1900  0.1815
 5235W        W21369   8.561   7.152   4.056  0.2043  0.0946  0.0691
 5236W        W21370  15.459  13.847   4.121  0.1243  0.0975 -0.2398
 5237W        W21371   8.673  14.011  12.681 -0.0612 -0.3366 -0.0106
 5238W        W21372   8.215   8.402  13.833  0.3739 -0.2681 -0.1465
 5239W        W21373   7.566   0.310  10.651 -0.1302  0.1599  0.1039
 5240W        W21374  15.470  15.007   5.563 -0.2105  0.0758  0.2119
 5241W        W21375   7.103  12.176   2.468 -0.4099 -0.0941 -0.1859
 5242W        W21376   6.022   5.774  12.703  0.1005  0.0665  0.0297
 5243W        W21377   0.677   8.566   3.399 -0.3892  0.0981  0.1254
 5244W        W21378  12.742  13.964  15.105 -0.0262 -0.3267  0.1662
 5245W        W21379  14.793  10.365   4.216  0.1160 -0.0912  0.2456
 5246W        W21380   2.572   4.401   4.443  0.2471 -0.0367  0.0225
 5247W        W21381  12.527  12.000   3.868 -0.0421  0.4273 -0.1547
 5248W        W21382   9.267  11.209  11.504 -0.0407 -0.1459 -0.1528
 5249W        W21383   4.147   9.989   5.860 -0.0255  0.1388 -0.1314
 5250W        W21384  15.698  11.663  12.082  0.1801  0.1640  0.1370
 5251W        W21385   0.450  16.662  14.942 -0.3758  0.1368  0.0253
 5252W        W21386   6.693   5.254   3.654 -0.0499  0.0562 -0.0589
 5253W        W21387  11.006   1.432  12.934  0.0647 -0.1305  0.0882
 5254W        W21388  14.998   7.507   2.562 -0.0263 -0.3080 -0.0086
 5255W        W21389  10.221  14.708   0.284 -0.4971 -0.0537  0.1805
 5256W        W21390   9.693   4.336  14.158 -0.0887 -0.1683  0.0352
 5257W        W21391   1.267   2.247  13.267 -0.4195  0.1618  0.0030
 5258W        W21392  10.603  10.748   1.316  0.1731 -0.0505  0.1016
 5259W        W21393  14.461  13.573   3.848  0.1470  0.2149  0.1198
 5260W        W21394   9.101  16.689   5.401 -0.1193  0.2464  0.3255
 5261W        W21395   2.592   3.636  15.065 -0.3089 -0.1646  0.2169
 5262W        W21396   2.874   2.763   4.429 -0.2215 -0.0950 -0.0651
 5263W        W21397  12.651   7.203   2.035  0.0308 -0.2879  0.1849
 5264W        W21398   1.466   7.442  10.965  0.1025  0.2887 -0.0358
 5265W        W21399   5.622   9.265   1.138  0.0051  0.2576 -0.4546
 5266W        W21400  15.782   2.991   3.592 -0.3466 -0.1701  0.1814
 5267W        W21401   8.383  14.802   1.017  0.3601 -0.2597  0.0248
 5268W        W21402   6.106  15.721  16.102  0.2310  0.1232 -0.5180
 5269W        W21403  14.602   8.798   4.332 -0.0582  0.0599  0.0048
 5270W        W21404   8.167   4.389   6.304  0.0837  0.1030  0.1088
 5271W        W21405   0.590  15.926  13.247  0.2641  0.0328  0.1787
 5272W        W21406   9.476   3.271   4.503  0.2821  0.0473  0.1560
 5273W        W21407   5.272  13.786   5.662 -0.1048 -0.0745  0.0563
 5274W        W21408   3.193   7.370   1.411  0.0635 -0.0209 -0.1704
 5275W        W21409  14.570   9.051  15.992  0.3646  0.0254 -0.3014
 5276W        W21410   4.231  16.411  15.242 -0.0610  0.2058 -0.2951
 5277W        W21411  12.971   2.486   2.278 -0.0512  0.2945 -0.1922
 5278W        W21412   1.516   2.402   3.453 -0.1047 -0.1180  0.0445
 5279W        W21413  14.843  11.548   1.436 -0.1952 -0.1672 -0.0141
 5280W        W21414   1.157   7.074  14.291 -0.2538  0.3201 -0.4780
 5281W        W21415   0.855   7.813  12.940 -0.2492 -0.1131  0.1661
 5282W        W21416   6.126  16.697  13.020  0.0901 -0.0326 -0.1997
 5283W        W21417   3.586  11.542   5.327 -0.3556 -0.1080 -0.1087
 5284W        W21418  15.077  15.037  13.388 -0.1625  0.1787 -0.0323
 5285W        W21419  16.796   2.775   2.061 -0.0636  0.0766  0.0696
 5286W        W21420  14.447   4.824   2.712 -0.0414 -0.2307 -0.3259
 5287W        W21421   3.795  11.554  11.542  0.4176  0.2121 -0.2648
 5288W        W21422   0.164  10.357   0.145 -0.2253  0.3144  0.0634
 5289W        W21423   4.916  12.066  11.516 -0.2410  0.3903 -0.0282
 5290W        W21424   6.603  14.706  10.485  0.2491 -0.1257  0.1288
 5291W        W21425   0.611   9.968  16.279  0.1402  0.2370 -0.0153
 5292W        W21426   5.392  15.420  14.495 -0.1596  0.2267 -0.1383
 5293W        W21427   2.063   3.678   0.900 -0.2287  0.0543  0.0124
 5294W        W21428  12.433   2.756   5.306 -0.2843 -0.2426  0.5080
 5295W        W21429  12.442   3.178   4.815 -0.2156  0.1877  0.0686
 5296W        W21430  11.387  14.286  11.853 -0.0232  0.0739 -0.1023
 5297W        W21431  10.431   5.480   1.379  0.1023 -0.0848 -0.1282
 5298W        W21432   8.821   6.243   4.397  0.0232 -0.4348 -0.1048
 5299W        W21433   2.568   2.299   3.785 -0.0355  0.0444 -0.2044
 5300W        W21434  12.619  17.296   0.623 -0.0625 -0.2298 -0.2595
 5301W        W21435   0.010  13.259   1.524  0.3669  0.1116  0.1818
 5302W        W21436  10.590  16.126   3.162 -0.3545 -0.2708  0.0705
 5303W        W21437  10.505  13.634   3.663 -0.1623  0.0744 -0.2627
 5304W        W21438  14.723  15.646   6.789 -0.1441 -0.2777  0.2640
 5305W        W21439  13.813  14.755  15.099  0.2566  0.0045  0.0510
 5306W        W21440  18.095  11.396   0.354 -0.2963 -0.1412  0.1794
 5307W        W21441   0.404  11.652   0.635 -0.1984  0.0034 -0.0415
 5308W        W21442   4.313  18.096  16.283  0.2906  0.1419  0.0393
 5309W        W21443  14.163  16.860  12.854  0.2604 -0.0442 -0.0052
 5310W        W21444   1.133   7.527  13.776  0.0458 -0.0108 -0.0021
 5311W        W21445   4.290   5.074  15.369 -0.2339  0.0545 -0.4189
 5312W        W21446  16.598   1.115  11.671 -0.2111 -0.1149  0.0759
 5313W        W21447   7.237  14.078  13.807  0.0050  0.2194  0.1687
 5314W        W21448  17.952   5.317   2.466  0.1680 -0.2290  0.1903
 5315W        W21449  14.789   6.040   3.333 -0.0650  0.0805 -0.1739
 5316W        W21450   2.705  11.229   0.127  0.0087  0.4517 -0.0924
 5317W        W21451   5.672  12.200  12.617  0.0217 -0.0182 -0.0254
 5318W        W21452   2.198   0.463   5.483 -0.1963  0.4699 -0.3200
 5319W        W21453  15.131  15.665   6.298  0.2479  0.1232 -0.2188
 5320W        W21454  17.582   6.699   6.143  0.1120  0.4457 -0.0183
 5321W        W21455  12.104   7.737   1.357 -0.0047  0.0588  0.1142
 5322W        W21456   8.607   1.335   5.691 -0.1608  0.1163 -0.3116
 5323W        W21457   4.721  14.771  16.246  0.2280 -0.0921 -0.0951
 5324W        W21458   0.342  13.723   0.102 -0.1581 -0.1559 -0.0881
 5325W        W21459  14.907   8.082  14.388 -0.1291 -0.1381  0.1743
 5326W        W21460  15.420   0.811  12.411  0.1357 -0.4772 -0.2783
 5327W        W21461   0.799  13.977  14.510  0.1763  0.2329  0.1077
 5328W        W21462   5.650   3.450  15.327 -0.2368 -0.0390 -0.1055
 5329W        W21463   7.716   7.052  13.129  0.0118 -0.2761  0.0771
 5330W        W21464  17.222   2.146  12.793 -0.1561  0.0883 -0.0410
 5331W        W21465   2.894  12.973   5.609  0.3596 -0.1345 -0.1384
 5332W        W21466   2.711   1.004   2.842  0.2492 -0.0311 -0.1537
 5333W        W21467  14.626  15.253   5.490  0.2456 -0.0023 -0.2316
 5334W        W21468   3.075  13.719   2.852 -0.0096  0.0470  0.1147
 5335W        W21469  14.385   2.784  13.757 -0.0213 -0.2335 -0.0093
 5336W        W21470  10.280   7.416  12.029 -0.1418  0.0035 -0.3796
 5337W        W21471   4.664  16.069  12.405  0.2099 -0.2013  0.0255
 5338W        W21472   3.199  14.614   4.241  0.2711 -0.3374 -0.1503
 5339W        W21473  15.601  11.263   4.045 -0.0075  0.0432  0.0586
 5340W        W21474  14.464   3.735  11.964 -0.3717  0.0492  0.1393
 5341W        W21475  16.140   1.181  15.532  0.0185 -0.0772 -0.0174
 5342W        W21476  11.815   4.486  12.825 -0.1209  0.1952 -0.1261
 5343W        W21477   5.975  14.602  12.027 -0.1830 -0.0316  0.0378
 5344W        W21478  13.473  18.164   4.857 -0.1361 -0.1640 -0.0426
 5345W        W21479   3.417  14.204   2.335 -0.3095  0.0710  0.0372
 5346W        W21480   6.700   0.528   6.539  0.0476 -0.0192  0.0952
 5347W        W21481  14.384   5.909  14.796  0.4479 -0.0346 -0.0438
 5348W        W21482   7.612   9.771   1.862  0.0652 -0.1086  0.2427
 5349W        W21483  13.071  15.486   0.022  0.1615  0.1807  0.0291
 5350W        W21484   8.138   4.237  15.537  0.2227  0.1632 -0.0157
 5351W        W21485   8.486  17.501   3.751 -0.2401 -0.1591  0.2419
 5352W        W21486  12.816   6.522  12.716  0.0861  0.1339  0.2595
 5353W        W21487   6.865  11.731  12.696 -0.0582 -0.0426  0.1018
 5354W        W21488   7.488  14.899  12.719  0.0086 -0.0860 -0.1763
 5355W        W21489  14.921   9.702   2.991  0.1066  0.0797 -0.0108
 5356W        W21490   2.835  10.762  16.391  0.0218 -0.2842  0.1556
 5357W        W21491  10.891   0.667   2.937 -0.2156  0.3130 -0.1755
 5358W        W21492  16.187   2.581   3.014  0.1757 -0.0184  0.0423
 5359W        W21493   4.639   0.498   6.185 -0.1616  0.1347  0.0173
 5360W        W21494   0.537   0.266  13.319  0.1541 -0.1940  0.1334
 5361W        W21495  11.946  12.090   3.137 -0.1612 -0.0054 -0.0488
 5362W        W21496  12.966  11.720  14.566 -0.1075 -0.0935  0.0067
 5363W        W21497  16.750   2.944   3.441  0.0711 -0.2328 -0.0526
 5364W        W21498   0.144   5.930  14.970 -0.0256  0.2499  0.1334
 5365W        W21499   2.812  14.155   5.585 -0.0939 -0.1705  0.3855
 5366W        W21500   2.740   9.877  13.895  0.2502  0.2657  0.2703
 5367W        W21501  16.512   0.305   4.799 -0.0040  0.0409 -0.1223
 5368W        W21502   4.166   3.495   3.888  0.3401  0.3414  0.0891
 5369W        W21503  14.864   3.738  12.590 -0.2232  0.0290 -0.0219
 5370W        W21504   0.628   0.000   6.523 -0.0451  0.0726 -0.0302
 5371W        W21505   3.350   3.608   4.716  0.0197  0.0069 -0.2947
 5372W        W21506   2.963   8.291  16.474 -0.2316  0.0375 -0.1092
 5373W        W21507   8.213   5.899   2.720  0.0799  0.0260 -0.3564
 5374W        W21508   0.154  14.903  15.908  0.2180 -0.1192 -0.1040
 5375W        W21509   6.664  16.991   2.426  0.1018  0.1690  0.2303
 5376W        W21510   0.436   5.839  12.769  0.2482  0.4347 -0.1648
 5377W        W21511   1.247   4.846   2.667  0.2814  0.4441 -0.0589
 5378W        W21512  17.686  15.725   3.123 -0.0770 -0.1083 -0.0669
 5379W        W21513   6.511   6.854  10.756  0.1024  0.1376  0.1190
 5380W        W21514  17.034   1.195  15.857 -0.1073  0.1861 -0.2081
 5381W        W21515   5.390  10.114  11.281  0.1336  0.2360 -0.0276
 5382W        W21516   5.991  11.353  14.374  0.0721 -0.1568 -0.2540
 5383W        W21517  15.154  16.628  14.169  0.2245  0.1053  0.0590
 5384W        W21518  17.862   3.095  13.584 -0.0444  0.0324  0.0427
 5385W        W21519  10.059   9.192  10.673 -0.0594 -0.1864  0.1000
 5386W        W21520   6.086  17.585   4.662 -0.2769  0.1892 -0.0763
 5387W        W21521   5.340   9.730  10.634 -0.4298 -0.1935 -0.1310
 5388W        W21522   8.047   1.115  12.695  0.0585  0.4203 -0.0903
 5389W        W21523  11.336  15.764   2.562  0.1361  0.0007  0.3425
 5390W        W21524  14.900  11.170   0.893 -0.2041 -0.2087  0.0481
 5391W        W21525  17.498  11.771  16.404  0.3118 -0.1338  0.1052
 5392W        W21526  14.976  14.297   3.234 -0.0974  0.2440 -0.0922
 5393W        W21527   4.099  14.633  14.185  0.1716  0.1250 -0.1856
 5394W        W21528   3.829  14.894  15.938 -0.1440  0.1208 -0.0019
 5395W        W21529   4.005   2.476   4.703  0.2905  0.0031  0.2844
 5396W        W21530  10.630   4.187  13.830  0.1982 -0.1995 -0.1135
 5397W        W21531  17.708   4.494   5.482 -0.2670 -0.1213 -0.2467
 5398W        W21532   0.619  13.414  15.863 -0.0322 -0.2374  0.0701
 5399W        W21533  17.693  18.052  13.222 -0.0695  0.0348  0.1786
 5400W        W21534   6.222   9.778   0.207  0.0250  0.0418 -0.0852
 5401W        W21535  16.121   5.991   6.021 -0.1479 -0.2168  0.2166
 5402W        W21536   0.727  16.808  14.129  0.0002 -0.0208  0.1424
 5403W        W21537  15.121   1.398   6.289 -0.0055 -0.1330  0.2857
 5404W        W21538   6.001  16.087   1.676  0.0749  0.0245 -0.0916
 5405W        W21539   1.916   0.671   3.140 -0.1107 -0.0583 -0.1214
 5406W        W21540  15.599  10.756  14.585 -0.2602  0.0349 -0.1316
 5407W        W21541  17.853   0.128  12.080  0.0181  0.1647 -0.3440
 5408W        W21542  15.454   3.611  16.165 -0.2087  0.0425  0.0564
 5409W        W21543  18.096  13.334   4.509  0.0170 -0.0244  0.3769
 5410W        W21544   2.189  15.936   5.507  0.3052 -0.1546  0.0610
 5411W        W21545  10.857  18.013   0.462  0.5564  0.1727 -0.0742
 5412W        W21546  17.309  10.435  12.571  0.1522 -0.0414 -0.0418
 5413W        W21547   6.236  14.269  12.854 -0.0067 -0.0972 -0.3356
 5414W        W21548  11.952  16.539  13.195 -0.0343 -0.0763  0.0885
 5415W        W21549   4.593  17.875  12.593  0.2410  0.0763  0.2149
 5416W        W21550  14.225  17.970  14.979  0.1670  0.0958 -0.0761
 5417W        W21551   0.061   1.022   3.996  0.3197 -0.1286 -0.1166
 5418W        W21552   7.441  16.649  16.208  0.2899  0.2735  0.1899
 5419W        W21553   9.462   9.475  11.402 -0.5319  0.2657 -0.0568
 5420W        W21554   6.634  17.008  12.894  0.0554  0.2018 -0.0135
 5421W        W21555  16.408  15.730  13.159 -0.2453 -0.4574 -0.3205
 5422W        W21556  15.874  12.397   4.224 -0.0259 -0.1726  0.1558
 5423W        W21557  13.156   4.831   1.845 -0.0541 -0.0263  0.2407
 5424W        W21558   3.645  15.399  15.823  0.0728  0.0639 -0.2948
 5425W        W21559   8.596  13.027   0.511  0.1639 -0.0679 -0.1159
 5426W        W21560   0.849  13.913  12.594 -0.1396 -0.0477 -0.0612
 5427W        W21561   0.637  17.166  13.138  0.0389  0.2598  0.1266
 5428W        W21562  13.468  12.587  13.398 -0.0809 -0.4330 -0.2597
 5429W        W21563   2.387   0.003  14.183 -0.0667 -0.0827 -0.0093
 5430W        W21564   4.813  13.260  12.413  0.0762 -0.1189  0.0276
 5431W        W21565   9.018   5.660   3.237  0.1917  0.2530 -0.2106
 5432W        W21566   6.935  15.684   4.973 -0.0454  0.0556 -0.1083
 5433W        W21567   2.846  11.147   1.036 -0.6115  0.4391 -0.0095
 5434W        W21568  15.393   6.400  12.764 -0.1405  0.1664  0.0684
 5435W        W21569   3.391  16.437  13.957  0.3639 -0.0936  0.1353
 5436W        W21570   1.763   4.794  15.918 -0.1464  0.0397 -0.1870
 5437W        W21571   8.031  11.892  13.325 -0.0459 -0.0775 -0.1639
 5438W        W21572  13.524   0.070   4.219  0.0075  0.1265  0.1080
 5439W        W21573  14.199  11.458   1.717 -0.0716 -0.4717  0.2952
 5440W        W21574  15.872   7.796   4.368 -0.1221  0.2132  0.1903
 5441W        W21575   1.376   3.927   1.162  0.1415  0.1644  0.3571
 5442W        W21576  17.408  17.208   1.715  0.1368  0.0534 -0.3128
 5443W        W21577  12.589  13.612  16.370  0.1435  0.3565 -0.1174
 5444W        W21578  10.287   7.666  13.016 -0.0041  0.2181 -0.3558
 5445W        W21579  17.745  12.147  12.641  0.0025  0.1878 -0.0791
 5446W        W21580   5.869   6.961  15.847  0.1309  0.2706  0.3779
 5447W        W21581   3.445  16.158   5.827  0.0404 -0.0794 -0.1154
 5448W        W21582  11.993   5.655   0.929  0.6840 -0.0110  0.0659
 5449W        W21583   0.585   4.071  11.711  0.1550 -0.3014  0.2003
 5450W        W21584   5.600   1.135  11.885 -0.1442  0.1505  0.0714
 5451W        W21585  17.045   3.052  13.591 -0.1265 -0.1108  0.2731
 5452W        W21586   4.143   6.665  12.987  0.4069 -0.0220  0.0657
 5453W        W21587   3.474  12.528   0.687  0.1059  0.0366  0.2298
 5454W        W21588  12.134   0.412  15.760  0.0687  0.0249 -0.2049
 5455W        W21589   9.592   7.437  15.368  0.0005  0.2157 -0.4487
 5456W        W21590   9.582   9.240  14.302 -0.0130 -0.0865 -0.0218
 5457W        W21591   8.155   2.680   5.653  0.3172 -0.2233 -0.4318
 5458W        W21592   1.968   7.085  12.109 -0.2599 -0.3420 -0.1162
 5459W        W21593  13.743   9.624  14.987  0.0954  0.1346  0.0487
 5460W        W21594  12.017  13.423   1.547  0.1326  0.0608  0.0137
 5461W        W21595  12.257   6.438   1.665 -0.0418 -0.1278  0.1026
 5462W        W21596   1.513   9.157   5.192  0.0217 -0.0559 -0.0678
 5463W        W21597   2.288  13.630  11.733  0.2567 -0.0022 -0.2002
 5464W        W21598  17.882   0.267  15.608 -0.0403 -0.0398  0.0848
 5465W        W21599  12.584  18.014  12.747 -0.1146 -0.2000  0.1852
 5466W        W21600  14.687   3.480   0.018 -0.2756  0.1301 -0.0680
 5467W        W21601  11.756   9.734  11.510 -0.0736  0.0656 -0.3280
 5468W        W21602  16.140  14.389   4.691 -0.0658  0.1762 -0.1355
 5469W        W21603   9.508   8.331   0.682 -0.2275 -0.2492 -0.1057
 5470W        W21604  10.797   9.326   0.760 -0.3062  0.2240 -0.0661
 5471W        W21605  14.634  16.670   3.064 -0.1095  0.1544  0.1656
 5472W        W21606  10.412  10.735  12.073  0.0281  0.3075 -0.2302
 5473W        W21607  11.317  12.626  15.041 -0.0001  0.1281  0.1315
 5474W        W21608   6.785  15.479  12.672  0.0811  0.1006  0.0444
 5475W        W21609   7.026  12.671   0.638  0.0775 -0.1141  0.0533
 5476W        W21610  14.234  11.972  11.563 -0.0762 -0.1290  0.1048
 5477W        W21611   8.009   8.626   1.866  0.0107  0.0379 -0.0905
 5478W        W21612   8.437  16.858  13.796  0.1599 -0.0814 -0.2429
 5479W        W21613   7.968   6.834  12.201 -0.2403 -0.2259 -0.1489
 5480W        W21614  17.869  16.383   4.790 -0.0486  0.0554  0.2118
 5481W        W21615   9.949  11.705   4.236  0.2218  0.1798  0.3041
 5482W        W21616  11.348  14.803  13.453  0.0023  0.2049  0.0109
 5483W        W21617   3.588   7.820  14.182 -0.1590  0.0719 -0.0878
 5484W        W21618   5.549   7.329   2.236  0.0300 -0.0285  0.2558
 5485W        W21619  13.798  14.805  15.578  0.1886  0.1159 -0.1088
 5486W        W21620   5.213   4.920  10.227  0.1462  0.0959 -0.2768
 5487W        W21621  12.789   0.658  16.005  0.1858 -0.2533 -0.2030
 5488W        W21622   8.580  15.959   2.983  0.3727 -0.1270 -0.5717
 5489W        W21623   2.949  11.915   5.682  0.1779 -0.0432 -0.0941
 5490W        W21624  16.393   5.817   0.848  0.1692 -0.1222 -0.1486
 5491W        W21625  17.258   0.970  14.809 -0.1142  0.1360 -0.0222
 5492W        W21626   3.334  17.528   5.745 -0.0570  0.2881  0.0565
 5493W        W21627   4.030   2.296   2.002 -0.2201 -0.0628 -0.3794
 5494W        W21628  12.978   2.825  13.638 -0.0713 -0.0522  0.1955
 5495W        W21629   6.185   9.745  14.623 -0.3572 -0.0405 -0.1367
 5496W        W21630   5.930   1.212  14.793  0.1015 -0.2100 -0.1834
 5497W        W21631  17.461   7.532   1.620 -0.1400  0.0412 -0.1521
 5498W        W21632   6.541   5.850   0.563 -0.0910  0.0951 -0.0949
 5499W        W21633   6.458   5.647  13.945 -0.0029 -0.2016 -0.0459
 5500W        W21634   2.444  12.188   5.725  0.2595 -0.3184  0.1022
 5501W        W21635   2.521   5.657  12.774  0.2210 -0.1212 -0.2131
 5502W        W21636   4.651  13.104   4.491 -0.3100  0.1465  0.3261
 5503W        W21637  13.885   5.179   5.336  0.0431  0.1054  0.2560
 5504W        W21638  13.958  13.625   3.387  0.0110 -0.0122  0.1019
 5505W        W21639   6.858  13.909   0.880  0.0220 -0.0135  0.0069
 5506W        W21640   2.129   2.976  14.716  0.0729 -0.3810  0.0509
 5507W        W21641  15.873   6.678  12.616 -0.1532 -0.0237 -0.1136
 5508W        W21642   5.683   7.641  12.813 -0.6371 -0.0722 -0.1251
 5509W        W21643  15.999   8.716   3.523  0.2775  0.1160  0.2534
 5510W        W21644  13.962   3.879   0.657 -0.1122 -0.3447  0.1223
 5511W        W21645  12.856   6.826   4.308 -0.3333  0.1281 -0.0357
 5512W        W21646   3.192  15.895   2.839  0.4122  0.4016 -0.3523
 5513W        W21647  13.872  15.710  11.518 -0.0742 -0.0503 -0.1237
 5514W        W21648  10.465   0.730   2.685  0.0165  0.0521 -0.1373
 5515W        W21649  10.087   9.572   2.472  0.0540  0.0392  0.2949
 5516W        W21650   9.275   3.404   1.606 -0.2073 -0.1106  0.0768
 5517W        W21651   2.737  12.019   3.759  0.1138  0.0612  0.0458
 5518W        W21652  11.261   1.499   0.801  0.2353  0.0074 -0.0224
 5519W        W21653  10.604   0.998   4.549  0.1703  0.1783  0.2125
 5520W        W21654   9.485   3.600   4.038 -0.4406  0.1797 -0.3137
 5521W        W21655  10.396   8.549  11.497 -0.0023  0.1209 -0.3137
 5522W        W21656   9.004   9.763   3.497  0.1706 -0.0577 -0.0659
 5523W        W21657  17.568  13.300  14.441 -0.0710 -0.3161 -0.1475
 5524W        W21658   2.432  17.373  16.434  0.0351 -0.1373 -0.0933
 5525W        W21659   6.027  13.964   0.836 -0.4317 -0.0185  0.0166
 5526W        W21660   7.636  13.368   3.193  0.1525  0.3052 -0.1635
 5527W        W21661   0.990  11.748  16.033  0.0151 -0.2039  0.1950
 5528W        W21662   2.641   5.687  11.052  0.0821  0.2594 -0.0209
 5529W        W21663   6.040   6.081   4.408  0.3670  0.2646 -0.0248
 5530W        W21664  11.601   8.373   0.652  0.2529 -0.0170  0.0137
 5531W        W21665   8.907  12.293  14.352  0.0616 -0.0297 -0.0985
 5532W        W21666  12.987   3.198   2.852  0.3287 -0.1547 -0.0467
 5533W        W21667   5.306   2.080  11.733  0.0082 -0.1193  0.3778
 5534W        W21668   4.186  15.549  13.723  0.3927 -0.3682 -0.1920
 5535W        W21669  16.713   2.692   4.777 -0.2028 -0.3828 -0.1378
 5536W        W21670  10.630  17.762  14.484 -0.2537  0.0287 -0.1747
 5537W        W21671   2.337  14.990  15.309 -0.1246 -0.0074  0.0432
 5538W        W21672   8.755   4.351  14.675 -0.3005  0.1565  0.1165
 5539W        W21673   9.145   9.780   1.092 -0.2182  0.0951  0.0823
 5540W        W21674  12.016  15.455  15.181 -0.0127  0.1646 -0.0946
 5541W        W21675  15.589  15.620   1.580  0.2699  0.2199 -0.0363
 5542W        W21676  14.770   6.552  11.841  0.0190 -0.0462 -0.1587
 5543W        W21677  12.320   5.751  10.454  0.1644 -0.2177 -0.0878
 5544W        W21678   0.593  10.926  15.404  0.0226  0.1755 -0.2506
 5545W        W21679  17.331   0.320   2.311 -0.0704  0.1406 -0.2128
 5546W        W21680  10.852   6.039   0.571 -0.1650  0.2767 -0.0758
 5547W        W21681  10.898   9.787   4.699  0.0371  0.0097 -0.0770
 5548W        W21682  11.561   6.468  11.875 -0.2314 -0.0957 -0.2719
 5549W        W21683   3.798  16.443   5.554 -0.2718 -0.1091  0.1743
 5550W        W21684   0.200   5.954   2.114  0.1397 -0.0281 -0.2285
 5551W        W21685   1.706   0.594   5.130  0.2452 -0.0435  0.1381
 5552W        W21686   4.265   4.703  15.829  0.1699 -0.3178 -0.0486
 5553W        W21687  14.392  15.197   0.822  0.1249  0.1553  0.0793
 5554W        W21688   7.757  10.853  16.294  0.2614  0.0045 -0.0615
 5555W        W21689   3.609   2.043  13.185 -0.0349  0.2196 -0.2047
 5556W        W21690   2.778  13.695   4.450  0.2902  0.1246 -0.2593
 5557W        W21691   6.345   0.641  12.124 -0.0247 -0.0378 -0.0692
 5558W        W21692  12.728  14.960   5.118 -0.2652  0.1614  0.1305
 5559W        W21693   8.326  15.298  15.407  0.1976 -0.0386  0.1558
 5560W        W21694   9.397   3.459  16.021  0.1671 -0.1943 -0.2240
 5561W        W21695  10.954  10.722  11.073  0.0590  0.0305  0.0172
 5562W        W21696  12.499  11.539   3.626  0.2554 -0.0321 -0.0207
 5563W        W21697   0.456  12.313  13.060  0.2301  0.0849 -0.0697
 5564W        W21698   4.212   2.981  14.245  0.1915 -0.1388 -0.3655
 5565W        W21699   7.459   9.024   5.132  0.1925 -0.0924 -0.1466
 5566W        W21700   8.560   5.670   2.414  0.1389 -0.0622 -0.6910
 5567W        W21701   4.279  12.080  15.402  0.2644  0.0957 -0.0536
 5568W        W21702   3.462   1.968   5.524 -0.1552 -0.0997 -0.0321
 5569W        W21703   7.436  15.131   3.487  0.0582  0.0809 -0.2102
 5570W        W21704   1.922   3.905   1.697  0.0793 -0.1864  0.3761
 5571W        W21705  16.264  15.759   5.708 -0.2377 -0.0911 -0.2992
 5572W        W21706  11.640   3.361   1.823 -0.0832 -0.0861  0.1327
 5573W        W21707  17.825  17.963   3.446  0.2076  0.0819  0.1023
 5574W        W21708   9.351   4.136  11.587  0.0113 -0.0543 -0.1058
 5575W        W21709  10.665  13.168  11.186  0.0225 -0.1788 -0.1268
 5576W        W21710   2.153  11.078  15.729 -0.0859  0.1071  0.0703
 5577W        W21711  11.642   9.481  14.128 -0.0509  0.1177  0.1760
 5578W        W21712   0.243   9.200   5.009 -0.2914 -0.0418  0.0330
 5579W        W21713   5.348   1.778   3.530 -0.0215 -0.0467 -0.2491
 5580W        W21714   0.052  10.887  15.106  0.1220  0.5233  0.0790
 5581W        W21715  17.603  12.036   4.337 -0.0203 -0.0028 -0.2171
 5582W        W21716  13.515  13.523  14.653 -0.1780  0.2000 -0.3829
 5583W        W21717  10.311  12.470  15.506  0.2610  0.0025  0.0547
 5584W        W21718  12.387  16.037   0.897  0.3569  0.2533 -0.0849
 5585W        W21719   7.382   8.692   2.578 -0.1305 -0.1856 -0.1338
 5586W        W21720  17.228   3.836  12.050  0.1265  0.3349  0.1823
 5587W        W21721  11.480   7.139   5.503 -0.1185  0.0518  0.0030
 5588W        W21722  16.265   0.305   1.786  0.1131  0.1652  0.1262
 5589W        W21723  11.170   1.008   4.978 -0.0240  0.1807  0.0363
 5590W        W21724   3.768  17.082  14.423  0.0585  0.0217 -0.4134
 5591W        W21725   0.343  15.444   4.556  0.3952  0.0305 -0.1090
 5592W        W21726   1.117   6.157   5.847  0.0474  0.3924 -0.1280
 5593W        W21727   3.588  10.550  11.705 -0.0753  0.0898  0.0345
 5594W        W21728   0.517  11.857  16.214 -0.4266  0.2355  0.0489
 5595W        W21729   8.949   3.787   0.724  0.1345 -0.0697  0.0904
 5596W        W21730  12.199   9.551  12.373  0.4931 -0.1685  0.1700
 5597W        W21731  12.419   6.108   5.614  0.0672 -0.1372  0.1392
 5598W        W21732   8.941   8.261  15.856 -0.1018  0.0668 -0.0550
 5599W        W21733   9.315   0.200   1.860  0.1973  0.3732 -0.0142
 5600W        W21734   9.108   8.706  12.705  0.2532 -0.1696  0.0905
 5601W        W21735  14.745  13.800   2.292  0.0214 -0.0028  0.0824
 5602W        W21736  12.711  14.832  14.185 -0.3131 -0.1624 -0.0412
 5603W        W21737  11.124  10.360  15.752  0.0326  0.0102  0.0248
 5604W        W21738   5.231   9.465   0.333  0.3219  0.0735 -0.1915
 5605W        W21739   9.541  18.148  16.385  0.2323  0.0874  0.0951
 5606W        W21740   5.916  10.179  11.475  0.1553  0.0984  0.1160
 5607W        W21741   0.613  13.094   6.155 -0.0754  0.2213  0.1953
 5608W        W21742  12.712  12.453  14.903 -0.0615 -0.1884 -0.0413
 5609W        W21743  17.647  12.499  14.834 -0.0662 -0.0650  0.0676
 5610W        W21744  11.143   5.312  12.370 -0.0080 -0.1222 -0.1812
 5611W        W21745  10.503   3.727   4.519  0.0506 -0.0364  0.0240
 5612W        W21746  15.657  12.110   0.763  0.0799 -0.0493 -0.1102
 5613W        W21747  17.127  12.364   4.783 -0.0403  0.1300  0.0747
 5614W        W21748   2.820   3.674  13.182  0.0979  0.1870 -0.0115
 5615W        W21749   7.740   3.029  13.957 -0.0239  0.1538  0.1849
 5616W        W21750  13.313  16.657  13.562  0.0107 -0.2063  0.0556
 5617W        W21751  17.889   5.210   3.925 -0.0709  0.0615  0.0156
 5618W        W21752  15.771   7.871  13.666  0.3565  0.0004  0.2756
 5619W        W21753  12.841   3.098   0.633  0.1121 -0.0216  0.3259
 5620W        W21754   8.454  16.607  16.066 -0.1493 -0.1881  0.0369
 5621W        W21755   0.011  15.391   6.377 -0.0054  0.0683 -0.3045
 5622W        W21756   2.436   2.407  14.555  0.0002 -0.1995 -0.0765
 5623W        W21757   3.367   2.655  15.667  0.0802  0.1539  0.3352
 5624W        W21758   7.627  12.506  15.859 -0.2718  0.5899 -0.0817
 5625W        W21759  16.483  12.872   2.151 -0.2138  0.0217 -0.0632
 5626W        W21760   8.361   7.942   4.169 -0.0029  0.3768 -0.3467
 5627W        W21761   7.549  12.390  10.872 -0.1385 -0.1831 -0.0382
 5628W        W21762  18.062  14.555   4.921 -0.1715 -0.2708  0.2601
 5629W        W21763   6.197   8.321  16.188  0.1577  0.0037  0.0636
 5630W        W21764   7.516   8.453   1.896 -0.2366  0.0844 -0.3739
 5631W        W21765   2.979   8.645   1.871  0.0989 -0.2616  0.0472
 5632W        W21766  16.140   0.738  12.836  0.2477  0.3051 -0.1914
 5633W        W21767   3.446   7.277  14.709  0.0399 -0.0913  0.4338
 5634W        W21768  11.582   2.477  16.365  0.1367  0.1364 -0.1424
 5635W        W21769   7.433   9.173   2.996  0.1181 -0.0046 -0.0471
 5636W        W21770   3.867  11.951   2.665 -0.2474 -0.1686 -0.1739
 5637W        W21771   3.398  14.512  15.882 -0.1422 -0.3386  0.1796
 5638W        W21772  18.042   5.042   1.471  0.1806  0.1380  0.1471
 5639W        W21773  10.617   3.634   1.561  0.0656 -0.1586  0.1156
 5640W        W21774   5.933  14.393   4.773 -0.0705 -0.1502  0.0485
 5641W        W21775  16.255  18.075   3.343 -0.0233  0.2072 -0.0843
 5642W        W21776   6.847  13.088  14.160  0.2909 -0.1322  0.0386
 5643W        W21777   8.082   5.655  11.266 -0.0172 -0.1707 -0.1733
 5644W        W21778   9.427   9.815   4.282  0.1170 -0.1646  0.1048
 5645W        W21779  13.203   5.999   3.291 -0.1933 -0.0877  0.3235
 5646W        W21780  13.917  18.175  15.319  0.3429 -0.0687  0.4568
 5647W        W21781   9.468   4.136  14.836 -0.0067 -0.1661 -0.2317
 5648W        W21782  10.937  13.000   2.302 -0.0084  0.0783 -0.1446
 5649W        W21783   5.735  12.457   1.029  0.0056 -0.1928  0.0122
 5650W        W21784  12.481  17.217  14.406  0.2584 -0.0892  0.1630
 5651W        W21785   5.414   2.296  12.180 -0.0547 -0.0840  0.3551
 5652W        W21786   8.426  12.525  14.485 -0.2332  0.0263 -0.2353
 5653W        W21787   7.017  10.081  12.521 -0.1382  0.1754  0.0205
 5654W        W21788   7.378  11.496  12.731  0.1523 -0.3221 -0.2900
 5655W        W21789  17.259  11.393  11.566 -0.1165  0.0439  0.0321
 5656W        W21790  14.078   3.759  13.358  0.0258 -0.0816  0.0712
 5657W        W21791   5.058   6.876   2.961  0.4430 -0.1674  0.1199
 5658W        W21792   0.910   1.444  15.155 -0.1172  0.1474 -0.0561
 5659W        W21793   2.605  15.859  11.445  0.1816 -0.2314  0.0533
 5660W        W21794   5.850  14.103  16.417  0.1793  0.0404 -0.2121
 5661W        W21795   3.941   6.398   0.287  0.3168 -0.3556 -0.2353
 5662W        W21796   0.204   4.676  11.372 -0.1830  0.3221 -0.1580
 5663W        W21797  12.654   5.158   0.289 -0.4412  0.1637  0.1322
 5664W        W21798   7.297   1.295  16.422  0.3142 -0.2971  0.0820
 5665W        W21799  10.339  11.945  11.524 -0.1220 -0.1480 -0.1194
 5666W        W21800   7.384   9.911   0.157  0.2228 -0.0394 -0.2032
 5667W        W21801  16.633   5.021  12.541  0.3578  0.2453 -0.2838
 5668W        W21802  13.955   1.164  16.088  0.0007 -0.1915 -0.2351
 5669W        W21803  13.969  10.380   3.713  0.0322 -0.1865  0.2635
 5670W        W21804  13.959  11.818  13.274  0.1511  0.1849  0.0508
 5671W        W21805   1.310  10.913   3.760  0.1089 -0.0980  0.0214
 5672W        W21806  13.795  10.890   5.238 -0.1643 -0.1325  0.1933
 5673W        W21807   3.496  16.043  14.663 -0.0902 -0.1875  0.0651
 5674W        W21808   8.850   6.664   0.000 -0.0360  0.3004 -0.0009
 5675W        W21809  15.372   6.879  13.035 -0.2850 -0.2912 -0.0794
 5676W        W21810   0.980  13.138  16.212 -0.0315  0.1155 -0.4782
 5677W        W21811  15.301  14.221  13.405  0.2598 -0.1077  0.0457
 5678W        W21812  16.625   6.530   0.863 -0.1910  0.0213 -0.0689
 5679W        W21813  14.925  10.141   2.561  0.1536  0.0190 -0.1145
 5680W        W21814   9.661   6.129   2.973  0.2418 -0.1130 -0.2680
 5681W        W21815  17.070  11.818   2.428  0.0971  0.1588 -0.0722
 5682W        W21816   5.663   7.751   5.044 -0.1060  0.4664  0.1920
 5683W        W21817  13.913  11.619  12.396  0.4076  0.0382  0.0136
 5684W        W21818  10.446   1.558   1.487 -0.2911 -0.3632  0.2285
 5685W        W21819   2.406  17.353   1.397  0.1406  0.1517 -0.1579
 5686W        W21820   2.750  13.180   0.767  0.0501  0.3356 -0.0844
 5687W        W21821  16.113  18.046   2.883  0.2356 -0.0894 -0.0525
 5688W        W21822   8.434   9.621  15.085  0.1094 -0.1669  0.2673
 5689W        W21823  11.463  10.414   0.318 -0.1185 -0.1019  0.3687
 5690W        W21824   0.737  11.414  16.386 -0.2370  0.0276 -0.3186
 5691W        W21825  14.925   7.932   4.235  0.1889  0.0854  0.1141
 5692W        W21826  10.831   6.468  13.233 -0.0272 -0.2171  0.1660
 5693W        W21827   3.193  14.043  13.164  0.0848  0.0450  0.3505
 5694W        W21828   7.141   3.874  10.759 -0.1837  0.3429 -0.1094
 5695W        W21829   7.371  10.317   3.744 -0.0496  0.3839  0.1279
 5696W        W21830  11.311  16.602  15.204 -0.0035  0.1297  0.2409
 5697W        W21831   9.724   8.281  14.126 -0.0664 -0.2758  0.1167
 5698W        W21832   6.422   2.160   2.517  0.0822  0.2387  0.2888
 5699W        W21833   6.390   0.422   1.817 -0.2505 -0.3385  0.0769
 5700W        W21834  11.847   1.051   2.854 -0.0345  0.1502  0.1592
 5701W        W21835  17.759  10.342   3.563  0.3047 -0.3877 -0.0050
 5702W        W21836   6.506  12.991   0.312  0.3097  0.0053 -0.0396
 5703W        W21837  13.075   4.571   5.546  0.0775  0.1836 -0.1468
 5704W        W21838  16.479  12.812  14.020  0.1859 -0.0025 -0.0291
 5705W        W21839   3.495  13.544  14.748  0.0608 -0.1331  0.0360
 5706W        W21840   7.331  15.434  13.962  0.0320 -0.0352 -0.2584
 5707W        W21841  13.819   8.625   3.323  0.2218 -0.0961 -0.2088
 5708W        W21842  17.572  12.536   2.378  0.0843  0.2179  0.3392
 5709W        W21843   9.969  13.769  16.299  0.2239  0.2658  0.1138
 5710W        W21844   7.196   1.018  14.473  0.0938 -0.0573 -0.0625
 5711W        W21845   8.846   9.577  13.244 -0.0388  0.0562  0.1540
 5712W        W21846   1.083   2.981  12.736  0.1889 -0.0540  0.2530
 5713W        W21847   7.333  17.968   5.687  0.3370  0.0940 -0.1002
 5714W        W21848  16.353   9.240   4.860 -0.1546  0.1021  0.0468
 5715W        W21849   5.012   8.419  15.953  0.5145  0.0643 -0.0447
 5716W        W21850   5.933  12.562  13.061  0.0676  0.0722 -0.1163
 5717W        W21851   8.243  16.143  16.049  0.1690 -0.0340  0.2694
 5718W        W21852   5.772   8.549  12.237 -0.2211 -0.1373  0.2722
 5719W        W21853   2.754  12.363  12.968  0.3329  0.0838 -0.1665
 5720W        W21854   0.501   2.510  15.506  0.2277 -0.0367 -0.1725
 5721W        W21855   8.842   1.379  13.349 -0.0104 -0.0009 -0.2381
 5722W        W21856   9.865   4.654   1.393  0.0584 -0.1867 -0.0563
 5723W        W21857   6.402  14.762   5.621 -0.0071 -0.0169  0.0136
 5724W        W21858  12.029   1.342  13.694  0.1624 -0.0730  0.1705
 5725W        W21859   6.690  12.829  15.580  0.2028  0.2472  0.0409
 5726W        W21860   2.118   4.674  16.360 -0.1100  0.0931 -0.0872
 5727W        W21861  14.374  13.662  12.155 -0.0776 -0.0617 -0.0513
 5728W        W21862   2.697  12.333  11.681 -0.0349  0.3962 -0.0027
 5729W        W21863  14.546  15.519  12.362 -0.0202  0.0560  0.0449
 5730W        W21864   6.916   1.737   4.964 -0.0386 -0.0925  0.1509
 5731W        W21865   0.107  11.812   1.972  0.1664  0.3708  0.2921
 5732W        W21866  11.452  10.995  16.074 -0.0531  0.0105  0.0148
 5733W        W21867  14.853   7.342   5.292  0.2572  0.0854  0.0857
 5734W        W21868  14.928   2.980  15.876  0.1125  0.0436  0.0646
 5735W        W21869   8.902   2.679  10.956  0.1168 -0.0992 -0.0122
 5736W        W21870   2.562   8.852   1.979 -0.2474  0.1447 -0.1343
 5737W        W21871   0.952  15.399  12.224 -0.0675  0.3525 -0.0794
 5738W        W21872  17.969  12.097  13.652  0.2897  0.0113 -0.1067
 5739W        W21873   4.109   8.659   2.311  0.1899  0.3669  0.0345
 5740W        W21874   6.156   6.179  13.012 -0.0418  0.0896 -0.0527
 5741W        W21875  10.392   4.660  12.627 -0.0751 -0.1330 -0.0747
 5742W        W21876   1.757   7.423  13.939 -0.1548  0.4996 -0.1605
 5743W        W21877  16.125  17.671   0.279 -0.2816  0.0238 -0.1288
 5744W        W21878   9.555   3.011  11.641 -0.1098 -0.3627  0.1556
 5745W        W21879   0.019  11.586  14.978 -0.1217  0.4942 -0.5046
 5746W        W21880   2.382   7.646   1.606  0.2393 -0.5621  0.0663
 5747W        W21881  13.009  13.063   4.799 -0.3468 -0.3825  0.1095
 5748W        W21882  15.511   6.033  13.199 -0.0507  0.2197 -0.1080
 5749W        W21883   6.336   3.532   4.714  0.0104  0.0380 -0.1055
 5750W        W21884   3.270  15.073  15.788  0.2042 -0.1764 -0.1500
 5751W        W21885  12.416   3.543  14.418  0.0930 -0.1036  0.1343
 5752W        W21886  17.951  14.354   0.220  0.0961 -0.3348 -0.0679
 5753W        W21887   8.795   7.641   4.094  0.0506  0.0370  0.3151
 5754W        W21888  11.073   2.555   3.216  0.1244 -0.0888  0.0580
 5755W        W21889   3.544   1.629   4.513 -0.1000  0.2344  0.2589
 5756W        W21890   7.251   6.541   3.441 -0.0106 -0.3680  0.2247
 5757W        W21891   6.486   8.460   2.280  0.0780  0.2956  0.0866
 5758W        W21892   4.607  12.777   1.984  0.0510  0.0410  0.0677
 5759W        W21893   1.933   7.838   1.524 -0.0963  0.0746  0.1687
 5760W        W21894   1.315   1.778   3.366  0.1240 -0.2881 -0.1048
 5761W        W21895   4.624   2.028  13.374 -0.2258  0.0594 -0.1768
 5762W        W21896   0.211   6.291  11.635  0.2011  0.1842 -0.0766
 5763W        W21897   0.058  10.315  13.949 -0.5934 -0.1693  0.1023
 5764W        W21898   3.964   2.629   3.193 -0.0371 -0.0234  0.1520
 5765W        W21899   9.300   2.614   1.837 -0.2445  0.0657  0.2415
 5766W        W21900  13.193  13.908  11.839 -0.3726 -0.1776 -0.1334
 5767W        W21901  16.251  17.908  12.851 -0.0775  0.1929  0.0535
 5768W        W21902  16.728   4.438  14.270  0.0645 -0.5001 -0.0458
 5769W        W21903  13.081  13.810   2.031 -0.3044 -0.1153 -0.3498
 5770W        W21904   5.555   5.911   5.312  0.1482 -0.0467 -0.0667
 5771W        W21905   5.812   3.970   0.660  0.0951  0.0618  0.1311
 5772W        W21906  12.168   9.137  12.041  0.1478 -0.2790 -0.0189
 5773W        W21907   2.938   8.566   4.145 -0.0091 -0.3239  0.3039
 5774W        W21908   5.672   0.344  12.839 -0.0240  0.2157 -0.2147
 5775W        W21909  13.788   6.471  12.113 -0.0414 -0.2260  0.1511
 5776W        W21910  17.862   1.108  12.545  0.3499  0.0181  0.2591
 5777W        W21911  18.070  10.523  16.258 -0.0485 -0.1859  0.1873
 5778W        W21912   4.707   3.204  15.693 -0.2422  0.4594  0.0641
 5779W        W21913  10.561  12.927  15.576 -0.0601 -0.3746  0.0874
 5780W        W21914  13.674   6.878  11.865 -0.2930  0.0276 -0.0367
 5781W        W21915  17.706  14.695  14.231 -0.1068  0.0012  0.0998
 5782W        W21916   6.498   1.350   3.095 -0.1306  0.3085  0.0525
 5783W        W21917  16.561   7.809  10.169 -0.0999 -0.2932  0.0697
 5784W        W21918   6.544   5.764   4.252  0.1246  0.2446  0.0040
 5785W        W21919   8.588   1.170   3.075 -0.1695 -0.0497  0.0514
 5786W        W21920  11.002  16.409  14.808  0.1355  0.0637 -0.2485
 5787W        W21921   0.300   2.092  15.298  0.3002 -0.0930  0.1664
 5788W        W21922  16.414   9.139  13.086 -0.0709 -0.0975  0.0496
 5789W        W21923   0.394   9.645   0.040  0.1955  0.3325 -0.3995
 5790W        W21924  13.788   6.674   1.818  0.0423  0.2327 -0.3096
 5791W        W21925   7.228  10.055   2.918 -0.3764  0.1739  0.0487
 5792W        W21926   0.052  13.128   0.168  0.0020 -0.1681 -0.1302
 5793W        W21927   6.061   5.191  11.022 -0.1312 -0.0970  0.2436
 5794W        W21928   6.822   0.600  15.095  0.0042 -0.5210  0.0797
 5795W        W21929  16.148   4.808   1.534  0.0957  0.1426  0.0102
 5796W        W21930   7.712  12.336   2.233  0.1583  0.2382  0.1745
 5797W        W21931  14.392  15.128  12.715  0.0824  0.0463  0.0262
 5798W        W21932  11.150  16.460  14.066  0.2455  0.2819 -0.0259
 5799W        W21933   9.362  13.286  14.616  0.3009  0.0283  0.0279
 5800W        W21934  12.251   0.797   0.137 -0.1489  0.2692 -0.1101
 5801W        W21935  13.553   6.569  11.081  0.0586 -0.0425 -0.0109
 5802W        W21936  16.830   4.526  14.964 -0.3120  0.0794 -0.2010
 5803W        W21937   3.056  17.142   2.409 -0.0146 -0.1133 -0.2661
 5804W        W21938   2.833  10.793   3.184 -0.1720 -0.0522 -0.3192
 5805W        W21939  11.319  16.334   5.805  0.0085 -0.1464 -0.1847
 5806W        W21940   4.956   9.215   2.144  0.1760 -0.0764  0.2013
 5807W        W21941  16.880  12.507  14.183  0.1017 -0.1992  0.1190
 5808W        W21942  10.118  14.365  15.553 -0.3459 -0.2138  0.0557
 5809W        W21943   7.033   3.363   2.528 -0.1728 -0.2470  0.1916
 5810W        W21944  11.251  13.756  13.908  0.0333 -0.1511  0.0061
 5811W        W21945  15.232  10.286   1.137  0.2920  0.1618  0.1356
 5812W        W21946  11.088   9.037  15.633  0.1315 -0.0696 -0.0207
 5813W        W21947  12.066  12.302  15.690 -0.1836 -0.3211 -0.1750
 5814W        W21948  12.448   2.997  16.429 -0.0529  0.2009 -0.0795
 5815W        W21949  10.906  16.254   5.508 -0.0759 -0.2829  0.0128
 5816W        W21950  16.994   5.598  10.770  0.5841 -0.2070  0.4613
 5817W        W21951  11.110   3.508  12.863  0.1349 -0.2942  0.0210
 5818W        W21952   6.266   8.354  13.688  0.2566 -0.1796 -0.0228
 5819W        W21953   8.704  15.695  15.491  0.1191 -0.0402 -0.1728
 5820W        W21954  14.149  10.722   1.748 -0.1803  0.2351 -0.0663
 5821W        W21955   5.642   7.637   4.509 -0.1967 -0.2441  0.1965
 5822W        W21956   3.538   8.250   5.464 -0.2515  0.1872 -0.1287
 5823W        W21957  16.206  15.187   2.840 -0.0997  0.0177  0.1395
 5824W        W21958   4.480   7.748  15.428 -0.2546  0.0953  0.1839
 5825W        W21959   6.652   0.779  13.674 -0.2153  0.0598 -0.3336
 5826W        W21960  12.750  11.997  13.585 -0.2185 -0.3656 -0.1831
 5827W        W21961  14.061   5.132  16.425  0.0270  0.0739  0.0056
 5828W        W21962   6.996   0.652  12.298  0.1067 -0.0818  0.0895
 5829W        W21963   0.518  16.560   3.160  0.0059  0.3307  0.3392
 5830W        W21964   4.031  15.658  13.246 -0.3467  0.0212  0.0104
 5831W        W21965  11.012   6.556  16.073  0.1352 -0.1559 -0.2578
 5832W        W21966   2.561  15.908   3.902  0.3908  0.1499  0.0871
 5833W        W21967   9.141   1.882   0.617  0.2368  0.2533  0.2669
 5834W        W21968   3.350  16.961   0.371 -0.1277  0.0988  0.0243
 5835W        W21969   6.435   7.131   2.984  0.0500  0.2548  0.0840
 5836W        W21970  14.926  14.023  15.206  0.0473 -0.0357 -0.2812
 5837W        W21971  11.251  15.046   4.586  0.2088 -0.1783 -0.1866
 5838W        W21972   9.453   0.222   4.570  0.0923 -0.1746  0.1723
 5839W        W21973   8.349   0.414  16.037  0.1758 -0.2526  0.1347
 5840W        W21974  16.032   0.146   4.776 -0.1257 -0.2108  0.1940
 5841W        W21975  17.160  17.636   1.819 -0.2227 -0.3211  0.0844
 5842W        W21976  11.654  12.560   0.943  0.1037  0.0712 -0.3975
 5843W        W21977   4.613  15.242  16.250 -0.3134 -0.1268 -0.0135
 5844W        W21978   8.539   4.823   0.633 -0.2103  0.0100 -0.1135
 5845W        W21979  13.456  11.038   3.616 -0.2377 -0.1673  0.0114
 5846W        W21980  11.804   5.212   3.969  0.0515  0.0828 -0.2182
 5847W        W21981   5.517   1.826  15.722  0.2752 -0.1572  0.0402
 5848W        W21982   8.551   3.053   2.965 -0.0858 -0.1424 -0.0837
 5849W        W21983   6.464   4.870   4.270  0.1820  0.0350 -0.0590
 5850W        W21984   0.835  14.723  11.520 -0.0585 -0.0212 -0.1134
 5851W        W21985   1.636  12.305  13.887  0.1178 -0.0721  0.1373
 5852W        W21986  16.327  16.739  14.549 -0.3207  0.1803 -0.0211
 5853W        W21987   3.387  17.309  16.357  0.2490  0.0184  0.0528
 5854W        W21988  12.628   9.463  16.012  0.0983  0.0234  0.1175
 5855W        W21989  11.703   0.394   0.137 -0.0262  0.3505  0.0646
 5856W        W21990  10.486  17.648   0.627  0.1886 -0.0180  0.1366
 5857W        W21991   9.235   8.998   2.712  0.1077 -0.0639 -0.1345
 5858W        W21992  15.423   5.269   3.971 -0.1242  0.0056  0.0690
 5859W        W21993   2.079   6.268  14.520 -0.2808  0.3616  0.0447
 5860W        W21994   1.480   7.577   0.748  0.2394 -0.0869  0.0457
 5861W        W21995  14.457   3.805   1.129  0.0273 -0.3675 -0.1556
 5862W        W21996  10.080   4.330  14.544 -0.0862 -0.1369  0.1270
 5863W        W21997  16.343   7.838   4.357  0.0786 -0.2288  0.1105
 5864W        W21998   8.939   7.188  16.086 -0.0205 -0.0219  0.1914
 5865W        W21999   2.661  11.641  12.287 -0.0057  0.2700  0.1117
 5866W        W22000  15.946  10.356   0.612 -0.2442 -0.2665 -0.1975
 5867W        W22001   6.507   5.321   1.522 -0.1105 -0.2815  0.1423
 5868W        W22002  10.919   1.035   2.263 -0.2811 -0.3624 -0.5529
 5869W        W22003  16.084  12.621   4.632  0.1336  0.0086  0.2710
 5870W        W22004  17.432  12.061  14.874 -0.1202  0.2660 -0.0208
 5871W        W22005   9.358  15.200   1.634 -0.0776  0.1650 -0.1071
 5872W        W22006   9.011  16.023   5.277  0.1409 -0.0627 -0.0446
 5873W        W22007  16.337   0.393   0.418 -0.0440  0.1122 -0.1044
 5874W        W22008   9.480   4.406  15.876 -0.1327 -0.1661  0.1295
 5875W        W22009  14.290   1.035   5.494 -0.0143 -0.3354  0.3242
 5876W        W22010  13.051   7.949  13.743  0.0356  0.0017 -0.0975
 5877W        W22011   7.349   1.398  15.914 -0.1017  0.1421 -0.1347
 5878W        W22012   9.753   8.817   5.599  0.1858  0.2543  0.2199
 5879W        W22013  15.293  12.825  13.291 -0.2134  0.2074 -0.0451
 5880W        W22014   7.331  11.360   3.789  0.0030 -0.0228 -0.1531
 5881W        W22015  11.755  15.038  14.445 -0.0775 -0.1781 -0.4406
 5882W        W22016  13.725   5.278  16.101  0.1465  0.0177  0.1280
 5883W        W22017   3.102  17.461   1.014  0.0485 -0.0485 -0.2030
 5884W        W22018   2.839  14.311   5.074  0.1145  0.0654  0.2481
 5885W        W22019  15.117  12.272  13.869 -0.1239  0.1655  0.2071
 5886W        W22020  12.315   8.705   2.839  0.1305  0.2424 -0.1903
 5887W        W22021  15.820   3.917   0.511  0.0526  0.1678  0.4057
 5888W        W22022   0.762   5.237  15.343 -0.1395  0.0440 -0.1400
 5889W        W22023   4.056  16.661  14.757 -0.1543 -0.1227  0.3973
 5890W        W22024  12.475  11.659  14.632  0.0301 -0.1892 -0.0894
 5891W        W22025   5.648  16.560  15.612  0.1675  0.0468  0.2118
 5892W        W22026   3.438   3.955   4.301 -0.0652 -0.0347 -0.0648
 5893W        W22027   7.782   0.748  14.177 -0.5427 -0.2017 -0.1177
 5894W        W22028  13.553   0.702  12.089 -0.4165 -0.0140  0.0212
 5895W        W22029   5.483   6.796  13.117 -0.1367  0.0278 -0.1777
 5896W        W22030  13.835  15.931   1.130 -0.1424  0.1288  0.0161
 5897W        W22031   8.408  16.763   4.687 -0.2643 -0.4345 -0.1746
 5898W        W22032  10.487   7.323  14.839  0.3560  0.2531 -0.1597
 5899W        W22033  13.770   5.459   4.527 -0.0847  0.0049 -0.0208
 5900W        W22034  12.892  12.480   3.204 -0.0257  0.0012  0.0714
 5901W        W22035   0.450   5.312  16.284  0.2960 -0.1561  0.1479
 5902W        W22036   6.978   2.927  15.022  0.4555 -0.1064 -0.0043
 5903W        W22037   4.156   1.018  14.113  0.1790  0.4300  0.2323
 5904W        W22038   9.135  14.400   0.828 -0.1580 -0.0319 -0.0580
 5905W        W22039   2.315  14.503  14.694  0.0936 -0.0815 -0.5319
 5906W        W22040   6.483  12.547   1.766  0.1116  0.1153  0.2723
 5907W        W22041   7.152  10.302   0.446 -0.2604 -0.2474  0.0022
 5908W        W22042   0.280  17.976   4.083  0.0930  0.0381 -0.0400
 5909W        W22043   2.952   7.810  13.751 -0.1472 -0.3315  0.1261
 5910W        W22044  16.131   5.374  11.120 -0.0627  0.4329 -0.1599
 5911W        W22045  11.261  11.077  14.997  0.0361 -0.2956  0.0328
 5912W        W22046   3.635  12.770   2.394  0.0802  0.1355 -0.1294
 5913W        W22047   9.942  10.471   5.131 -0.0221 -0.1077 -0.1420
 5914W        W22048  14.951   7.460   4.283 -0.0854 -0.0052 -0.0467
 5915W        W22049   1.310   0.446   1.206  0.2454 -0.0471 -0.1363
 5916W        W22050   9.490  12.514  15.595  0.0332 -0.3198 -0.1227
 5917W        W22051   7.811  18.029  16.168 -0.1781  0.0216  0.1225
 5918W        W22052   7.177   8.258  12.613 -0.1110  0.0423 -0.3029
 5919W        W22053  16.857  11.735  11.558 -0.1397  0.3611 -0.0126
 5920W        W22054  10.684  14.979  15.186 -0.1552  0.1534 -0.1748
 5921W        W22055  12.978   6.312   5.001  0.0847 -0.1642  0.0640
 5922W        W22056  12.997  11.355   1.978  0.0676  0.0302 -0.2792
 5923W        W22057   1.570   2.438  14.174  0.2274 -0.0582 -0.0044
 5924W        W22058   8.739  18.042   1.224  0.1561 -0.1446  0.2145
 5925W        W22059   9.186   3.606  12.902  0.1758  0.1440  0.0925
 5926W        W22060  17.828  12.680  10.776 -0.3066  0.0384 -0.3994
 5927W        W22061  10.101   3.267   1.062 -0.0649  0.0193  0.0485
 5928W        W22062   2.451  13.528   0.999 -0.2005  0.0291 -0.1291
 5929W        W22063   4.780  10.504   0.992  0.0321  0.2410 -0.3273
 5930W        W22064   8.766  14.162  16.236  0.0832 -0.3278  0.0263
 5931W        W22065   1.297  13.558   3.905 -0.1469 -0.4340 -0.0383
 5932W        W22066   8.411  13.840   1.117 -0.0737 -0.0869 -0.2924
 5933W        W22067   0.256   2.749   0.360 -0.2389  0.2091 -0.0665
 5934W        W22068  14.753  14.097   1.867 -0.3762 -0.3927  0.1156
 5935W        W22069   4.056   7.045   2.516 -0.3308  0.2592  0.0849
 5936W        W22070  13.963  16.718   2.702 -0.3727  0.0236 -0.1779
 5937W        W22071  12.725   7.741  13.290 -0.0016 -0.4117 -0.2874
 5938W        W22072  16.058   4.701  10.930  0.2538  0.1641  0.3253
 5939W        W22073   1.038   1.051   2.060 -0.0182 -0.0028  0.1212
 5940W        W22074  16.072  12.401  12.911  0.0474  0.0848  0.1529
 5941W        W22075  10.601  13.824   2.350 -0.2964 -0.3544 -0.0285
 5942W        W22076  15.451   9.371   3.549 -0.1086  0.1448  0.1561
 5943W        W22077   3.962   6.379  15.490 -0.2587  0.1118 -0.1280
 5944W        W22078  11.354   0.097  15.890 -0.0779  0.3919 -0.0326
 5945W        W22079  11.008   1.362  12.414 -0.0321  0.4453  0.0541
 5946W        W22080   2.773   0.958  15.098  0.0716  0.0002  0.0546
 5947W        W22081  16.528  17.185   1.195 -0.2046 -0.1798  0.0788
 5948W        W22082  14.660   2.576   1.202 -0.2170  0.0119  0.0736
 5949W        W22083   0.770   5.474   3.355 -0.0838 -0.0046  0.0618
 5950W        W22084  14.869   6.914  13.196 -0.2109  0.0711  0.2754
 5951W        W22085   2.089   5.734   1.400 -0.0281 -0.2330 -0.0403
 5952W        W22086  15.987   2.317   1.908  0.1875  0.0616 -0.0648
 5953W        W22087  10.043   2.242   0.879 -0.1765 -0.3157 -0.2107
 5954W        W22088  12.903  14.338  14.233 -0.2270 -0.0204 -0.2048
 5955W        W22089  10.963  15.707   5.395  0.4506 -0.1983  0.0826
 5956W        W22090  16.643   8.525   4.626  0.0574  0.0864  0.0736
 5957W        W22091  16.488   8.642   5.576 -0.2654 -0.3521  0.0294
 5958W        W22092   0.724   0.210   0.552  0.1484  0.2536  0.1661
 5959W        W22093   8.786  15.663  16.408  0.1168  0.3685 -0.3067
 5960W        W22094  12.002  16.453   1.345 -0.1683 -0.0380 -0.0738
 5961W        W22095  15.066   4.257  13.376 -0.1220  0.2239  0.0439
 5962W        W22096   6.509  10.073  13.923 -0.2417  0.1267 -0.2858
 5963W        W22097   7.975   1.075  15.294 -0.3548 -0.0048  0.1907
 5964W        W22098   6.237  17.996   5.010 -0.2315 -0.0883  0.0276
 5965W        W22099   1.925  16.545   3.717 -0.1131 -0.2497  0.0163
 5966W        W22100  15.814  15.949   4.753  0.2846 -0.1368 -0.2482
 5967W        W22101   7.700  10.811   2.061 -0.1437 -0.2719 -0.2161
 5968W        W22102  17.401   4.558   2.997  0.5173  0.0177  0.1695
 5969W        W22103   8.957   8.108  14.864  0.0354 -0.3175 -0.3069
 5970W        W22104  10.923   3.527   0.038 -0.0220  0.1986 -0.0560
 5971W        W22105   9.466   4.386   2.351  0.1743 -0.1992  0.0462
 5972W        W22106  10.364   4.903  15.652 -0.0685  0.1039  0.0155
 5973W        W22107   5.278   0.560   4.582 -0.2164 -0.0715 -0.1727
 5974W        W22108   2.974   5.120   4.699 -0.1145 -0.0536  0.1322
 5975W        W22109  14.618  12.193   0.631 -0.2022  0.2860 -0.2989
 5976W        W22110  17.031  11.914  14.397  0.0175 -0.3532 -0.1813
 5977W        W22111   6.898   8.361   1.101 -0.1726 -0.2361  0.1987
 5978W        W22112  11.432  15.134   0.662 -0.0727 -0.1745  0.1778
 5979W        W22113  12.040   0.552   3.468 -0.0594 -0.0960  0.0966
 5980W        W22114  17.648   7.590  15.199  0.1235  0.3828 -0.0584
 5981W        W22115  14.340   5.362   1.753  0.2278  0.1671 -0.3368
 5982W        W22116   1.186  15.478  12.976  0.1224  0.2086  0.1040
 5983W        W22117  15.495   7.517  11.247  0.2180  0.2081  0.1539
 5984W        W22118   3.802   3.192   4.688 -0.1506  0.3724 -0.0692
 5985W        W22119  11.072  16.438   0.171 -0.0781  0.0754 -0.0973
 5986W        W22120  17.930   4.613   1.216  0.1491  0.1383 -0.2964
 5987W        W22121   7.785  15.601   1.752 -0.1761  0.0528  0.4494
 5988W        W22122  14.573  10.648  15.821 -0.3066 -0.4904  0.4538
 5989W        W22123   2.480  17.638  15.963 -0.2659  0.0738  0.3990
 5990W        W22124  16.073   3.763   5.037 -0.0091  0.0053  0.0798
 5991W        W22125   7.451  10.899   3.862 -0.0945  0.0733 -0.0123
 5992W        W22126   6.043   6.874  14.865 -0.0247  0.0010 -0.0236
 5993W        W22127  16.646   3.060  15.361  0.0408  0.2817 -0.2960
 5994W        W22128   5.972  12.114  15.240  0.3824  0.0332  0.0287
 5995W        W22129   2.997  10.934   5.390  0.0798 -0.1189  0.1383
 5996W        W22130  12.667   9.425  14.746 -0.1850 -0.0455 -0.0761
 5997W        W22131  15.532   8.189  12.208 -0.5458  0.1039 -0.3599
 5998W        W22132  14.722  14.844  16.507  0.1555  0.2445  0.2084
 5999W        W22133   7.490   4.771   3.552 -0.0202  0.0818  0.0800
 6000W        W22134   3.237   1.376  11.690  0.0518 -0.0151 -0.3492
 6001W        W22135  13.543   4.690  12.011 -0.3798 -0.1247  0.2750
 6002W        W22136  10.142  14.941   3.683  0.0830  0.0910  0.1186
 6003W        W22137  14.221  17.864  11.888  0.2461  0.0568  0.0754
 6004W        W22138   4.492  15.441  13.336 -0.0584 -0.1746  0.0654
 6005W        W22139   0.199   4.085   4.341 -0.1279  0.0850 -0.2652
 6006W        W22140   3.505   9.359   1.312  0.0543  0.2729  0.0644
 6007W        W22141  16.456   0.432   5.666  0.0956  0.1875  0.0309
 6008W        W22142   1.054   7.387  13.306 -0.1778 -0.2574  0.0390
 6009W        W22143   4.340   5.027  13.661 -0.0493 -0.1411 -0.1552
 6010W        W22144   7.420   1.019   3.851 -0.0845  0.4204 -0.0895
 6011W        W22145   3.274   1.578   1.130 -0.4395 -0.0725  0.1514
 6012W        W22146   5.254   1.510  13.284 -0.0074 -0.0526  0.0830
 6013W        W22147   0.910   2.395  14.790  0.0858  0.1062 -0.0509
 6014W        W22148  13.717  15.959  11.930 -0.0173  0.0976 -0.1005
 6015W        W22149  14.259  16.528   1.929  0.1500 -0.2164  0.0448
 6016W        W22150   9.095  13.607   2.649  0.0220  0.2118  0.3583
 6017W        W22151  17.108   8.359  13.084  0.0149 -0.1192  0.1025
 6018W        W22152  13.627   3.717  11.769 -0.0377 -0.1281  0.0426
 6019W        W22153  11.038   4.938   0.502  0.2330 -0.2410 -0.1466
 6020W        W22154  12.289  10.663  15.904  0.0255 -0.0372  0.3526
 6021W        W22155  10.231  14.221   4.890 -0.0633 -0.2077 -0.1227
 6022W        W22156   9.047  11.916  11.640 -0.0943  0.0166 -0.2205
 6023W        W22157  17.415  11.308  15.496  0.1074  0.0624  0.2695
 6024W        W22158   0.064  13.612   5.417  0.0040  0.0908 -0.4693
 6025W        W22159   2.952  10.062  15.534 -0.0794  0.2002  0.0147
 6026W        W22160   0.347   8.275  14.380 -0.3125 -0.2158 -0.0429
 6027W        W22161  11.102   8.327  13.946  0.2462 -0.0437 -0.0511
 6028W        W22162  12.222   2.592   1.187 -0.3499  0.4243 -0.3428
 6029W        W22163  11.405  13.513   1.074  0.1629 -0.0317  0.2736
 6030W        W22164   7.899  15.869  11.335 -0.1324 -0.0611 -0.0688
 6031W        W22165   4.932   2.974   3.760 -0.3848 -0.2292  0.0066
 6032W        W22166   0.933   8.830   4.397  0.2963 -0.2074 -0.1044
 6033W        W22167  10.373  14.855  13.985  0.3790 -0.0733 -0.0661
 6034W        W22168   3.263   2.967   0.014 -0.2245 -0.3007  0.3578
 6035W        W22169   4.537   2.312  15.214  0.2920  0.3265  0.0856
 6036W        W22170  16.117  13.139  12.673 -0.1889 -0.0988  0.1771
 6037W        W22171   3.989  16.006   5.708  0.3227  0.0400  0.2425
 6038W        W22172  14.195   6.018  13.286  0.0156 -0.0189  0.0606
 6039W        W22173   0.231  15.795   2.561 -0.1023  0.3195 -0.1210
 6040W        W22174   0.430   0.708   0.601  0.0756 -0.0056 -0.2995
 6041W        W22175   8.168  16.323  11.406  0.2104 -0.0807 -0.0232
 6042W        W22176   9.994   8.118  16.470 -0.1628 -0.1497  0.1039
 6043W        W22177   6.386  18.103   0.331 -0.0689  0.3654  0.1915
 6044W        W22178  13.015   5.943   0.366  0.1124  0.0157  0.0922
 6045W        W22179   8.146  11.008  11.045  0.1545  0.1189 -0.0476
 6046W        W22180  14.796   9.981  14.246  0.0043 -0.2203  0.0359
 6047W        W22181  11.930  12.955  12.478  0.0168  0.1518 -0.1032
 6048W        W22182  10.146   8.564   0.106  0.0677 -0.0115 -0.0505
 6049W        W22183  11.728  10.240   2.669  0.3324  0.1245 -0.0207
 6050W        W22184  11.708  16.516   0.158 -0.2345 -0.2018  0.0167
 6051W        W22185  11.784  13.816   4.958 -0.1641  0.0226 -0.2132
 6052W        W22186   8.174   7.672  15.069 -0.0227  0.0094 -0.0318
 6053W        W22187  16.992  12.557  16.030 -0.3667  0.3619 -0.1961
 6054W        W22188   8.145   2.216  13.556  0.0291 -0.2124  0.2502
 6055W        W22189  15.739  13.470   2.183 -0.0560  0.2367 -0.1695
 6056W        W22190   4.616   7.393  11.707 -0.4048 -0.1318  0.1470
 6057W        W22191   1.487  15.361   1.395  0.0415  0.3878 -0.0683
 6058W        W22192  12.759  18.152   2.764  0.0033  0.2093 -0.0432
 6059W        W22193   3.781   8.910   1.083 -0.2211 -0.0249 -0.1319
 6060W        W22194  11.345   4.486  11.131 -0.0490 -0.0997 -0.0853
 6061W        W22195  10.213  15.079   2.190 -0.1837  0.0934  0.1588
 6062W        W22196   9.041   2.674  14.704  0.0680 -0.1049  0.0194
 6063W        W22197   4.069   7.294  15.943 -0.0941 -0.0947 -0.3935
 6064W        W22198  18.162  17.472  12.659  0.1255 -0.1465  0.1029
 6065W        W22199   7.214  10.809  14.949  0.1232 -0.1419  0.0582
 6066W        W22200  15.514   2.316   1.705 -0.1336  0.1270  0.0175
 6067W        W22201   2.682  12.139   1.507 -0.0149  0.3892 -0.3337
 6068W        W22202   8.297  12.135   2.043  0.2690 -0.1460 -0.0767
 6069W        W22203   1.104  12.287   0.947  0.0554  0.0987  0.2013
 6070W        W22204  16.108  14.704   4.190 -0.2550 -0.1523  0.2306
 6071W        W22205   0.057  17.747   1.718 -0.1294 -0.0041  0.1950
 6072W        W22206   0.192   2.920  13.570  0.2839 -0.0636  0.1839
 6073W        W22207   1.846  15.077   3.920  0.0038 -0.0646 -0.1862
 6074W        W22208   9.913  13.448   4.850  0.1235 -0.0715  0.1263
 6075W        W22209   3.500  15.753   1.287  0.0293 -0.4246 -0.1275
 6076W        W22210   1.276  12.877  12.511  0.0099  0.1247  0.2209
 6077W        W22211  15.743  11.685  13.751 -0.2045 -0.3181 -0.1448
 6078W        W22212   9.197   4.667  11.842 -0.2252 -0.1495  0.2797
 6079W        W22213   3.415  12.161  15.031 -0.0073 -0.0494  0.0303
 6080W        W22214   5.459  15.924  14.262 -0.0797 -0.1667  0.1216
 6081W        W22215   5.380  16.644   0.219  0.0753 -0.0327  0.2360
 6082W        W22216  11.748  15.595  14.750 -0.1270  0.4676 -0.1838
 6083W        W22217   4.034   8.582  15.878 -0.1767  0.3403  0.0009
 6084W        W22218  15.162   1.219  14.917  0.0901  0.3039  0.1940
 6085W        W22219  15.333   0.918   1.276 -0.3094  0.2170 -0.3562
 6086W        W22220  15.700  17.125  13.041 -0.0548 -0.4731  0.0469
 6087W        W22221   7.171   0.953   4.907  0.0437  0.6546  0.0973
 6088W        W22222   9.282   6.411  14.792  0.4548  0.1450  0.0177
 6089W        W22223  16.853   4.143   2.558  0.1439  0.0707 -0.1822
 6090W        W22224   9.009  13.079   2.746 -0.0510 -0.1016 -0.0643
 6091W        W22225  16.337  16.050  12.790 -0.1648  0.0896 -0.0840
 6092W        W22226  10.765   0.225   0.841  0.0235  0.0155  0.0018
 6093W        W22227   0.617   5.392   3.832 -0.0142 -0.1648  0.1559
 6094W        W22228  16.844   0.671  15.060  0.2884  0.0410 -0.1334
 6095W        W22229   5.541   2.043   0.701  0.1344  0.1401  0.1232
 6096W        W22230   8.667   4.620  16.277 -0.1089 -0.0350 -0.0581
 6097W        W22231  14.666  11.835   0.989  0.0336 -0.0380 -0.1508
 6098W        W22232   1.904   6.524  14.017  0.2426  0.2671  0.0925
 6099W        W22233  16.512  10.312   1.742 -0.0351 -0.0030  0.2263
 6100W        W22234   7.859   5.185   3.775 -0.0280 -0.2563 -0.1272
 6101W        W22235  11.269   1.488  16.010 -0.0696  0.0905  0.0173
 6102W        W22236  12.935   3.389   5.255 -0.0434 -0.0740 -0.0517
 6103W        W22237  14.783  13.490   1.077 -0.1223 -0.3007 -0.0761
 6104W        W22238   6.162  14.427   5.196 -0.4202  0.0002  0.2239
 6105W        W22239   4.075   5.133   2.846  0.1100 -0.0099 -0.0817
 6106W        W22240   9.221  14.690   1.212 -0.0770 -0.0263 -0.0896
 6107W        W22241  12.925   9.848   3.806 -0.0467  0.0969  0.2426
 6108W        W22242  11.371   7.681  11.734 -0.0479  0.0195 -0.3102
 6109W        W22243  11.405  13.057   2.152 -0.1379 -0.2377  0.2450
 6110W        W22244  14.413  10.438   4.627  0.1938 -0.2359 -0.3234
 6111W        W22245  17.553   0.823   5.397  0.2984  0.2993 -0.2250
 6112W        W22246  16.465  12.348  13.799 -0.1265  0.3651 -0.3215
 6113W        W22247   6.578  14.726  12.814  0.2964  0.0093  0.1497
 6114W        W22248   4.580   4.881  12.880  0.2747 -0.0850 -0.0105
 6115W        W22249  17.382   5.179   4.664 -0.0731 -0.1005  0.1604
 6116W        W22250   3.531  14.348   2.883  0.0782  0.2290  0.0263
 6117W        W22251   2.807   7.473  13.406  0.0677 -0.3299  0.0665
 6118W        W22252   7.759   6.897  15.642 -0.2039 -0.2000 -0.1701
 6119W        W22253  12.909  13.583  13.388 -0.0744 -0.0579  0.1976
 6120W        W22254   5.601  17.393   5.860 -0.1281 -0.0526 -0.2815
 6121W        W22255  10.458   6.885  10.723 -0.0839 -0.1283 -0.0075
 6122W        W22256  17.085   7.835  13.446 -0.1913 -0.0724  0.1326
 6123W        W22257  17.592  11.009  14.528  0.1468 -0.0848 -0.0570
 6124W        W22258   3.065   1.360  14.927  0.0283 -0.0049  0.2461
 6125W        W22259   1.010   5.176   2.940 -0.0395  0.0642 -0.0604
 6126W        W22260  11.365  16.584  16.266  0.0997  0.1146 -0.0488
 6127W        W22261  11.603  11.915  11.800  0.3506 -0.0191 -0.0776
 6128W        W22262   1.661   3.934  11.706  0.3761 -0.1793 -0.0627
 6129W        W22263  15.114   7.150  14.027  0.0070  0.1351  0.1518
 6130W        W22264  17.718   8.174   4.390 -0.3707  0.0781 -0.0447
 6131W        W22265   7.829   2.152   0.203  0.0302 -0.1892 -0.0123
 6132W        W22266   7.798  15.290  13.054 -0.1076  0.1366  0.0357
 6133W        W22267  15.014  17.611  15.065 -0.1210  0.2283  0.3239
 6134W        W22268  11.735   7.995  16.273  0.0892  0.0534 -0.1593
 6135W        W22269  17.995  11.377   2.632  0.1644 -0.0216  0.1149
 6136W        W22270  10.103   1.195   2.101 -0.2737  0.1462  0.2910
 6137W        W22271  17.984  17.711   1.300  0.1305  0.0071  0.0603
 6138W        W22272  17.588   1.629   5.838 -0.1504  0.1936  0.0192
 6139W        W22273   2.104   8.778   2.145  0.2003  0.0726  0.2833
 6140W        W22274  16.069  12.623   6.008 -0.1080 -0.2140 -0.0231
 6141W        W22275   3.760  10.982  11.631  0.0314  0.0630 -0.0967
 6142W        W22276  15.636   6.225   1.485 -0.0817  0.0097 -0.2868
 6143W        W22277   7.784   7.587  11.778 -0.1044  0.0907  0.1040
 6144W        W22278  12.926  13.860  14.527 -0.2799 -0.1326  0.1708
 6145W        W22279   3.089   4.245  15.405  0.0977  0.0181 -0.1475
 6146W        W22280  10.237   4.666   4.564  0.2077 -0.0311 -0.1376
 6147W        W22281   6.662   5.132  14.728  0.1479  0.4643 -0.1342
 6148W        W22282   4.926  17.468   5.212 -0.1126 -0.0505 -0.0044
 6149W        W22283   6.867  12.974   3.724  0.0065 -0.3343  0.0665
 6150W        W22284  13.529  11.323   2.710  0.0232  0.1054  0.1655
 6151W        W22285  17.892  17.511   4.782  0.2279 -0.2097 -0.4872
 6152W        W22286   3.662   5.743   4.693  0.0191 -0.1083 -0.1672
 6153W        W22287  16.357   7.540   1.223 -0.1085  0.0491  0.0411
 6154W        W22288  16.532   3.066   0.189 -0.0567  0.1953  0.1548
 6155W        W22289   4.657  16.961  14.006  0.2444  0.3901  0.1910
 6156W        W22290  12.338  14.179  15.255 -0.1209 -0.0329 -0.4641
 6157W        W22291   3.099   8.137  14.716 -0.0063 -0.0622  0.2535
 6158W        W22292   3.612   3.137  11.757  0.1282 -0.1322  0.2093
 6159W        W22293   3.389  10.271  14.589 -0.1236 -0.0662  0.1482
 6160W        W22294   8.114   5.420  16.357  0.4370 -0.0200 -0.1232
 6161W        W22295  11.360   5.057  15.398  0.0123 -0.0320  0.0495
 6162W        W22296   1.800   1.489  10.704 -0.2856 -0.0441  0.2118
 6163W        W22297  12.719   7.661   4.505 -0.0227  0.4273  0.3546
 6164W        W22298  15.586   9.072  13.801  0.2552  0.3502 -0.0850
 6165W        W22299   6.322   1.659   2.695  0.1457  0.1837  0.0742
 6166W        W22300   3.906   0.815  13.704  0.0072  0.0099 -0.0973
 6167W        W22301   5.705  10.022  15.382 -0.0632  0.0784 -0.0816
 6168W        W22302   6.705   9.032  15.903  0.1602 -0.0584  0.1143
 6169W        W22303  10.370   4.344  11.792 -0.5546 -0.2783  0.0090
 6170W        W22304   8.336  11.652   3.253 -0.0580 -0.0779 -0.0347
 6171W        W22305   6.838  10.350   4.418 -0.0370  0.4167  0.1896
 6172W        W22306  11.508  14.467   5.945 -0.1427  0.3995  0.1533
 6173W        W22307  11.884   6.295  16.448  0.1194 -0.4821 -0.0842
 6174W        W22308  17.268  15.778   4.048  0.1817  0.3442 -0.0667
 6175W        W22309   2.701   9.504  13.524 -0.1957  0.0979  0.1452
 6176W        W22310   2.007   0.286   1.898  0.0187  0.0272 -0.2732
 6177W        W22311   6.654   3.489  13.266 -0.2388 -0.0847  0.3347
 6178W        W22312   4.161  18.052  15.774  0.0830 -0.4640  0.1431
 6179W        W22313  17.027   3.461   3.433  0.1762 -0.1266  0.2684
 6180W        W22314  11.925   0.030  16.011 -0.1077  0.1109 -0.2089
 6181W        W22315   2.936  10.301   3.230  0.1998 -0.2467  0.2054
 6182W        W22316  16.731  14.772   3.143 -0.3961  0.1625  0.0884
 6183W        W22317   9.482  11.658  10.997  0.2072 -0.3428  0.0468
 6184W        W22318   0.686   1.416  14.193 -0.0204  0.1389 -0.3127
 6185W        W22319   1.536  11.608  12.210  0.1966  0.0235  0.0647
 6186W        W22320   5.810   0.911  13.829 -0.1939  0.0805 -0.1268
 6187W        W22321   1.933  17.297   1.219  0.3129  0.0649 -0.0248
 6188W        W22322  11.925  11.787   4.415  0.2851 -0.1252  0.1860
 6189W        W22323  13.723   0.797  16.381 -0.1474  0.0823  0.3090
 6190W        W22324  10.592   5.144  15.283 -0.1342  0.0658  0.1670
 6191W        W22325  11.476   9.208  15.095 -0.1705 -0.0691 -0.1517
 6192W        W22326  13.903  12.057  11.920  0.2075 -0.0939  0.2022
 6193W        W22327  14.275  12.376   3.712  0.1203  0.1102  0.3616
 6194W        W22328   2.986   8.100  13.378 -0.0120  0.1803 -0.2401
 6195W        W22329  13.333   8.973  14.570 -0.0189 -0.0880 -0.0022
 6196W        W22330   6.845  14.802  12.016  0.1391  0.1011  0.2389
 6197W        W22331   8.703  13.122  13.099  0.0161  0.1391 -0.0171
 6198W        W22332   0.599   8.772   5.220  0.0963  0.3312  0.0137
 6199W        W22333   4.568   5.119   5.520  0.0438 -0.0882 -0.0638
 6200W        W22334  14.365   5.979   5.479  0.2252  0.1977 -0.1117
 6201W        W22335   1.693   7.830   1.094 -0.1056 -0.0842 -0.1224
 6202W        W22336   0.569  12.440   0.829  0.3678 -0.2154 -0.0591
 6203W        W22337   6.948  13.010  11.341 -0.0558 -0.0988 -0.1135
 6204W        W22338  12.620   8.913   2.503 -0.0482  0.2436 -0.1629
 6205W        W22339  15.888  15.663  16.127 -0.1191  0.0861 -0.1432
 6206W        W22340   2.510   3.341  14.695 -0.2839  0.3022  0.2717
 6207W        W22341  14.603   1.330   4.649 -0.3663 -0.1242  0.0248
 6208W        W22342   7.294   8.825  15.025  0.0242 -0.1803  0.1471
 6209W        W22343   0.612   4.016  16.051 -0.0105 -0.3953 -0.2265
 6210W        W22344   2.382  10.594   3.824 -0.0438  0.1142 -0.0572
 6211W        W22345   7.637   4.054   5.250  0.2411  0.2857 -0.2245
 6212W        W22346  12.941   9.601  14.027 -0.0239 -0.1999  0.1623
 6213W        W22347   7.338   2.488  13.777 -0.1966  0.0959 -0.0290
 6214W        W22348  15.541   1.919  14.455 -0.1389 -0.0593  0.2125
 6215W        W22349  15.530   0.695  13.836 -0.2309 -0.4657 -0.1919
 6216W        W22350   5.272  17.321  15.205  0.1760 -0.2561 -0.0577
 6217W        W22351   4.979  17.464   1.802 -0.2264  0.2160 -0.1299
 6218W        W22352  17.722   0.393   0.570  0.2414 -0.1465  0.0308
 6219W        W22353  11.710  13.834   1.406  0.0719 -0.0466 -0.0211
 6220W        W22354  15.302  11.200   0.545 -0.3562 -0.0275 -0.1984
 6221W        W22355  16.622  13.555  11.946  0.1858  0.0256 -0.0460
 6222W        W22356  16.439  15.998  14.052 -0.0373 -0.2201 -0.3359
 6223W        W22357   2.125   2.782   1.975  0.3548 -0.0013  0.0277
 6224W        W22358  14.961  12.465  15.230  0.2503 -0.1879 -0.4222
 6225W        W22359  12.857   2.475  16.474  0.0206 -0.0222 -0.0421
 6226W        W22360  10.238   9.680   1.534  0.1036  0.1417 -0.1220
 6227W        W22361  18.017  13.457   3.916  0.1332 -0.0993 -0.0946
 6228W        W22362   6.430   6.708   3.914 -0.0921  0.2011  0.0516
 6229W        W22363  12.034  17.563   3.999  0.1608  0.2158  0.0823
 6230W        W22364   4.832   6.257  13.565 -0.2393  0.0703 -0.1161
 6231W        W22365  12.393  10.303  13.175  0.2135  0.1953  0.0245
 6232W        W22366  12.971   3.990  12.461 -0.1348 -0.2461 -0.0313
 6233W        W22367   4.744  13.819   5.096  0.0818  0.0930  0.0762
 6234W        W22368   6.415  15.203   4.959  0.0576  0.0229  0.1619
 6235W        W22369  17.217  11.677   1.565  0.0706 -0.0625 -0.0911
 6236W        W22370   2.111  14.212  15.038  0.1303  0.0772 -0.0928
 6237W        W22371   5.081  13.003  16.465  0.1312  0.0575 -0.2317
 6238W        W22372  10.300   1.192   0.518  0.0375 -0.0070 -0.5081
 6239W        W22373   0.600   1.884   4.618  0.1235  0.0022 -0.0817
 6240W        W22374   6.778   1.020  15.312  0.1619  0.3231 -0.1136
 6241W        W22375   5.822  15.775   1.288  0.0254  0.0027 -0.1590
 6242W        W22376   9.086  11.834  14.498  0.0507  0.3030 -0.4000
 6243W        W22377   5.829  10.290   0.611 -0.0011 -0.2650  0.0013
 6244W        W22378   7.463   6.902  12.101 -0.0653  0.0389 -0.1380
 6245W        W22379   4.947   1.209   2.663 -0.2283 -0.0290 -0.1077
 6246W        W22380  11.621   6.242   5.243 -0.1105 -0.5433  0.1934
 6247W        W22381   6.047  15.086   5.351 -0.1498  0.6701 -0.2080
 6248W        W22382   3.556   0.196   0.986  0.1315 -0.2746 -0.2730
 6249W        W22383   5.673   9.076   2.758 -0.0945 -0.1667  0.0192
 6250W        W22384   2.339   1.242  13.600  0.0267  0.0167  0.1151
 6251W        W22385  15.340   9.779  11.157 -0.1222 -0.4071 -0.1229
 6252W        W22386  14.992  14.805   3.301  0.2774 -0.0922  0.3179
 6253W        W22387  17.209  10.758  14.752  0.1725  0.1970  0.0140
 6254W        W22388  10.600   5.487  12.538 -0.0351 -0.0353 -0.3096
 6255W        W22389  17.823  10.016  11.892 -0.0842  0.1928  0.2443
 6256W        W22390  13.687   5.383  13.653 -0.0681 -0.0566 -0.0776
 6257W        W22391  13.180  17.537   3.345  0.0195 -0.1624 -0.2126
 6258W        W22392   3.160   7.133  15.578  0.2100 -0.3581 -0.1844
 6259W        W22393  14.673  11.893   2.262  0.6222 -0.0309  0.0212
 6260W        W22394   7.605   0.031  15.332 -0.0323  0.1960 -0.3669
 6261W        W22395   6.987   8.696  15.479  0.1433 -0.2879 -0.1283
 6262W        W22396  15.448  16.611  14.885  0.0640  0.0107 -0.2092
 6263W        W22397  11.579  17.005   4.973 -0.1327 -0.0562  0.1000
 6264W        W22398   7.378   0.641   5.551 -0.2351 -0.0916  0.1236
 6265W        W22399  10.400   5.438   0.170  0.1103 -0.0522  0.0533
 6266W        W22400   5.218  13.640  13.776 -0.2976 -0.0751 -0.0999
 6267W        W22401  17.413   5.653  15.010 -0.2127 -0.5050  0.0051
 6268W        W22402  16.328   1.805   4.689 -0.0315  0.3725  0.0690
 6269W        W22403  15.925  11.863   5.189  0.0009 -0.2260  0.3863
 6270W        W22404   3.341   1.528  14.471 -0.2016 -0.0887  0.3324
 6271W        W22405  15.070  12.760   3.542  0.1478  0.0847 -0.1765
 6272W        W22406  17.217  12.240  12.638  0.1471  0.2062  0.1865
 6273W        W22407  16.071  12.098  14.574  0.1732 -0.0093  0.0443
 6274W        W22408  10.765  12.832  14.290 -0.2208  0.0594  0.2448
 6275W        W22409   4.252   4.792   1.059 -0.1056 -0.2762  0.1844
 6276W        W22410   4.314   2.590   0.224  0.2767  0.0729 -0.1324
 6277W        W22411  12.364  14.743  16.070 -0.0100  0.2658  0.2742
 6278W        W22412   2.990   3.268  14.950  0.1126  0.0787  0.0378
 6279W        W22413  15.979   2.854  14.618  0.3204 -0.0371 -0.1461
 6280W        W22414   1.983   9.589   3.972  0.0373 -0.0833 -0.0690
 6281W        W22415   9.016  12.124  12.104 -0.2485  0.0660 -0.1747
 6282W        W22416   3.523  16.012   0.130 -0.0066  0.1345  0.1729
 6283W        W22417  10.546  15.888  15.539 -0.1217  0.2101 -0.0449
 6284W        W22418  12.541   7.162  14.835 -0.1595  0.0062  0.1067
 6285W        W22419  10.774   4.568  15.690  0.2076  0.1082  0.0931
 6286W        W22420  18.061   6.829  15.336  0.0909 -0.1432 -0.1417
 6287W        W22421   1.214  15.822  12.108 -0.1630  0.0838  0.1834
 6288W        W22422   7.912   9.994   3.441  0.1384 -0.2546  0.0917
 6289W        W22423  10.346  13.431  12.421  0.3283 -0.3887  0.2952
 6290W        W22424   3.648   9.693   4.392  0.0415  0.3271 -0.0409
 6291W        W22425  13.133   4.983  12.032  0.1892  0.1288 -0.0078
 6292W        W22426   3.444   1.581  13.569 -0.0512 -0.1460  0.2441
 6293W        W22427   6.510  14.204   1.009  0.1219 -0.1473  0.1387
 6294W        W22428   0.540   1.699  13.423 -0.2097  0.0535  0.1758
 6295W        W22429   8.059  12.674  12.731  0.0320  0.1873  0.1616
 6296W        W22430   7.513   7.247   4.791  0.0818 -0.0954 -0.2471
 6297W        W22431   9.059  16.937   2.235  0.0424 -0.1741 -0.0520
 6298W        W22432   1.237   2.937   0.205  0.0280 -0.1741 -0.0091
 6299W        W22433   6.268   8.008   3.379  0.0509 -0.0612 -0.0740
 6300W        W22434   9.307   9.635  13.061 -0.0034 -0.1916 -0.0871
 6301W        W22435  14.392   5.752  14.151 -0.1714 -0.0845  0.0772
 6302W        W22436   3.031  13.517   2.381 -0.0227  0.1148  0.0220
 6303W        W22437  17.720  14.336  14.584 -0.3050 -0.2799  0.2226
 6304W        W22438   0.683   0.000   5.402 -0.0744  0.2007  0.0304
 6305W        W22439   4.758   3.276   0.574 -0.1574  0.1387 -0.2125
 6306W        W22440   7.213   9.950  11.027  0.2222  0.3548 -0.0427
 6307W        W22441  15.161   3.183   5.085 -0.2084 -0.2432  0.0675
 6308W        W22442  14.882   4.082   1.791 -0.0608 -0.0491  0.0230
 6309W        W22443   8.333   1.123  12.243 -0.2020 -0.0491  0.1603
 6310W        W22444  12.318  15.106  15.486 -0.2544  0.1136  0.5043
 6311W        W22445  12.009   8.497   1.080 -0.4156 -0.0283  0.0583
 6312W        W22446  16.532  16.284  12.268  0.1581  0.1279 -0.1180
 6313W        W22447  15.517  14.322  11.721 -0.3936 -0.1267 -0.0212
 6314W        W22448  11.248   3.632   5.627 -0.1358  0.0448 -0.0862
 6315W        W22449  12.944  16.222  14.975 -0.0544  0.1888  0.0871
 6316W        W22450   4.351  17.417   4.888 -0.1018  0.0012 -0.1306
 6317W        W22451   5.271  18.133   0.744  0.1465  0.2220 -0.0088
 6318W        W22452  10.938  14.421  14.490 -0.1792 -0.2051 -0.1152
 6319W        W22453   0.491  14.727   0.842 -0.2979  0.1117  0.2340
 6320W        W22454   7.506  10.545   0.661 -0.1348 -0.0559  0.1696
 6321W        W22455   9.416   4.839  15.610  0.3054  0.0170  0.0243
 6322W        W22456   7.726  11.846  12.469  0.0921  0.1037 -0.3797
 6323W        W22457   6.362  15.829   5.683 -0.1591  0.0371  0.0847
 6324W        W22458  14.497   5.520  16.167  0.0808 -0.3721  0.0793
 6325W        W22459  13.067   9.275   0.047  0.0111  0.0692  0.0110
 6326W        W22460  16.854  15.935   5.811  0.0735 -0.1115 -0.0589
 6327W        W22461   9.921  12.518  12.313  0.0079  0.0512 -0.0048
 6328W        W22462  17.887  13.896   4.585 -0.0661  0.0311 -0.1794
 6329W        W22463  12.892   5.872  16.417  0.1771  0.2975  0.0825
 6330W        W22464   5.367   5.930  14.962 -0.0376 -0.0536 -0.0551
 6331W        W22465   1.752  14.933   1.634 -0.0773 -0.2148 -0.0772
 6332W        W22466  13.700  12.844  12.482  0.3560 -0.1717  0.1008
 6333W        W22467   2.769  15.707  14.031  0.0281 -0.1755 -0.1242
 6334W        W22468   1.281  13.043   1.068  0.0435 -0.0131 -0.1445
 6335W        W22469   3.630   4.272   4.613  0.0053 -0.3182 -0.1178
 6336W        W22470  11.358  17.119  12.104  0.0571  0.2648 -0.1074
 6337W        W22471   3.374  12.140   5.428  0.2034  0.0529 -0.0401
 6338W        W22472   2.045  10.087  15.622  0.0030  0.1294 -0.1711
 6339W        W22473   4.439  15.752   1.682  0.0567  0.0136 -0.3030
 6340W        W22474  12.763  16.421  15.442 -0.1333 -0.1410  0.2350
 6341W        W22475  10.483  15.945   5.377 -0.0656  0.1668 -0.2246
 6342W        W22476   3.381  15.492  15.426 -0.2821  0.2609  0.3797
 6343W        W22477   3.122   3.744   1.714  0.3923 -0.2997  0.0502
 6344W        W22478  15.609  11.787   2.137  0.2744 -0.0918 -0.1798
 6345W        W22479  17.774   6.209   3.103 -0.0868 -0.0494  0.2559
 6346W        W22480   3.794  11.363  14.183 -0.1568 -0.0083 -0.1312
 6347W        W22481   9.000  11.218  12.131 -0.3255 -0.0948  0.0659
 6348W        W22482  16.490   9.973  12.937  0.3151 -0.0744  0.0080
 6349W        W22483   2.975   1.858  11.952 -0.1918  0.2052 -0.2680
 6350W        W22484   1.517   3.190  15.811 -0.1302  0.2633 -0.1728
 6351W        W22485  14.659  12.357  16.245 -0.1132 -0.0502 -0.1898
 6352W        W22486   8.663   1.116   5.227 -0.1347 -0.2743 -0.0712
 6353W        W22487  15.278   9.919  14.219  0.0879  0.1458  0.0822
 6354W        W22488   8.933   7.178  10.556 -0.0680  0.0448  0.2509
 6355W        W22489  10.599  14.066   0.832  0.1041  0.0387 -0.0208
 6356W        W22490  11.542   3.806  14.914  0.0249  0.2231  0.2522
 6357W        W22491  17.339   4.981  11.502 -0.0568 -0.0058  0.0302
 6358W        W22492  18.008   3.422   0.861  0.0497 -0.3438  0.0111
 6359W        W22493   2.409   5.910   5.108  0.0131 -0.0291  0.0431
 6360W        W22494   9.535  10.651   0.128 -0.0954 -0.2697 -0.0573
 6361W        W22495  17.897   8.138  11.536 -0.0337 -0.1689  0.1875
 6362W        W22496  17.456  17.356   0.828  0.2948 -0.3169  0.0076
 6363W        W22497   0.222   3.541  16.361 -0.2241 -0.1689  0.2128
 6364W        W22498  15.502  14.331   1.504 -0.0300 -0.0013 -0.1427
 6365W        W22499   4.039  16.943   5.789 -0.1729  0.2000 -0.1556
 6366W        W22500   6.370   0.972   3.962  0.1402 -0.2173  0.0738
 6367W        W22501   0.220  14.930  12.371 -0.0495 -0.0195  0.1830
 6368W        W22502  15.447   1.971   2.065 -0.1205  0.2323  0.0253
 6369W        W22503   5.549   4.888  16.364 -0.1782 -0.2138  0.1543
 6370W        W22504   5.182   2.160   3.831  0.1232  0.0366 -0.2207
 6371W        W22505   0.389   0.551   4.700 -0.2904 -0.0694 -0.2529
 6372W        W22506  17.087   3.205   5.187 -0.3254  0.0350 -0.1831
 6373W        W22507  17.243   8.554   1.432  0.3028  0.2064 -0.0019
 6374W        W22508   0.003   7.389   4.656  0.1401 -0.2738 -0.1268
 6375W        W22509   8.368  10.706  13.446 -0.1304  0.0526 -0.1091
 6376W        W22510  11.770   2.713  12.126 -0.0324 -0.0333 -0.2158
 6377W        W22511   6.072  11.578   0.664  0.2722  0.2083 -0.0749
 6378W        W22512  14.749   2.871  15.101  0.4144  0.0128  0.0295
 6379W        W22513  12.536  10.131   3.713  0.2274  0.0046 -0.0760
 6380W        W22514  17.897  13.868   2.677 -0.0928  0.1238  0.1594
 6381W        W22515   0.517  10.847  14.883 -0.1421 -0.0146  0.3198
 6382W        W22516  12.482   7.450  12.580 -0.2988  0.0661  0.0284
 6383W        W22517  13.359   4.361   1.900  0.1529  0.0535  0.2948
 6384W        W22518  12.937   4.579   4.602 -0.0686 -0.1802  0.2215
 6385W        W22519   0.468   5.535  13.557 -0.0866 -0.0327 -0.1086
 6386W        W22520   2.238   7.571   4.264 -0.2766 -0.1232 -0.1245
 6387W        W22521   2.651   4.445   0.506  0.1810 -0.1178  0.0205
 6388W        W22522   8.454  14.959  15.092 -0.0187 -0.1714  0.1196
 6389W        W22523  17.339   0.701   3.159 -0.0204 -0.5004 -0.0649
 6390W        W22524   4.238  14.414  13.231  0.2063  0.0475 -0.0739
 6391W        W22525  17.815   2.064   0.082  0.0599  0.0462  0.2292
 6392W        W22526  14.571   2.780  15.563 -0.1113 -0.2593 -0.0001
 6393W        W22527   6.013   2.946  12.864  0.1169 -0.2543  0.3120
 6394W        W22528  16.851  15.495  12.477 -0.0762  0.1993  0.0553
 6395W        W22529   5.118  12.010   3.003  0.4369 -0.4198 -0.0721
 6396W        W22530   8.003   1.068   6.782  0.3209 -0.0326  0.0174
 6397W        W22531  17.334   9.946   1.999  0.0579  0.1233 -0.2034
 6398W        W22532   0.277   6.117   4.506 -0.0296 -0.0272 -0.0771
 6399W        W22533   5.219   4.670   6.044 -0.1757 -0.2356 -0.1784
 6400W        W22534  16.457   8.341  13.575 -0.2639 -0.3979  0.0791
 6401W        W22535  10.325  16.070   1.299  0.1865 -0.0706  0.3347
 6402W        W22536   6.203   0.053   2.926 -0.1717  0.0913  0.2000
 6403W        W22537   3.917  10.650   1.274  0.0269 -0.1957  0.4953
 6404W        W22538   7.129  16.910   5.450 -0.3227  0.0576 -0.2892
 6405W        W22539   9.961   3.372   5.261 -0.2265  0.2843  0.1068
 6406W        W22540   3.075  16.651  13.123 -0.0070 -0.1880  0.0157
 6407W        W22541   3.068   8.547  12.290  0.1421 -0.0801  0.0962
 6408W        W22542   5.067   9.095   3.034 -0.2139  0.0719 -0.1833
 6409W        W22543  17.766   4.843   2.327 -0.0341  0.0189  0.0728
 6410W        W22544   7.518  16.733  14.903 -0.0353 -0.0985 -0.3702
 6411W        W22545   4.139  11.672  14.204 -0.2038 -0.3282 -0.1172
 6412W        W22546  14.727  14.939  13.078  0.2277  0.1595 -0.0993
 6413W        W22547   4.135   6.679   1.235 -0.1795  0.0926  0.2376
 6414W        W22548  14.626  11.638  14.465  0.1021  0.0063  0.0149
 6415W        W22549   6.449   1.386  13.045 -0.1984  0.1519  0.0237
 6416W        W22550   1.933  13.155   4.314  0.4347 -0.0588  0.0724
 6417W        W22551   1.580   0.364  16.326  0.2390  0.1262  0.0620
 6418W        W22552  17.929   5.666   2.071 -0.0284  0.1918 -0.0767
 6419W        W22553   9.586   2.282   2.310  0.2203 -0.1404  0.1300
 6420W        W22554   6.234  10.294  12.986 -0.0991 -0.1237 -0.1939
 6421W        W22555  15.805  11.924  13.273  0.1366  0.3008 -0.2138
 6422W        W22556   1.783   3.026   2.303 -0.4260 -0.0201 -0.0630
 6423W        W22557  15.581  17.631  12.207  0.1317  0.3192 -0.4105
 6424W        W22558   4.067  11.605  12.430  0.1638  0.3399  0.0799
 6425W        W22559  12.110   9.828   3.533  0.1683  0.0906 -0.2004
 6426W        W22560  15.395   7.577  13.810 -0.0730 -0.2456 -0.0016
 6427W        W22561  15.905   4.657  15.226 -0.2967 -0.0058 -0.0376
 6428W        W22562   8.594  17.528   1.088 -0.0705 -0.2298  0.0840
 6429W        W22563  14.748   8.081  15.521  0.1212 -0.3645 -0.0132
 6430W        W22564  13.205  12.206  13.454 -0.0600  0.1727 -0.2347
 6431W        W22565   5.479  10.061  13.151 -0.3076  0.2594  0.1660
 6432W        W22566   5.885  13.592  14.490 -0.0932  0.1967  0.2955
 6433W        W22567   4.957   2.698  12.690  0.1679 -0.1834  0.3586
 6434W        W22568  10.114  14.765  11.999 -0.1484 -0.1582  0.1729
 6435W        W22569  16.477  17.524   4.478 -0.0040  0.0894 -0.1754
 6436W        W22570   8.071  17.075  14.075  0.1391 -0.1000  0.1114
 6437W        W22571  17.065   2.264   5.579 -0.0318  0.1907  0.4681
 6438W        W22572   0.994   2.062   4.082  0.0399 -0.0952 -0.4407
 6439W        W22573   5.985   1.985   2.607  0.0622 -0.0047  0.0708
 6440W        W22574   7.993  14.494  11.815  0.0023 -0.0594  0.1392
 6441W        W22575  15.749   6.867  15.876  0.0754 -0.0613  0.0107
 6442W        W22576  13.498   5.630   3.615  0.1100  0.2544  0.1795
 6443W        W22577   2.817   5.229  13.479 -0.1090 -0.0944 -0.2100
 6444W        W22578  14.493   9.538  11.456  0.2009 -0.1062 -0.4627
 6445W        W22579   8.950   9.834   1.590  0.2544 -0.0690  0.0196
 6446W        W22580   8.813   7.932   5.162 -0.0638 -0.1360  0.0026
 6447W        W22581   7.127  16.650   2.131  0.2182 -0.0901 -0.1220
 6448W        W22582  17.750   8.196  10.557  0.1385  0.0473 -0.1623
 6449W        W22583   5.267   0.115   1.838 -0.0181  0.0470  0.2315
 6450W        W22584  17.690   3.792  15.822 -0.2580  0.0507  0.0065
 6451W        W22585   3.540  16.790  14.783  0.0855 -0.1555  0.0527
 6452W        W22586  10.633   7.111  13.811 -0.0479 -0.1971 -0.1010
 6453W        W22587  16.926   5.129   0.935  0.0504  0.0081 -0.5849
 6454W        W22588   6.457   6.557  13.107  0.1620  0.1905  0.1892
 6455W        W22589  18.139   8.073  12.700  0.0723  0.1566 -0.2109
 6456W        W22590  11.808   0.735  14.426  0.0291  0.2011 -0.2916
 6457W        W22591  15.867   5.036   3.702 -0.1953  0.3083 -0.0872
 6458W        W22592  13.586   7.992  14.745 -0.0860  0.1918 -0.1786
 6459W        W22593  16.634  16.952   5.035 -0.0920 -0.1525 -0.2478
 6460W        W22594  10.237   9.277   4.451 -0.2535  0.1758 -0.2482
 6461W        W22595  17.309  11.299  12.451 -0.1937 -0.2527  0.1089
 6462W        W22596  14.302   2.223   0.188  0.1248  0.2082  0.0021
 6463W        W22597   5.205   8.449  13.862 -0.4293 -0.1238 -0.1260
 6464W        W22598   7.330  14.620   0.583 -0.3090 -0.0243 -0.1952
 6465W        W22599  18.134   1.041   4.972  0.1742  0.2432 -0.0336
 6466W        W22600  13.416   1.351  15.845  0.0223  0.0720 -0.1230
 6467W        W22601  11.361   1.090   1.285  0.0585 -0.2181 -0.0540
 6468W        W22602  10.525   2.319  15.511  0.1634  0.3493 -0.3164
 6469W        W22603  10.267   7.025   3.218  0.3636  0.4298  0.0947
 6470W        W22604   3.489   0.144   5.460  0.0100  0.0811 -0.2390
 6471W        W22605   7.937  10.610   1.639 -0.0634  0.1321  0.0616
 6472W        W22606  11.287  12.279   3.953  0.3312  0.1567 -0.0585
 6473W        W22607  13.302   8.871  15.247 -0.1495  0.0338 -0.0753
 6474W        W22608  12.865  12.711   4.435  0.0728  0.1594  0.2500
 6475W        W22609  10.910   9.731  12.054 -0.0549  0.2491 -0.1872
 6476W        W22610   6.936  15.317  15.999 -0.1158  0.2062  0.0528
 6477W        W22611   9.508   6.870   4.827  0.0995 -0.1835 -0.0340
 6478W        W22612   0.690  12.602  11.950  0.2304 -0.0276  0.1673
 6479W        W22613   7.091   8.915  11.403 -0.2167  0.0089  0.0318
 6480W        W22614   6.880   2.359  12.662 -0.0181  0.2486 -0.1108
 6481W        W22615  17.960  15.954   0.649 -0.1338  0.0225  0.3938
 6482W        W22616  10.894   5.098  12.779 -0.1219 -0.4084  0.3258
 6483W        W22617   8.751   6.785   0.483  0.2528  0.1513 -0.1460
 6484W        W22618   3.660  17.078   4.561 -0.2414  0.2101 -0.1941
 6485W        W22619  12.049   1.170  14.678 -0.0930 -0.0850 -0.1198
 6486W        W22620  17.179   0.537  14.134  0.2924 -0.2614  0.0645
 6487W        W22621  12.361   8.525  15.868 -0.1196 -0.0652 -0.2821
 6488W        W22622   6.394   0.169   3.978  0.1846  0.1483  0.2117
 6489W        W22623   4.210   9.702  12.099  0.0298  0.1015  0.1960
 6490W        W22624  17.617  14.331  12.040 -0.1268 -0.2476  0.0460
 6491W        W22625   0.457   4.707   2.320  0.0816 -0.1646  0.0150
 6492W        W22626  11.972  17.661   4.702 -0.2699 -0.1305 -0.3224
 6493W        W22627   1.338   4.354  14.700  0.3063  0.0628 -0.2367
 6494W        W22628  14.649   5.840   4.348  0.1761  0.0240 -0.0083
 6495W        W22629   2.340  13.991   0.653  0.1001  0.0637 -0.3230
 6496W        W22630  17.983   7.382   3.404  0.1225  0.3190  0.1526
 6497W        W22631  14.058   1.098  14.227  0.2204  0.0191 -0.0912
 6498W        W22632   9.050   3.254   5.889 -0.3749  0.3830 -0.1793
 6499W        W22633   5.536  10.810  14.982  0.0372  0.1797 -0.0663
 6500W        W22634  17.120  16.303  15.265 -0.0616  0.3053  0.3221
 6501W        W22635  14.460   7.008  10.771  0.4210  0.1076 -0.0075
 6502W        W22636  16.797   3.482  12.940 -0.0611  0.0538 -0.0661
 6503W        W22637   7.056  10.315  15.273 -0.1477  0.1760 -0.4479
 6504W        W22638  11.769  10.485  11.731 -0.2844 -0.2302 -0.1937
 6505W        W22639   5.228   1.246   4.380 -0.3599  0.3594  0.0870
 6506W        W22640   3.935   3.000  13.708  0.4009  0.1028 -0.2355
 6507W        W22641   9.644   0.254  15.488 -0.0616 -0.0723 -0.0762
 6508W        W22642   6.869   3.734  14.918  0.2959 -0.0963 -0.1451
 6509W        W22643   1.756   0.982  15.015  0.3102 -0.0063  0.2856
 6510W        W22644  17.934  17.971  15.270 -0.0628  0.1555  0.3443
 6511W        W22645  16.948   1.683   4.577  0.0097  0.0185 -0.0395
 6512W        W22646  16.900   3.481  15.868  0.2264 -0.3436 -0.2165
 6513W        W22647   6.608   4.782   6.192 -0.2878 -0.1841 -0.2105
 6514W        W22648  14.330   0.215   5.559  0.1011  0.3044  0.0661
 6515W        W22649  12.400  12.441   2.993 -0.1495 -0.4065 -0.3084
 6516W        W22650   6.299   2.504  14.544 -0.3275  0.1701 -0.3029
 6517W        W22651   7.858   8.640   3.508  0.1893  0.0918 -0.1856
 6518W        W22652  16.477   5.150  16.426  0.3698  0.2369 -0.1672
 6519W        W22653  11.885  13.647  15.766  0.0807  0.2539  0.2066
 6520W        W22654   6.067  17.856   2.071 -0.0557 -0.0539  0.1934
 6521W        W22655   0.127   2.944  15.120  0.0658 -0.0955  0.2839
 6522W        W22656   1.751   6.611  12.614 -0.0509  0.3461  0.1086
 6523W        W22657  16.309   3.368   1.177  0.0612  0.0922  0.0013
 6524W        W22658   7.759  10.960  12.178 -0.2625  0.1419 -0.2657
 6525W        W22659  17.777   5.795  14.200  0.1338 -0.1321  0.2425
 6526W        W22660   0.345   8.048  11.043  0.0161 -0.1765 -0.1536
 6527W        W22661   1.011  12.766   5.505  0.0309  0.0285  0.1768
 6528W        W22662   1.713   4.674   5.865 -0.0395  0.0681 -0.1354
 6529W        W22663  17.501   4.501   0.543  0.5190 -0.1695  0.1687
 6530W        W22664   9.863   0.935  12.889 -0.2988  0.4103  0.0082
 6531W        W22665  11.370   5.728  13.267 -0.1847 -0.0371 -0.0465
 6532W        W22666  10.675   7.888  13.602  0.0823 -0.2635 -0.0331
 6533W        W22667  12.462   4.983  15.206  0.4515  0.0155 -0.0060
 6534W        W22668   4.577   9.618  13.656 -0.0400 -0.1710  0.1281
 6535W        W22669  13.280   3.534  15.420 -0.1563 -0.0092  0.1087
 6536W        W22670   1.510  14.470   1.721 -0.0366  0.0924 -0.1528
 6537W        W22671  17.359   6.793   3.155 -0.2755  0.0763 -0.0858
 6538W        W22672  16.041   3.842  14.406 -0.2661 -0.0673 -0.2587
 6539W        W22673   2.961  13.855   0.056 -0.2352 -0.2103 -0.2777
 6540W        W22674   7.201  13.586   0.651  0.1485 -0.1960 -0.0096
 6541W        W22675   4.245   3.103   2.408 -0.0144  0.0611  0.0194
 6542W        W22676   5.886   4.342   2.674 -0.1675 -0.1046 -0.1091
 6543W        W22677   7.930   4.306  12.326 -0.5579  0.2131 -0.2971
 6544W        W22678   2.168   5.231   3.718 -0.1240 -0.0828  0.2418
 6545W        W22679   0.527   5.399   2.915 -0.0569 -0.0779 -0.1981
 6546W        W22680  11.469  14.403  13.118 -0.1032  0.0911 -0.0082
 6547W        W22681   3.958   3.483  11.910 -0.0795 -0.0691  0.1258
 6548W        W22682  16.533  16.663   6.588  0.0583 -0.2600 -0.0523
 6549W        W22683   8.058  15.256  16.089 -0.0341  0.2348  0.1107
 6550W        W22684   8.132  17.740   5.109 -0.1556  0.0508 -0.2227
 6551W        W22685  12.572   5.807  11.749  0.0336 -0.0458  0.0294
 6552W        W22686   6.000  11.585  13.187  0.1134 -0.4932 -0.1263
 6553W        W22687   7.333   8.200   3.204 -0.0487  0.0891  0.2156
 6554W        W22688   3.335  10.448   0.339  0.0362 -0.0681 -0.1675
 6555W        W22689   9.479   8.939  16.477 -0.1177  0.0851  0.3524
 6556W        W22690   5.268   4.315   3.440  0.1769 -0.0785 -0.3901
 6557W        W22691   5.846   3.255  14.912  0.1887  0.0238  0.1844
 6558W        W22692  11.183  17.682  14.654  0.1092  0.0814  0.0381
 6559W        W22693   8.378  11.890  12.518 -0.1369  0.0479  0.0790
 6560W        W22694   4.201  17.381   5.988 -0.1590 -0.1136  0.0436
 6561W        W22695  15.869  16.866  14.858 -0.0407 -0.2475  0.0557
 6562W        W22696   0.054  14.596  14.671 -0.0985  0.1195 -0.1763
 6563W        W22697   5.772   8.104  13.789  0.0027 -0.2202  0.1937
 6564W        W22698  14.161   2.380   1.115  0.1540 -0.1313 -0.2104
 6565W        W22699   8.670  16.341   1.836 -0.0965  0.1300 -0.1619
 6566W        W22700   5.893   4.067   3.194 -0.1198  0.2170  0.2952
 6567W        W22701   5.020   2.227  15.465 -0.3332 -0.0577 -0.2992
 6568W        W22702  10.703  11.070  15.433 -0.0858  0.0825 -0.2851
 6569W        W22703   1.064   1.091   0.127 -0.1046 -0.0774 -0.0597
 6570W        W22704  11.964   7.381   3.800  0.1881  0.1275  0.1145
 6571W        W22705   9.601   3.590   5.045  0.3989 -0.2786 -0.1058
 6572W        W22706   7.221   5.222   0.397 -0.0223 -0.0523 -0.2412
 6573W        W22707  12.894  13.848  12.865  0.2490  0.1229  0.0165
 6574W        W22708   9.919  12.919   5.103 -0.1428 -0.1659 -0.6293
 6575W        W22709  14.786  14.410   2.397  0.3103 -0.1463 -0.1821
 6576W        W22710   4.266   8.839  11.808  0.0966  0.1948  0.0649
 6577W        W22711   7.942   7.387   2.871  0.2237  0.2178 -0.0680
 6578W        W22712  11.242  11.088   2.032  0.1823  0.2420  0.1693
 6579W        W22713   4.719   4.832   3.675  0.0664  0.0317  0.0230
 6580W        W22714   3.597   0.771   2.255  0.1077 -0.0711 -0.1378
 6581W        W22715   8.442   0.382   3.069 -0.1166 -0.0512 -0.1704
 6582W        W22716   4.606   5.208   0.338 -0.2204 -0.0989  0.1055
 6583W        W22717   1.222   8.573  10.915  0.0320 -0.0466  0.0995
 6584W        W22718   1.295   9.194  14.773 -0.0107 -0.0383 -0.3000
 6585W        W22719  15.567   4.377   4.188  0.0354 -0.0720  0.1685
 6586W        W22720  14.538   9.732  12.330  0.3186  0.1466  0.3267
 6587W        W22721   2.094  13.625  15.871 -0.1070 -0.0079  0.3044
 6588W        W22722  16.468  14.526   0.156 -0.1841 -0.1006  0.1997
 6589W        W22723   5.882  16.511   5.056  0.1736  0.0905  0.0506
 6590W        W22724   9.906  16.760   2.725 -0.2482 -0.1568  0.1513
 6591W        W22725   0.639  14.963  15.307  0.0178 -0.1475  0.2179
 6592W        W22726  11.993   6.506   0.366 -0.3635 -0.0456 -0.0026
 6593W        W22727   0.589  12.119  14.279 -0.0332 -0.2551  0.3462
 6594W        W22728   2.243  14.853   1.457  0.1567  0.0335  0.0145
 6595W        W22729   7.577  13.543   2.720 -0.1193 -0.2349  0.4023
 6596W        W22730   7.558   1.926   1.948  0.0008 -0.0135 -0.1592
 6597W        W22731  15.172  14.012  13.916 -0.2698 -0.3521 -0.2540
 6598W        W22732   8.576  13.373  14.187  0.0084  0.1341  0.1113
 6599W        W22733  14.182   9.684   4.252 -0.1497 -0.1336 -0.1991
 6600W        W22734   1.536  10.495   1.883  0.0852 -0.0718 -0.0962
 6601W        W22735  17.376  11.946  13.928  0.1535  0.0660  0.1320
 6602W        W22736   9.916   5.973  14.351 -0.2594 -0.0124 -0.1821
 6603W        W22737   1.292  15.938   4.650 -0.2396 -0.0454 -0.0057
 6604W        W22738   7.720  14.842   0.339  0.1570  0.0479  0.2607
 6605W        W22739  10.781   4.169  14.476 -0.1356 -0.0178  0.3229
 6606W        W22740  13.738  13.001  16.336  0.1604 -0.0420 -0.2810
 6607W        W22741   0.668  17.856   6.000  0.3043  0.1823  0.2391
 6608W        W22742  13.798  12.800  15.880  0.2324  0.1407  0.1300
 6609W        W22743  13.193   2.734   4.755  0.0884  0.1501 -0.1123
 6610W        W22744  10.560   9.490  15.476 -0.0180 -0.0651 -0.3441
 6611W        W22745   1.474  15.620   3.310 -0.1149 -0.0233 -0.0201
 6612W        W22746  15.194   9.753   2.012  0.1147  0.4715 -0.1848
 6613W        W22747  17.883  17.510  16.037 -0.0486 -0.3545  0.2382
 6614W        W22748  15.184   4.749  13.213 -0.0741  0.1345 -0.0434
 6615W        W22749   0.199   6.095   0.317  0.0306 -0.1408 -0.0709
 6616W        W22750   1.673   9.901   2.898 -0.0813 -0.0588 -0.2668
 6617W        W22751  15.009   8.939   3.341  0.0750 -0.1800 -0.0979
 6618W        W22752   1.630   4.712  13.843  0.0752  0.4591  0.1552
 6619W        W22753  14.225   1.743  12.872  0.1741  0.0617 -0.1598
 6620W        W22754   3.661  10.081  15.932  0.0050  0.0533 -0.1776
 6621W        W22755  17.742   7.159   1.306  0.1409  0.0193 -0.0252
 6622W        W22756  17.476   8.910  15.576 -0.0642 -0.1168 -0.1730
 6623W        W22757   2.131  14.874   0.946 -0.0516  0.0129  0.0867
 6624W        W22758   8.112  14.789   3.087  0.2035  0.4620  0.2638
 6625W        W22759  14.778   1.457  11.920 -0.0422 -0.0444 -0.1240
 6626W        W22760  14.243  14.231   4.463 -0.0496 -0.1285 -0.0515
 6627W        W22761   7.791  17.020  15.912  0.2293  0.2622  0.1201
 6628W        W22762  10.781  16.423  12.225 -0.2104  0.0441  0.4203
 6629W        W22763  16.854   4.263  13.806 -0.1730  0.1407  0.0012
 6630W        W22764   9.556  17.255  16.200 -0.0679  0.2135  0.1962
 6631W        W22765  11.875  15.178  13.787  0.1711  0.1028  0.1992
 6632W        W22766   9.007   0.194  16.166 -0.1761  0.0627  0.2676
 6633W        W22767  16.331  18.098   0.560  0.0480  0.0288  0.2382
 6634W        W22768  13.344  11.008   1.717 -0.0397 -0.1879 -0.2285
 6635W        W22769   0.760   4.690  16.486  0.2506  0.1567 -0.1396
 6636W        W22770   5.683   4.875   3.806 -0.2461 -0.0435 -0.0253
 6637W        W22771   6.075   6.540  15.268  0.1456  0.0757  0.1605
 6638W        W22772   0.234  17.930   3.570  0.1542  0.0400 -0.1399
 6639W        W22773  12.903  15.432  16.049 -0.1250  0.1585 -0.3914
 6640W        W22774  14.314  14.662   4.653 -0.0194 -0.2847  0.4730
 6641W        W22775  15.429   3.469   2.056  0.2768 -0.1034 -0.0649
 6642W        W22776   2.579   5.093   2.665 -0.3545  0.0154 -0.2402
 6643W        W22777   0.838   6.490  16.157 -0.0486  0.0672 -0.0169
 6644W        W22778   6.838   7.608   0.718  0.1312 -0.1692  0.1875
 6645W        W22779   6.361  12.081   1.896 -0.0331  0.2113  0.0168
 6646W        W22780   8.785   0.054   2.204 -0.1113 -0.3453  0.3672
 6647W        W22781   0.066  10.039  16.307 -0.1353 -0.2920 -0.2432
 6648W        W22782  12.227   2.450   0.322  0.2923  0.0089  0.1306
 6649W        W22783   5.026  17.351   3.252 -0.2235  0.0974  0.1288
 6650W        W22784   7.283  10.357  11.451  0.0999 -0.0584  0.4982
 6651W        W22785   1.034  11.357   4.711 -0.0097  0.0073 -0.0639
 6652W        W22786  16.854   1.272  12.829  0.0780 -0.0445 -0.1215
 6653W        W22787   5.129   1.967  16.342  0.1006 -0.3395 -0.3264
 6654W        W22788   1.003  17.437   0.814  0.0507  0.0890  0.2356
 6655W        W22789   1.494  10.201  12.510  0.0929  0.1094 -0.0358
 6656W        W22790   0.098   5.447  11.131 -0.2866  0.1933  0.1087
 6657W        W22791   4.209  17.046  11.531  0.0642 -0.1589 -0.0267
 6658W        W22792   3.319   1.924  16.260  0.1483 -0.1469  0.2633
 6659W        W22793   9.091   6.753   4.555  0.0298 -0.1623 -0.2467
 6660W        W22794  14.746  12.031  11.987 -0.0903  0.0127  0.1947
 6661W        W22795   1.147   6.749  11.392 -0.1637  0.0365  0.2732
 6662W        W22796   3.641  16.928   1.215  0.2838  0.3580 -0.0265
 6663W        W22797   8.184  12.100   4.605 -0.1045  0.1435 -0.1611
 6664W        W22798   8.065  11.141   2.417 -0.0013 -0.2612 -0.1443
 6665W        W22799   6.487  10.629   4.707 -0.1067  0.0203 -0.0428
 6666W        W22800  15.568   4.786  12.757  0.3620 -0.0030 -0.0444
 6667W        W22801   1.441  15.582  12.539 -0.1207  0.2123 -0.2118
 6668W        W22802  17.131  15.284   3.303 -0.0369  0.2966  0.0072
 6669W        W22803   4.838  15.739   5.800 -0.2276 -0.1694  0.0148
 6670W        W22804  14.268   1.716   1.475 -0.2512  0.1973 -0.2741
 6671W        W22805  13.481  15.639   1.423  0.0102 -0.2365  0.1169
 6672W        W22806   8.457   6.932  14.643 -0.1279  0.1248 -0.0568
 6673W        W22807  17.805  11.683   2.051  0.0800 -0.0969  0.0394
 6674W        W22808   0.707  10.409   0.063  0.1103 -0.0922 -0.0128
 6675W        W22809  10.446   8.907   1.049 -0.4067 -0.0023  0.1097
 6676W        W22810  16.589  10.169  16.234 -0.0100  0.0988  0.3337
 6677W        W22811   2.741   2.489  15.024 -0.1734 -0.1078  0.0717
 6678W        W22812   8.585  11.388   3.600 -0.0552  0.3039  0.1588
 6679W        W22813   3.557   2.821   1.361 -0.0812  0.2304  0.3308
 6680W        W22814  14.864  13.291   4.900  0.0180 -0.0181 -0.0404
 6681W        W22815   5.425  14.332   4.824  0.1848 -0.1857  0.2288
 6682W        W22816   1.699   4.412   3.914  0.0642  0.0543  0.0333
 6683W        W22817   7.132   9.015   3.827 -0.2610 -0.1578 -0.0059
 6684W        W22818  11.886   7.527  14.218 -0.1296 -0.1664 -0.1694
 6685W        W22819  16.558   6.529  11.885 -0.0560  0.0077  0.3726
 6686W        W22820   5.588  15.770  12.501 -0.0930 -0.0950  0.1959
 6687W        W22821  18.142  11.111  11.197  0.1150  0.1491 -0.0495
 6688W        W22822   5.175  15.323   1.767  0.0201 -0.0477  0.1222
 6689W        W22823   8.770  14.363   4.136 -0.0521  0.2895 -0.0652
 6690W        W22824   5.350   5.552   3.240  0.1466 -0.1742 -0.0334
 6691W        W22825   4.696   0.039  15.349 -0.0818  0.1189  0.3878
 6692W        W22826   1.274  14.927   1.873 -0.2055  0.2798 -0.1627
 6693W        W22827   2.971   2.148   3.581 -0.0151 -0.0497 -0.0962
 6694W        W22828  11.004   2.354   2.293 -0.0906  0.1139  0.0760
 6695W        W22829  15.122  12.524  14.726 -0.3615  0.3067 -0.1464
 6696W        W22830   5.123  14.533  13.467  0.1819  0.3977  0.0299
 6697W        W22831  17.062   8.035  14.672  0.1830 -0.0134 -0.3950
 6698W        W22832   0.330   8.993  16.454  0.0956  0.1153 -0.1389
 6699W        W22833  17.516   8.125  14.373 -0.2244  0.1227  0.2093
 6700W        W22834  17.094  13.284  14.500 -0.0929 -0.0433 -0.3524
 6701W        W22835  16.472   9.345  12.597  0.0781  0.0194  0.2148
 6702W        W22836  12.216   1.083   0.525  0.0022  0.3608 -0.2748
 6703W        W22837   0.285   0.285  15.681  0.0229 -0.2065 -0.1004
 6704W        W22838   4.144  15.511   2.665  0.1015 -0.0776  0.2852
 6705W        W22839   6.493   1.492  16.028  0.1758  0.0387  0.1644
 6706W        W22840   1.836  12.568   0.617 -0.2022 -0.0130 -0.0761
 6707W        W22841   5.310  12.395   3.282 -0.0984 -0.0885 -0.1094
 6708W        W22842   9.412   2.535  12.431 -0.2659  0.2057  0.0870
 6709W        W22843   0.725   7.165   1.882  0.0266  0.0923  0.2617
 6710W        W22844   5.664   8.265  15.558 -0.2472 -0.0552  0.2326
 6711W        W22845   4.717   0.926  14.892 -0.0499 -0.0035 -0.0346
 6712W        W22846   2.308   5.300  13.678 -0.1378  0.0609  0.1155
 6713W        W22847  10.108  11.401   3.756 -0.1543 -0.3011  0.0011
 6714W        W22848   8.214   5.041   1.366  0.0264 -0.3628 -0.0642
 6715W        W22849   7.389  11.507  16.312  0.2490 -0.0660 -0.1708
 6716W        W22850  10.107   4.988  15.182 -0.0290 -0.0839 -0.0699
 6717W        W22851   2.744   6.841   5.143  0.1694  0.1614  0.1411
 6718W        W22852  11.537  14.984   5.574  0.2065  0.1592 -0.1099
 6719W        W22853  15.143   7.185  15.076  0.0150 -0.0790 -0.3121
 6720W        W22854  12.013  17.170  15.456 -0.1328 -0.2496 -0.2634
 6721W        W22855   3.343   4.693   3.390 -0.2722  0.3908 -0.0660
 6722W        W22856   7.855   3.431  14.709 -0.4283 -0.0034 -0.0778
 6723W        W22857   1.801   3.439   3.543 -0.1327  0.0339 -0.0062
 6724W        W22858   2.139  10.432   1.055  0.0480  0.2553  0.0547
 6725W        W22859   8.482   1.928   2.048 -0.0541 -0.0194  0.0556
 6726W        W22860  14.053  16.912  14.783 -0.0418 -0.3677  0.0348
 6727W        W22861   3.867   0.255  11.825  0.1009 -0.0340  0.0287
 6728W        W22862   0.715   1.057  13.841 -0.4783  0.1590 -0.1918
 6729W        W22863  12.904   8.366  11.125 -0.0771  0.3579 -0.1347
 6730W        W22864  13.177   5.454   4.074  0.1385 -0.1477 -0.4211
 6731W        W22865   9.714   9.011  11.581  0.0130 -0.2115  0.6855
 6732W        W22866   2.700   0.371   2.529 -0.0245  0.0972 -0.3653
 6733W        W22867  13.553   7.359  11.832 -0.1273  0.0581  0.1140
 6734W        W22868  11.211   0.815  14.649 -0.0508  0.1270  0.0439
 6735W        W22869   6.049  14.459   3.707  0.1383 -0.1646 -0.1396
 6736W        W22870  14.731  14.599   0.399  0.2662  0.1853  0.0429
 6737W        W22871   9.984   5.433   1.574  0.1507  0.1091  0.3041
 6738W        W22872   2.513   6.364   5.904  0.3063  0.1063  0.0500
 6739W        W22873  15.571   7.387  13.295 -0.2039 -0.1410  0.2877
 6740W        W22874  17.066  11.805  12.438  0.1102 -0.3801  0.0200
 6741W        W22875  11.157  13.983   3.204 -0.0763 -0.1122 -0.0878
 6742W        W22876   6.087  14.470   4.298 -0.4452 -0.0731  0.3049
 6743W        W22877   5.124  17.734   2.385 -0.1046  0.3192  0.0236
 6744W        W22878  16.069   0.861   0.923 -0.0312 -0.2209 -0.0693
 6745W        W22879   0.197  10.134  14.459  0.0415 -0.1800  0.0929
 6746W        W22880  15.366   0.392  12.041  0.1647  0.0855 -0.0710
 6747W        W22881  10.043  12.713   2.097  0.0731 -0.2596 -0.1521
 6748W        W22882  10.530   1.531   0.254 -0.0826 -0.3655 -0.0873
 6749W        W22883  12.624   0.440  16.526  0.0283 -0.1977 -0.0663
 6750W        W22884   0.430  11.050  16.004 -0.1618  0.1391 -0.2725
 6751W        W22885  10.440  10.998   5.783 -0.0766  0.1107  0.1626
 6752W        W22886   6.728   6.885   5.376  0.1027  0.0715 -0.0590
 6753W        W22887   9.592  10.286  11.551  0.2794  0.1393 -0.3140
 6754W        W22888   1.635   6.988  11.070 -0.3113 -0.3264 -0.0832
 6755W        W22889   0.202  14.109   0.426  0.0184  0.3169  0.0546
 6756W        W22890  11.061   7.268  15.522  0.1040 -0.1788  0.0887
 6757W        W22891   5.488  13.311   0.032  0.3348  0.2347 -0.2101
 6758W        W22892  14.384   1.651  11.688  0.0722  0.0264  0.0775
 6759W        W22893   2.234  12.399   2.521 -0.1839 -0.2635  0.1658
 6760W        W22894   3.108   3.596   4.119  0.2196  0.0036 -0.4140
 6761W        W22895  10.565  12.536   2.849 -0.1353  0.2076 -0.1998
 6762W        W22896  10.094   1.694  15.428 -0.1418  0.3526  0.0186
 6763W        W22897   6.261   9.196  15.143 -0.0932  0.1718 -0.0453
 6764W        W22898  17.716  14.410   0.640 -0.0932  0.1644 -0.0484
 6765W        W22899  14.444   6.150  11.790 -0.0715 -0.1056 -0.0867
 6766W        W22900   0.922  14.499   1.086 -0.3529 -0.1360 -0.1352
 6767W        W22901  17.016  13.878   3.157 -0.1754  0.0314  0.3538
 6768W        W22902  17.008  15.061  14.545  0.1504  0.1350 -0.1380
 6769W        W22903   1.239  16.045  12.622 -0.3522  0.2009 -0.0544
 6770W        W22904  14.353   3.792  12.418 -0.1976  0.2456 -0.0966
 6771W        W22905  10.355   7.814  10.107 -0.4502 -0.0513  0.1126
 6772W        W22906  14.424   9.797  13.907  0.0577 -0.1172  0.0177
 6773W        W22907  15.433  14.093  14.785  0.1163 -0.3384  0.1892
 6774W        W22908   1.595   6.479   1.656  0.2405 -0.2708  0.1494
 6775W        W22909  13.614   4.857  14.695  0.2046 -0.0939  0.0265
 6776W        W22910  11.574  10.349   4.273  0.1987  0.0682 -0.0993
 6777W        W22911   6.933   0.027  13.271 -0.1863 -0.0823  0.0530
 6778W        W22912   1.073  10.145  14.121  0.0451 -0.1106 -0.0851
 6779W        W22913  14.364   1.671   5.026 -0.0005 -0.0764  0.0963
 6780W        W22914   5.663  11.182  13.347  0.0086 -0.2899 -0.0786
 6781W        W22915   8.620   4.328  12.923 -0.1170  0.0662 -0.2165
 6782W        W22916   5.502  17.040  12.208  0.5787  0.2905 -0.1943
 6783W        W22917   9.596  16.602   5.512  0.2820  0.2941  0.0119
 6784W        W22918  12.749  16.553   3.177  0.0633 -0.0335  0.2385
 6785W        W22919  13.263   3.988  14.760  0.4588  0.1806 -0.1492
 6786W        W22920  13.464  14.425   6.091  0.0174 -0.0274 -0.0595
 6787W        W22921   5.898   5.343   4.923 -0.1264 -0.1526  0.0804
 6788W        W22922  15.102   4.848  13.695  0.0877 -0.1165 -0.0931
 6789W        W22923  13.818  16.901   0.556  0.1758 -0.1606  0.2008
 6790W        W22924   0.052   3.638  14.439 -0.0084  0.1283 -0.1101
 6791W        W22925   6.506   5.825   1.448 -0.2129 -0.1242 -0.0512
 6792W        W22926   7.195   4.151   1.062 -0.2260  0.0640  0.4342
 6793W        W22927   8.229   4.660   0.216  0.3850 -0.1763 -0.1757
 6794W        W22928   7.874   7.679   1.371 -0.0811 -0.1707 -0.0171
 6795W        W22929   4.162  17.257  13.938  0.3845  0.3245  0.1161
 6796W        W22930   7.192  13.959   2.559 -0.0212  0.2796 -0.1915
 6797W        W22931   0.896  14.753   4.235  0.0178  0.3240 -0.2300
 6798W        W22932  14.220   6.985   0.906 -0.2269 -0.0992 -0.0370
 6799W        W22933   0.111   7.443   2.028  0.0090  0.1567  0.0828
 6800W        W22934  12.867  13.223  15.315  0.0921 -0.0815  0.1491
 6801W        W22935  14.660  10.664   3.389  0.0020 -0.0978 -0.1126
 6802W        W22936   2.839  17.815   0.225  0.3990  0.0918 -0.1125
 6803W        W22937  13.786  10.159   0.563  0.1040  0.3023 -0.2347
 6804W        W22938   1.736  17.556   4.885  0.1443 -0.0220  0.4547
 6805W        W22939   3.265  10.283   4.883 -0.3244  0.0140 -0.2089
 6806W        W22940   7.116   2.739  12.516 -0.2424 -0.1435 -0.2307
 6807W        W22941   7.611   6.349  12.113  0.0830  0.1812 -0.1568
 6808W        W22942   2.713   2.275  12.965  0.5043  0.2148  0.1449
 6809W        W22943  14.951   5.182   0.095 -0.0793  0.0208 -0.1206
 6810W        W22944   7.033  14.942   0.859 -0.0957 -0.0671 -0.1355
 6811W        W22945  12.254  16.475   3.433 -0.1386  0.1572  0.1010
 6812W        W22946   6.590   6.041   3.085  0.1614  0.1031  0.0367
 6813W        W22947   6.455  11.639   2.839  0.3599  0.2145 -0.0226
 6814W        W22948   3.463   5.642   1.007 -0.0012  0.1493  0.4076
 6815W        W22949   2.455   5.995  13.681  0.0923  0.0541  0.0400
 6816W        W22950   8.815   7.171  15.485 -0.1996  0.1125  0.1423
 6817W        W22951   3.794  15.385  12.379 -0.3077  0.1085  0.0762
 6818W        W22952   7.997   6.643  15.253  0.1908  0.1498  0.1385
 6819W        W22953  14.933  12.385  12.957 -0.2762  0.0805 -0.1859
 6820W        W22954   6.670  12.387   3.149 -0.2414  0.1164 -0.2396
 6821W        W22955  12.114   8.380   4.643 -0.3147  0.2484 -0.0880
 6822W        W22956  10.411  10.017   2.474  0.1589  0.1181  0.0427
 6823W        W22957   3.232  15.269   2.035  0.0302  0.0944  0.2159
 6824W        W22958   9.537  10.482  15.453 -0.2256 -0.1667  0.2194
 6825W        W22959   0.421   8.907  11.577  0.1239  0.0935  0.0936
 6826W        W22960   2.920   6.681   5.590  0.0922  0.1845  0.0938
 6827W        W22961  14.582   8.776   3.762  0.2992  0.1468 -0.3283
 6828W        W22962  13.257  16.177   2.261  0.0858 -0.0695  0.0087
 6829W        W22963  10.344  13.275   3.967 -0.0981  0.1180 -0.1803
 6830W        W22964  16.303  10.765  14.699  0.1354 -0.1462  0.1535
 6831W        W22965   0.654   3.829   4.398  0.0107  0.1107  0.1178
 6832W        W22966   7.273   4.765  12.896 -0.1801 -0.2972 -0.1187
 6833W        W22967  14.438   0.145   1.147  0.0616  0.1991  0.1653
 6834W        W22968   8.627  17.696   2.772  0.0107 -0.0047  0.0142
 6835W        W22969  17.189  12.837  14.909  0.1641 -0.1480 -0.0584
 6836W        W22970  17.130   9.223   3.077 -0.3253 -0.0926  0.2176
 6837W        W22971   9.305   6.541   0.803 -0.2001  0.0100  0.1154
 6838W        W22972   1.884  17.594   5.445  0.0298 -0.4019 -0.1262
 6839W        W22973   9.998  10.093   3.594 -0.1982 -0.0686  0.1657
 6840W        W22974  10.595  10.284   0.909  0.2121 -0.0980 -0.0599
 6841W        W22975  15.792  16.843   0.449  0.0561 -0.3522 -0.2807
 6842W        W22976  10.846  11.729   3.305 -0.0861 -0.2208  0.1145
 6843W        W22977   6.563  15.983  16.254  0.0359 -0.2683  0.1277
 6844W        W22978   7.632   1.499  15.232  0.1703 -0.0238 -0.1756
 6845W        W22979  17.918   6.190   1.695 -0.1189  0.3468 -0.1042
 6846W        W22980  14.321   6.795   4.864 -0.4161  0.0458 -0.2343
 6847W        W22981   8.540  11.282   0.531  0.2154  0.1481  0.3787
 6848W        W22982   4.724  10.362   1.484 -0.0779 -0.0557  0.0003
 6849W        W22983  11.225  13.770  14.827 -0.2329 -0.2111  0.2414
 6850W        W22984   0.839   1.434   4.853 -0.0748  0.2577  0.0407
 6851W        W22985   5.952  15.474  13.535 -0.0962 -0.1923  0.1066
 6852W        W22986   7.583   1.585   5.592  0.2240 -0.1389  0.0457
 6853W        W22987   9.111  17.899   2.545  0.1195  0.2211  0.2700
 6854W        W22988  10.776   4.445   5.752  0.1478  0.0035  0.2235
 6855W        W22989   9.058  13.300  15.833  0.1354 -0.0788 -0.1362
 6856W        W22990  10.710   2.933   5.875 -0.1222 -0.0725  0.1599
 6857W        W22991   8.775  11.118  10.899  0.0691 -0.0022 -0.1311
 6858W        W22992  12.404   0.918   1.460 -0.3851 -0.3527  0.1961
 6859W        W22993   1.352  10.101  13.472 -0.0849 -0.0002 -0.1417
 6860W        W22994  11.099   9.038   5.364 -0.0548  0.1564 -0.0026
 6861W        W22995  13.019   9.968   0.049 -0.0447 -0.1255  0.0206
 6862W        W22996   2.185   2.535  14.936  0.1004 -0.2532 -0.1892
 6863W        W22997   7.146  12.089   5.214  0.0081  0.1792 -0.0643
 6864W        W22998   6.487   9.823  13.382  0.1029 -0.0069 -0.2189
 6865W        W22999   3.854  10.403  10.933  0.3066 -0.2841  0.2067
 6866W        W23000  17.729   6.727   4.086 -0.0370 -0.3450  0.0703
 6867W        W23001  12.196   0.923   2.384 -0.2933 -0.1231  0.2891
 6868W        W23002  17.219  16.126   5.494  0.0177  0.1070 -0.2129
 6869W        W23003   5.891   6.497   1.470  0.0329 -0.0254  0.4432
 6870W        W23004  12.644  14.634   0.581  0.3439 -0.2362  0.2122
 6871W        W23005   4.341   9.098   3.446 -0.0863  0.3811  0.0860
 6872W        W23006  13.112   8.879   3.840 -0.1916  0.0191 -0.2076
 6873W        W23007   7.564   9.385   2.262 -0.2722  0.0219  0.2329
 6874W        W23008  10.844  13.369   4.028  0.2328 -0.3120  0.2786
 6875W        W23009  12.402  14.961  13.144 -0.2183  0.1496 -0.1021
 6876W        W23010  11.807  16.184  16.282  0.2029 -0.2505 -0.0899
 6877W        W23011   6.097   6.531   4.204  0.1067  0.1644  0.0257
 6878W        W23012  16.100  13.002   4.364  0.1195 -0.2263 -0.2539
 6879W        W23013   3.177   8.439   0.821  0.3786 -0.2411  0.4510
 6880W        W23014   5.772   5.642   2.522  0.0615 -0.1012  0.1342
 6881W        W23015   5.990  11.243   3.996  0.0559  0.3265  0.2175
 6882W        W23016  13.717  16.516  16.087 -0.1738 -0.0812 -0.0564
 6883W        W23017   8.199  13.009   2.068  0.0374 -0.0645 -0.0693
 6884W        W23018   2.450  15.145  15.824 -0.2118 -0.0347  0.2817
 6885W        W23019  16.789  16.276  11.792  0.1401 -0.3587 -0.2629
 6886W        W23020  10.620  10.673   4.127 -0.0083 -0.2761  0.0433
 6887W        W23021   9.143  17.622   1.362 -0.4622 -0.0756 -0.0891
 6888W        W23022  11.092   7.118  11.560 -0.0796 -0.0566  0.2310
 6889W        W23023   2.027  10.960  11.645 -0.0774 -0.0583 -0.1094
 6890W        W23024  11.688  13.677   4.400 -0.0128 -0.1712  0.0001
 6891W        W23025  13.439   2.691  14.568  0.2033 -0.1155  0.4960
 6892W        W23026   7.508   8.845   0.765  0.0960  0.2668 -0.1369
 6893W        W23027  11.341   9.522   0.796 -0.0595  0.3634 -0.4595
 6894W        W23028  17.920  12.725   5.246  0.2122  0.0716  0.0283
 6895W        W23029  15.601   1.395  16.176 -0.1084 -0.0795  0.2268
 6896W        W23030   1.700  16.755  13.703  0.0606 -0.0853  0.0361
 6897W        W23031   3.118  13.428   3.304  0.1609  0.1041 -0.0508
 6898W        W23032  16.122  11.141   2.470  0.2703 -0.1445 -0.1689
 6899W        W23033   1.669   5.809   3.457  0.1130  0.0686  0.2424
 6900W        W23034  12.654   5.410   2.475  0.0265  0.2434  0.2691
 6901W        W23035   5.309  18.047  14.132 -0.1700  0.1426  0.0362
 6902W        W23036  11.769   3.972   4.524  0.1338 -0.1223  0.3552
 6903W        W23037   3.285  11.155   0.844  0.1912 -0.1174  0.0829
 6904W        W23038   6.063   5.750   0.597 -0.0478 -0.0404  0.0887
 6905W        W23039   3.862   8.089   0.486 -0.1681 -0.0579  0.1246
 6906W        W23040   5.987  17.460   1.781 -0.2314  0.1822  0.1470
 6907W        W23041  16.626  14.377  14.449 -0.0859  0.2641  0.0318
 6908W        W23042   2.378   0.159  12.987  0.1460 -0.1946  0.1371
 6909W        W23043   1.626  10.311  12.965  0.1980  0.3035  0.0356
 6910W        W23044  11.544  10.363  13.525 -0.2593  0.1157 -0.0452
 6911W        W23045  15.112  13.776   4.507 -0.0896 -0.1154  0.2368
 6912W        W23046  13.606   9.767  11.111 -0.0555  0.2053  0.0861
 6913W        W23047   2.478  17.193  14.627 -0.3058  0.2914  0.1552
 6914W        W23048   1.962   1.767   1.224 -0.3292  0.1941 -0.0885
 6915W        W23049  10.099  10.565   2.673  0.2570  0.5360  0.0743
 6916W        W23050   6.072  13.292   4.542  0.0026 -0.0679  0.1529
 6917W        W23051   3.575   6.152  13.948 -0.2830 -0.4737 -0.1798
 6918W        W23052   9.828  11.304  15.360  0.0254  0.3379  0.2796
 6919W        W23053   2.477  10.755  11.831  0.1815 -0.1979 -0.0514
 6920W        W23054  15.930   5.390   0.122 -0.0329 -0.2921  0.2078
 6921W        W23055   9.679  15.382   4.462  0.1827 -0.0210  0.1407
 6922W        W23056  15.865  14.222  14.503 -0.0836  0.1622 -0.3872
 6923W        W23057   9.455  16.489  15.909 -0.1475  0.1941 -0.2033
 6924W        W23058   0.830  13.698   1.625 -0.4768 -0.0049  0.0295
 6925W        W23059   7.135  12.675  13.611  0.1501  0.1653 -0.1396
 6926W        W23060  15.242  13.340   3.378 -0.1372 -0.1472 -0.0239
 6927W        W23061  16.186  10.033   5.499  0.4823  0.0782  0.1066
 6928W        W23062  11.035   5.727   3.412 -0.2944 -0.1198 -0.1520
 6929W        W23063  12.471  13.098  14.481  0.1045  0.3245  0.0761
 6930W        W23064   9.300   7.685   4.247 -0.2462 -0.1331  0.1578
 6931W        W23065   4.955   1.028  12.052 -0.0021  0.1496  0.0134
 6932W        W23066  13.301  13.959   0.542  0.0205 -0.1059 -0.2949
 6933W        W23067   1.953  15.269  12.544 -0.0112 -0.0023 -0.3077
 6934W        W23068   0.248  14.066   0.943 -0.2845  0.0815  0.0596
 6935W        W23069   3.533   0.834   2.909 -0.2217  0.1608  0.2876
 6936W        W23070   2.510  16.073  12.384  0.0949  0.0173  0.0086
 6937W        W23071  12.535  14.229   0.251 -0.1489  0.1024  0.1199
 6938W        W23072   9.200  16.249   2.788 -0.0872 -0.3268 -0.0967
 6939W        W23073   2.725  15.662   2.720  0.3287  0.1070 -0.0268
 6940W        W23074  15.860   1.690  13.915 -0.0005 -0.0121 -0.0491
 6941W        W23075   9.202   5.447  14.440  0.0550  0.1147 -0.3866
 6942W        W23076   9.227  16.004  16.040 -0.1702  0.0801 -0.3599
 6943W        W23077   5.543  12.176   5.528 -0.2318  0.2233 -0.1125
 6944W        W23078  11.252   4.876  13.503  0.3869 -0.0178  0.3561
 6945W        W23079   0.457   2.299   1.267 -0.1117 -0.0483  0.1330
 6946W        W23080  13.320  13.633   3.455 -0.1918  0.3873  0.0184
 6947W        W23081   7.473   7.493   3.820 -0.0937 -0.0448 -0.2463
 6948W        W23082   5.733  18.114   3.093 -0.4625 -0.3313  0.0164
 6949W        W23083  10.068   1.332   5.797  0.0933 -0.0773  0.1038
 6950W        W23084  10.766   4.103   6.203  0.0410 -0.3055  0.1076
 6951W        W23085   8.040   2.375  12.309  0.3932  0.2572  0.0156
 6952W        W23086   2.726   0.328   3.033 -0.1542  0.1980  0.0481
 6953W        W23087  17.694  13.271  11.729 -0.2742 -0.5282 -0.1333
 6954W        W23088   0.250  10.595  14.266 -0.0392  0.1808 -0.0838
 6955W        W23089   8.271  12.944   1.603 -0.0466 -0.1498  0.1303
 6956W        W23090   9.330  14.267  15.234 -0.1800  0.2450  0.3101
 6957W        W23091  17.610   8.337  11.983  0.0476 -0.2328 -0.1291
 6958W        W23092   0.888   9.808  13.743 -0.2328  0.0652 -0.1244
 6959W        W23093   9.387   0.803   3.939  0.0134  0.0632  0.2358
 6960W        W23094   9.949  15.662  16.224  0.2221  0.0725  0.2982
 6961W        W23095  10.798   7.805   0.882  0.2558 -0.2135  0.3167
 6962W        W23096   4.920  16.708   5.416 -0.2768 -0.1999 -0.3109
 6963W        W23097   4.383   1.559   0.427  0.0042 -0.0054  0.1565
 6964W        W23098  17.632   2.379   5.195  0.2070  0.0283  0.2708
 6965W        W23099  15.109   9.043  13.702  0.0634  0.3750  0.1500
 6966W        W23100   3.010   5.750   5.543 -0.1041  0.0404  0.1296
 6967W        W23101  12.290  17.590   0.921 -0.3767  0.1660 -0.2686
 6968W        W23102   4.852   2.110   5.839  0.1385  0.2272  0.0570
 6969W        W23103   0.309   8.488  12.829  0.0182  0.0639  0.0589
 6970W        W23104   0.877   0.614   0.886 -0.0038  0.0598  0.0943
 6971W        W23105  17.768   0.609  13.324 -0.0557 -0.1179 -0.1429
 6972W        W23106   3.540   4.218   5.576  0.0327 -0.0375  0.1735
 6973W        W23107  11.623   1.780  16.423  0.0674  0.0772  0.1994
 6974W        W23108  14.998   7.470   1.981 -0.1311 -0.0693 -0.2472
 6975W        W23109   3.612   0.334   0.271  0.0058 -0.2116 -0.1182
 6976W        W23110  14.941   0.085  15.982  0.2556  0.0865 -0.2271
 6977W        W23111  13.438  14.103   2.251  0.2383  0.0004 -0.0123
 6978W        W23112   1.608   6.981   1.520  0.2379  0.1147 -0.2570
 6979W        W23113   2.694   5.685   4.626 -0.1833  0.2214 -0.3066
 6980W        W23114  16.121  15.063  11.492  0.2203  0.0812  0.1350
 6981W        W23115  15.415   0.216   3.563  0.2377  0.2036 -0.3381
 6982W        W23116   7.336   7.869   2.538 -0.0493 -0.0402 -0.0726
 6983W        W23117   8.769   0.356  13.311 -0.1223  0.0470 -0.2019
 6984W        W23118   4.479   2.247   5.414  0.2480  0.1366 -0.1237
 6985W        W23119   3.948   2.891   0.894  0.2457 -0.3137  0.0439
 6986W        W23120  12.703  11.266  11.377 -0.0743  0.0772  0.0916
 6987W        W23121  12.769   2.467   3.508 -0.1294 -0.1736 -0.2053
 6988W        W23122  15.747   1.882   2.630 -0.0297 -0.0422 -0.0035
 6989W        W23123   4.325   8.504  15.418  0.0181  0.2559  0.0068
 6990W        W23124   2.679   5.901  16.263  0.0665 -0.1099  0.0096
 6991W        W23125   4.917  15.117  14.537  0.0247 -0.0525  0.0382
 6992W        W23126  17.156   3.705  10.220  0.0635 -0.3873 -0.1079
 6993W        W23127  12.464  12.965  11.568  0.0242  0.2277 -0.1414
 6994W        W23128   9.637   4.055  13.600  0.1030 -0.0415  0.0866
 6995W        W23129   7.447  15.230  15.400 -0.1978  0.2381 -0.0047
 6996W        W23130   9.201   2.579   3.038 -0.1601  0.0352 -0.0458
 6997W        W23131   4.925  17.064  15.993 -0.0064  0.2987  0.1681
 6998W        W23132   1.907   4.883  13.403  0.0262  0.2884  0.2643
 6999W        W23133   3.005  10.485   2.593 -0.3261 -0.0536 -0.0062
 7000W        W23134   0.478   6.315  12.943 -0.0765 -0.0158 -0.1798
 7001W        W23135   2.331   5.347   1.540 -0.3936 -0.2371  0.4956
 7002W        W23136   2.321   9.629   0.063 -0.3189 -0.0431 -0.2054
 7003W        W23137   3.309   4.741   4.792  0.1102 -0.1311 -0.0084
 7004W        W23138  15.832   5.592  12.620  0.1189 -0.0997  0.0743
 7005W        W23139   5.713   9.151  15.032  0.0576  0.2704 -0.0864
 7006W        W23140  14.154  13.849   5.355 -0.0518 -0.2646 -0.0489
 7007W        W23141   0.097   4.130  16.022  0.0453 -0.0301 -0.0677
 7008W        W23142  12.742   5.373  11.989  0.2147  0.0493 -0.1179
 7009W        W23143  11.862   5.202   1.842  0.0305 -0.0443 -0.0595
 7010W        W23144  16.614   0.215   4.055 -0.2537  0.3300 -0.1398
 7011W        W23145  15.663  14.752   0.116  0.1594  0.2388  0.0432
 7012W        W23146   5.269   4.911  15.952  0.0198  0.0220  0.3226
 7013W        W23147   4.513  13.921  12.255 -0.0353  0.1908  0.0156
 7014W        W23148  14.646  10.663   5.050  0.1375 -0.1227  0.0646
 7015W        W23149  17.215   1.495  15.112 -0.0137  0.1923  0.0363
 7016W        W23150   4.432   8.239   3.298  0.2628  0.0532 -0.0620
 7017W        W23151  17.857  10.453  12.597  0.0667  0.0062  0.0502
 7018W        W23152   2.890   9.574   0.312 -0.0195  0.0529 -0.0259
 7019W        W23153  17.023   1.234   2.555  0.2890  0.2276 -0.0600
 7020W        W23154   5.463   0.740  16.036  0.0185  0.1594 -0.1320
 7021W        W23155   9.838   8.332  12.135 -0.3070  0.0045  0.1092
 7022W        W23156  11.742  17.366  13.332 -0.0068  0.0631  0.1543
 7023W        W23157  12.848  16.816  12.394  0.0550 -0.1089 -0.0699
 7024W        W23158   0.386  17.201  16.506  0.1144 -0.1119 -0.0540
 7025W        W23159   9.458   7.850  14.004 -0.3565  0.3724 -0.0060
 7026W        W23160   7.568   0.258  14.371 -0.1751  0.0715  0.2806
 7027W        W23161  11.537   5.997  16.370 -0.1567 -0.2134 -0.0794
 7028W        W23162   1.675  14.275  13.153 -0.2227 -0.1648  0.4836
 7029W        W23163   4.897   0.914   4.435 -0.1285 -0.0850 -0.1938
 7030W        W23164  17.536   4.238  16.272 -0.1131  0.1976  0.4540
 7031W        W23165   3.200  16.665   1.510  0.0171  0.2901 -0.2520
 7032W        W23166   1.182   9.301   0.222  0.0577  0.0916 -0.3034
 7033W        W23167   9.303   6.886   3.506  0.1349  0.2041  0.1165
 7034W        W23168   2.461  11.092   4.573 -0.2146  0.2695 -0.0519
 7035W        W23169  12.999   6.932  13.300 -0.1656 -0.2805  0.3533
 7036W        W23170   0.571  12.887  15.582  0.2663 -0.0491 -0.3047
 7037W        W23171   2.920   7.206  12.439  0.2094  0.0007  0.0205
 7038W        W23172   5.356  10.596   4.628 -0.0042  0.2985  0.2590
 7039W        W23173  13.401  13.381   4.881 -0.2467 -0.1000  0.1638
 7040W        W23174   1.302   0.486  13.943  0.1943 -0.2949  0.1152
 7041W        W23175   8.673  14.348   1.006  0.0244  0.0388 -0.1370
 7042W        W23176  13.082  16.925   1.735 -0.1068  0.2300  0.0819
 7043W        W23177   1.963  13.087   5.660 -0.0598  0.0253 -0.1036
 7044W        W23178   1.909  16.175  16.132 -0.3153 -0.3734 -0.1956
 7045W        W23179  15.229  16.197   3.995 -0.2356 -0.1021  0.1189
 7046W        W23180   6.786   0.931   0.949 -0.1108 -0.3662  0.1303
 7047W        W23181   6.010   3.088   3.988  0.2092  0.1366 -0.0158
 7048W        W23182   0.032  13.802   4.207  0.2237  0.0578  0.0358
 7049W        W23183   5.163   2.700   4.630  0.0740 -0.0506 -0.1501
 7050W        W23184   3.388   5.931  14.782 -0.1122 -0.3515 -0.0355
 7051W        W23185  12.495   9.691   3.950  0.1229 -0.0121 -0.0951
 7052W        W23186   8.783  13.224   4.594 -0.0319 -0.0667  0.2343
 7053W        W23187  15.967  17.072  14.388 -0.4427  0.0028  0.4227
 7054W        W23188   6.934   6.075   5.218 -0.0851 -0.1852  0.1332
 7055W        W23189   3.117  13.154   2.833  0.0446  0.2419  0.3454
 7056W        W23190  11.712   8.029  10.974 -0.1531  0.2742 -0.1168
 7057W        W23191  14.501  11.073   6.057 -0.0612 -0.1526  0.0134
 7058W        W23192  17.938  11.774   2.946  0.3649 -0.1625 -0.0180
 7059W        W23193   0.408   8.868  15.015 -0.0034 -0.0694 -0.0557
 7060W        W23194   3.708  10.535  15.805 -0.1069 -0.1635  0.0252
 7061W        W23195  16.406   7.190   5.120  0.0770  0.0863  0.3408
 7062W        W23196  12.711  16.465   4.676  0.1416  0.1586 -0.0673
 7063W        W23197  13.977  11.031  12.273 -0.0791 -0.1789  0.0019
 7064W        W23198  11.873  12.565  13.401  0.0852 -0.0133  0.1313
 7065W        W23199  15.134  12.559   0.225 -0.2245 -0.0638 -0.0728
 7066W        W23200  16.094  14.347  12.952  0.0360 -0.0350  0.1186
 7067W        W23201  11.384   9.767  12.135 -0.4185 -0.2021  0.0792
 7068W        W23202  15.422  11.244   4.520  0.1443 -0.2156 -0.2178
 7069W        W23203   7.595  15.454  11.883  0.0723 -0.0649 -0.1610
 7070W        W23204  13.999  11.518  13.707 -0.1332 -0.1158 -0.0024
 7071W        W23205   4.827   7.021  12.611  0.0788  0.2794 -0.0573
 7072W        W23206  17.508   6.889  11.760 -0.0656  0.2604  0.1574
 7073W        W23207  13.058   8.019  11.430  0.2810  0.0627 -0.1498
 7074W        W23208  10.958   7.179  16.119  0.2235  0.3728 -0.0525
 7075W        W23209  15.802   9.902   2.458 -0.0678 -0.1692  0.1313
 7076W        W23210  14.056   0.143  14.604 -0.3016  0.1926 -0.2473
 7077W        W23211   4.253  12.783   4.259 -0.2154 -0.0559  0.0520
 7078W        W23212  13.068   3.631   2.590  0.0137  0.2002 -0.2179
 7079W        W23213   5.683  17.015  13.887  0.1275 -0.1324  0.2066
 7080W        W23214  10.479  13.236   0.358  0.1113 -0.2032  0.2561
 7081W        W23215  14.147   6.725  11.085 -0.0071  0.3254 -0.1671
 7082W        W23216  17.218  13.410  15.458 -0.1474 -0.0626 -0.3231
 7083W        W23217  14.005  16.773   1.055 -0.1945  0.1226 -0.1407
 7084W        W23218   5.850   1.737   1.722  0.4262 -0.3142  0.0370
 7085W        W23219  14.859  11.345  11.687 -0.1826 -0.0316  0.3455
 7086W        W23220  14.281  13.203   2.538 -0.0157  0.2905  0.0269
 7087W        W23221   3.434   2.556  16.282  0.1276 -0.2546  0.0486
 7088W        W23222  10.352   6.995   5.037  0.2557  0.2436  0.0225
 7089W        W23223   5.208  11.605  11.586 -0.1177  0.2522 -0.2713
 7090W        W23224   8.739  14.842   3.023  0.4701 -0.1296  0.3845
 7091W        W23225   1.924  13.725  12.529  0.1035  0.0026 -0.0456
 7092W        W23226   6.555   1.798   0.004  0.1612 -0.0396 -0.1619
 7093W        W23227   0.482  10.559  12.132  0.3210 -0.0356  0.2551
 7094W        W23228   4.566   4.648  10.879 -0.3971 -0.1740  0.3696
 7095W        W23229   7.960  17.981  15.622 -0.2337 -0.2270  0.2073
 7096W        W23230   8.978   6.439   2.128 -0.1282 -0.1424  0.0393
 7097W        W23231  15.479  12.156   3.888 -0.3102  0.1202 -0.2533
 7098W        W23232   6.546   7.893  13.073 -0.2233  0.1944  0.0243
 7099W        W23233   3.122   8.053   5.273  0.1186 -0.0731  0.0024
 7100W        W23234   4.296   9.462   0.361 -0.3158 -0.0750 -0.0420
 7101W        W23235   5.939   8.906   1.089  0.1390 -0.1972  0.1225
 7102W        W23236  12.905  15.442   3.012 -0.1798  0.3701  0.3842
 7103W        W23237   5.128  14.952   4.248  0.1637  0.0895  0.2959
 7104W        W23238   6.748   0.807  14.531  0.1576 -0.0625 -0.1401
 7105W        W23239   3.806  15.947  12.203 -0.1416  0.0469 -0.1423
 7106W        W23240   4.667  15.750   4.751  0.2079  0.3506 -0.6340
 7107W        W23241   6.544   3.133   5.169  0.0731  0.2449  0.0624
 7108W        W23242  16.174  12.274   5.042 -0.0010  0.2865  0.1296
 7109W        W23243  10.212  17.313   4.326 -0.1557  0.1179 -0.1313
 7110W        W23244   4.712   9.339  15.009  0.1092 -0.0439  0.2156
 7111W        W23245   3.046   6.345  12.118  0.1609 -0.1477  0.1499
 7112W        W23246   5.239  16.163   2.935 -0.3075 -0.0141  0.3274
 7113W        W23247  13.059   5.021   0.770 -0.0144  0.0115  0.3453
 7114W        W23248   6.610   6.166  15.954  0.2186  0.1531 -0.1623
 7115W        W23249   4.682   1.998   5.051  0.0342 -0.0300  0.0355
 7116W        W23250   4.116   5.917   4.499 -0.2698 -0.2460 -0.1399
 7117W        W23251  13.594   9.684   0.658  0.0399 -0.3430 -0.0526
 7118W        W23252  17.889   6.899  13.134 -0.1801 -0.1207 -0.0497
 7119W        W23253   6.113  11.731   4.954 -0.1236  0.3198 -0.0541
 7120W        W23254   4.145   6.038   1.171  0.0469  0.0513  0.2817
 7121W        W23255   2.678  16.930   5.592  0.0507  0.0046 -0.0074
 7122W        W23256  17.503  14.587   4.184 -0.0811  0.1381 -0.1315
 7123W        W23257   3.280   7.458   2.780 -0.3529  0.0992 -0.1357
 7124W        W23258   1.900   8.841   4.720  0.1489  0.1127  0.2132
 7125W        W23259  11.180   0.397   4.199  0.2577 -0.1518  0.1463
 7126W        W23260   7.200  17.270  14.127 -0.2910  0.0295 -0.1590
 7127W        W23261  13.493  13.282  12.255 -0.0509  0.1696  0.2225
 7128W        W23262  16.511   6.514  15.502  0.2362 -0.0052  0.2002
 7129W        W23263  11.971  13.284  11.814 -0.0492 -0.1063 -0.0337
 7130W        W23264  10.078   9.571  13.757  0.1230  0.1230  0.0493
 7131W        W23265   0.953  14.268   4.285  0.1862  0.1079  0.0528
 7132W        W23266   5.963  17.996  15.157 -0.4141  0.0569 -0.5570
 7133W        W23267   4.516   5.427  14.390 -0.0937  0.0885 -0.0792
 7134W        W23268  14.204   6.077   0.866  0.3991 -0.2967  0.1294
 7135W        W23269   1.215  15.609   0.537 -0.1840 -0.0404  0.1926
 7136W        W23270   0.228   7.929  11.509  0.2283  0.4501 -0.1009
 7137W        W23271  10.679   2.349   1.768 -0.1246  0.0177  0.1361
 7138W        W23272   1.724   1.100   4.764 -0.0415  0.2538 -0.5571
 7139W        W23273  17.157  16.049  11.554  0.1694  0.0884  0.0281
 7140W        W23274   5.703   1.812  13.605 -0.0501 -0.0912 -0.1567
 7141W        W23275   8.790  14.048  13.766 -0.4432  0.1485  0.1248
 7142W        W23276  12.734   0.852   2.401  0.1830 -0.1369 -0.0372
 7143W        W23277  14.784   2.935   5.511 -0.0358  0.0781 -0.0897
 7144W        W23278  13.110  11.344  11.686  0.0736 -0.1991  0.2155
 7145W        W23279  17.892   9.502  13.536  0.0708 -0.3247 -0.2147
 7146W        W23280  11.275   5.949   1.401  0.1221 -0.3510  0.0672
 7147W        W23281  11.295  16.621   2.192  0.0488  0.0698  0.3554
 7148W        W23282   7.654  10.964  13.758 -0.0689 -0.2360  0.1803
 7149W        W23283  15.113   8.977  12.000  0.1319 -0.0969 -0.2172
 7150W        W23284   6.077   9.279  14.244  0.0288 -0.0561  0.0399
 7151W        W23285  16.225  16.057  13.526  0.3442  0.0516  0.1485
 7152W        W23286  13.513   0.045  12.384 -0.2430 -0.1003  0.1007
 7153W        W23287   0.078   9.061   2.283  0.1407  0.1546 -0.0311
 7154W        W23288  14.597  11.075   2.780  0.0920 -0.2132 -0.0657
 7155W        W23289  10.462   8.902  16.457 -0.3472 -0.0901  0.2505
 7156W        W23290  14.493   8.479   2.315 -0.0934 -0.0219 -0.1741
 7157W        W23291   3.893   1.023   4.758  0.1858  0.0106 -0.2033
 7158W        W23292   4.900  11.972   1.593 -0.3093  0.1130  0.2793
 7159W        W23293   2.487   8.410  11.471  0.2907 -0.0998  0.1635
 7160W        W23294   8.912  17.332   4.035 -0.0802  0.1160 -0.2246
 7161W        W23295  15.902   7.242  13.689  0.3527  0.3356 -0.0388
 7162W        W23296  17.457   6.247   1.487 -0.2751 -0.1536 -0.1414
 7163W        W23297  12.599   1.900   2.114 -0.1278 -0.1652 -0.0554
 7164W        W23298  11.953   6.345  14.844  0.1474 -0.0121 -0.2993
 7165W        W23299   1.425  15.314   4.938  0.1526 -0.0420  0.0310
 7166W        W23300   0.969   5.717  14.124 -0.2137  0.0474 -0.0857
 7167W        W23301  13.697  12.960   5.048  0.1122  0.0567  0.1675
 7168W        W23302  10.361   7.474   0.600  0.1034  0.1783 -0.1621
 7169W        W23303   2.212   8.017   4.006 -0.0974  0.0468 -0.2740
 7170W        W23304  10.893  17.810   5.396  0.0659  0.0837  0.2020
 7171W        W23305   7.385   7.420   5.304  0.0670  0.2196 -0.0254
 7172W        W23306  14.162  17.800  15.926 -0.0257 -0.1146  0.3988
 7173W        W23307   7.239  13.777   0.164 -0.1751  0.4160 -0.3674
 7174W        W23308  17.935   8.890  15.628 -0.3297  0.2590 -0.0443
 7175W        W23309  14.514   7.352   2.741  0.2003  0.1107  0.1610
 7176W        W23310   4.739  14.260   0.449  0.2982  0.2068  0.1547
 7177W        W23311   6.276  16.223   0.629 -0.1778 -0.1315  0.1126
 7178W        W23312  10.452   8.376  15.114 -0.0120 -0.2518  0.1605
 7179W        W23313   1.069  17.148  13.413  0.1166  0.1328 -0.0965
 7180W        W23314   1.515  16.853  16.196 -0.1488 -0.1075 -0.0238
 7181W        W23315  14.736  16.877  12.036 -0.1206  0.0774  0.2227
 7182W        W23316  16.948   1.820  12.387  0.1774  0.6350  0.0912
 7183W        W23317   0.216  14.307  12.377 -0.0813 -0.0859  0.1341
 7184W        W23318   8.536  15.785   2.070  0.0835  0.1135 -0.1068
 7185W        W23319  13.508  16.498  15.589  0.3481  0.0957 -0.3829
 7186W        W23320  12.265  15.233  11.959 -0.0100 -0.0950 -0.1226
 7187W        W23321  11.118   6.947  14.602 -0.2961 -0.2115 -0.0818
 7188W        W23322  13.324   4.411  14.488  0.0503 -0.2192 -0.1631
 7189W        W23323   5.621   4.798  12.759 -0.0040 -0.0433 -0.0690
 7190W        W23324  15.598   4.501   5.195 -0.0346 -0.0716 -0.1692
 7191W        W23325   9.235   1.068  16.229 -0.0826  0.0578  0.0504
 7192W        W23326   5.360   9.317   2.398  0.4228  0.0428 -0.2383
 7193W        W23327   1.398   4.236   4.262 -0.2573 -0.0853 -0.1940
 7194W        W23328   2.293   3.809   3.402 -0.1663 -0.1407  0.2455
 7195W        W23329   9.212  16.850  16.167  0.2671 -0.1522  0.1850
 7196W        W23330  15.775   2.428   5.363  0.0895 -0.1319  0.1447
 7197W        W23331   0.142  16.668   3.604 -0.1660  0.0321  0.3541
 7198W        W23332   5.593  14.802  16.419 -0.0533 -0.3994  0.2083
 7199W        W23333   4.497   1.429  14.957  0.0719  0.2582  0.0372
 7200W        W23334   1.686   6.543   0.653 -0.0680 -0.0133  0.0359
 7201W        W23335   2.369  16.755   1.203  0.0252 -0.0068  0.1317
 7202W        W23336   2.094   1.761  13.460 -0.1690  0.0739  0.0772
 7203W        W23337   4.537   6.654   3.863 -0.0287  0.2853  0.1141
 7204W        W23338  17.628   5.675  13.258  0.2969  0.4957  0.1220
 7205W        W23339  12.030   3.027  15.122  0.1264  0.0786 -0.0664
 7206W        W23340   0.956   1.096  14.751  0.1264  0.0290 -0.0394
 7207W        W23341   3.309   9.686   2.774 -0.2444  0.2729  0.0778
 7208W        W23342  13.610   2.130   4.112  0.0836 -0.0354 -0.1507
 7209W        W23343  14.802   2.409   5.799  0.2338  0.1455  0.1707
 7210W        W23344   1.002   1.315  12.554 -0.1074  0.2279 -0.0304
 7211W        W23345  10.057  17.574   0.944  0.2485 -0.1068 -0.1903
 7212W        W23346  15.689   9.279  12.090  0.2709 -0.1010 -0.2495
 7213W        W23347   4.834   9.374   1.646 -0.3718 -0.2225  0.0341
 7214W        W23348   3.619  12.870  11.675  0.1627 -0.1694 -0.1561
 7215W        W23349  13.745   0.272  14.936 -0.0961  0.1327 -0.1653
 7216W        W23350   0.252   5.445   1.305  0.0630 -0.2909 -0.2155
 7217W        W23351   7.060  14.078  14.608 -0.0190  0.3078 -0.1327
 7218W        W23352   9.074  10.802  11.766  0.3213 -0.1803 -0.0428
 7219W        W23353   1.334  13.640   4.742 -0.0045 -0.0548  0.1168
 7220W        W23354  14.013   1.509  12.399 -0.1972 -0.0064  0.1145
 7221W        W23355   7.401   8.682  12.472 -0.0398 -0.1566 -0.0885
 7222W        W23356   2.499  11.328  13.244 -0.1988  0.1974 -0.2459
 7223W        W23357   8.440  12.276  12.111  0.2422  0.0807  0.0587
 7224W        W23358  16.901  13.357   4.934  0.0277  0.0344  0.1980
 7225W        W23359  17.568   1.830  14.958  0.2388 -0.1553 -0.1087
 7226W        W23360   8.222   0.588  15.536  0.1799  0.1558  0.0726
 7227W        W23361   0.836   0.007   0.112 -0.0314  0.0758 -0.0261
 7228W        W23362   7.809   5.581   2.843 -0.1409  0.3237  0.2405
 7229W        W23363   4.545   1.613   1.120 -0.3335 -0.1822 -0.0843
 7230W        W23364   6.284  14.423  14.806  0.0174  0.1356 -0.3490
 7231W        W23365  11.226  12.446  14.456 -0.0430 -0.0420  0.1757
 7232W        W23366  14.662   1.169   0.058  0.3017  0.1224  0.0689
 7233W        W23367  14.951  16.441   2.440 -0.4648  0.0673 -0.1494
 7234W        W23368   1.057   2.183  12.347  0.0403 -0.0862  0.2160
 7235W        W23369  15.260   8.511  15.402 -0.0707  0.0854  0.2064
 7236W        W23370   0.352   4.489   1.888 -0.3102  0.4454 -0.3548
 7237W        W23371   8.125  13.899  15.010 -0.4085 -0.1060 -0.1047
 7238W        W23372  14.645  14.760  11.034 -0.0729 -0.2703 -0.2526
 7239W        W23373   2.730  10.965  15.448 -0.1326  0.2041 -0.1451
 7240W        W23374  11.082   3.195   0.738  0.0123  0.3306 -0.0925
 7241W        W23375   2.376   5.473   2.418  0.1930  0.1868  0.0041
 7242W        W23376   7.822  17.981  13.626 -0.1272  0.3294 -0.1903
 7243W        W23377  10.224   2.763   5.047 -0.3925 -0.0583  0.0625
 7244W        W23378  12.653  10.050  15.236  0.3199  0.0210 -0.2997
 7245W        W23379   8.215  12.059  16.495 -0.3235 -0.2019 -0.0325
 7246W        W23380   3.872   3.979   0.472  0.1754  0.0874 -0.2762
 7247W        W23381  12.397  14.042  14.712  0.1933  0.0488  0.2098
 7248W        W23382  14.273  10.328   4.151 -0.1399  0.0701 -0.1453
 7249W        W23383   7.647  10.307   1.184 -0.1313  0.0373  0.1961
 7250W        W23384   5.762  16.371   5.749 -0.0630 -0.3799  0.0170
 7251W        W23385   8.974   4.217  16.409 -0.1386 -0.1369 -0.4669
 7252W        W23386   2.105  13.885   2.483  0.2454 -0.0454  0.0973
 7253W        W23387  10.053  12.395   4.336 -0.1123 -0.0837 -0.0846
 7254W        W23388  16.987  12.893   2.249 -0.1228 -0.0477 -0.2306
 7255W        W23389  16.884  14.084   4.129 -0.2730 -0.0689 -0.2278
 7256W        W23390  12.981  12.443  15.874 -0.2287  0.2931 -0.1774
 7257W        W23391   9.403  17.928  12.708 -0.0685 -0.0799  0.2067
 7258W        W23392  16.855   7.149   3.998  0.1907 -0.1092 -0.0258
 7259W        W23393   8.633   3.085  12.470 -0.2048  0.0625  0.1502
 7260W        W23394  17.056   9.792  11.519  0.0624  0.1150  0.0311
 7261W        W23395  10.562   8.718   4.598  0.1677 -0.0597  0.0781
 7262W        W23396  16.392  16.316  16.518  0.0399  0.1265  0.0768
 7263W        W23397   1.295  14.031  15.242 -0.1116  0.0178 -0.1049
 7264W        W23398   4.208   5.744   3.525  0.1590 -0.0688  0.1353
 7265W        W23399  18.054  11.766  11.783 -0.3571 -0.2660 -0.1927
 7266W        W23400  12.482  11.611  15.971  0.2026  0.1096  0.1168
 7267W        W23401   2.488   3.666   4.286  0.3204 -0.2408 -0.0090
 7268W        W23402  10.410   4.018   5.859 -0.1693  0.0472  0.0121
 7269W        W23403  14.459   2.129  13.120 -0.1219  0.0286  0.2024
 7270W        W23404   2.594  15.960   6.453  0.0131 -0.2054 -0.0295
 7271W        W23405   6.795   6.457  13.488 -0.3167 -0.2850  0.1980
 7272W        W23406  18.069  16.417   1.499 -0.0322  0.0164  0.1851
 7273W        W23407  16.372   1.976   2.342 -0.0262  0.1323 -0.1982
 7274W        W23408   0.635   9.292  12.425 -0.3768  0.1149 -0.0091
 7275W        W23409  11.507   3.993   5.429 -0.0942 -0.5069 -0.3238
 7276W        W23410   6.425   5.990   1.975 -0.0620 -0.0484  0.3735
 7277W        W23411  15.254  12.107  15.063  0.0678  0.1680 -0.1098
 7278W        W23412  12.928  16.957   0.261 -0.0143 -0.0027 -0.0854
 7279W        W23413  11.812   4.165   1.074  0.1455 -0.0223  0.2499
 7280W        W23414  12.367   1.341   0.155 -0.1550  0.0477  0.1298
 7281W        W23415  13.755   5.133  15.181  0.1639  0.1377 -0.1035
 7282W        W23416  16.129  12.917   3.437 -0.2503 -0.0171 -0.0208
 7283W        W23417  11.460   2.478  12.513 -0.0962  0.1181 -0.0156
 7284W        W23418  15.873  13.014   0.726 -0.2159  0.0975 -0.1690
 7285W        W23419   9.198   7.754   4.801 -0.2512  0.2974 -0.1226
 7286W        W23420  17.229   3.323   0.752 -0.0523 -0.1219  0.0625
 7287W        W23421  12.835   8.628  13.233 -0.0317 -0.1070  0.3729
 7288W        W23422   1.404   5.406  16.299  0.0822  0.2874 -0.2251
 7289W        W23423   0.915  16.568   1.009 -0.1827 -0.3294  0.1250
 7290W        W23424  12.373  14.874   6.028 -0.2321 -0.3545  0.1319
 7291W        W23425   2.341   0.317  13.810 -0.0160 -0.1394 -0.0727
 7292W        W23426   5.097   0.391   0.951 -0.0089  0.1860 -0.0150
 7293W        W23427   3.926  11.713   4.564  0.0464  0.0247  0.0260
 7294W        W23428  14.753   7.742   3.028  0.1957 -0.1181 -0.0608
 7295W        W23429   1.137  17.231   1.588  0.0927  0.1409  0.6267
 7296W        W23430   9.189  13.870  13.409  0.3413  0.1503  0.2248
 7297W        W23431   3.836  17.186  13.523  0.1131 -0.2092  0.2490
 7298W        W23432   7.307   6.751   4.183  0.1249 -0.0090 -0.2304
 7299W        W23433  16.415  15.400   1.724 -0.2193 -0.2776  0.1593
 7300W        W23434   4.683   5.801   3.676 -0.2227  0.1730 -0.2834
 7301W        W23435   5.167   6.595  12.724 -0.0023 -0.2275 -0.0161
 7302W        W23436   0.231   1.000   4.523  0.1085  0.0589 -0.0267
 7303W        W23437   7.869   0.522   0.262 -0.2304 -0.1444 -0.1695
 7304W        W23438  12.457  12.960  13.980  0.0216 -0.0780  0.1613
 7305W        W23439   2.495   0.044  15.141  0.1631 -0.1554  0.1465
 7306W        W23440   7.108  16.650   4.674  0.1222 -0.1056  0.1051
 7307W        W23441   1.422   0.673   4.666  0.0599 -0.1922  0.3464
 7308W        W23442   7.013   8.072   0.543  0.5307 -0.2609  0.1089
 7309W        W23443  17.600   3.670   4.299  0.4389 -0.1670  0.0460
 7310W        W23444   1.996   8.423   0.039 -0.0919 -0.0271  0.4108
 7311W        W23445  17.864  10.436  15.805 -0.0780 -0.0567  0.0321
 7312W        W23446   5.450   8.889  13.773 -0.3480 -0.0029  0.0654
 7313W        W23447  15.396   8.736   3.526 -0.1320  0.1806  0.0081
 7314W        W23448   2.049  11.475  16.091 -0.0302  0.1137  0.2351
 7315W        W23449   4.636   8.976  12.633  0.0855 -0.1430  0.0663
 7316W        W23450   8.263  11.926  10.571 -0.0351  0.1646  0.2306
 7317W        W23451  11.941   4.038   3.963  0.2729 -0.3205  0.1597
 7318W        W23452   0.652   3.740  14.018 -0.1975 -0.0668 -0.0472
 7319W        W23453   5.481  10.929   2.968  0.1841  0.2380  0.1985
 7320W        W23454   4.366  10.630   0.777  0.3882  0.2707 -0.0962
 7321W        W23455   7.218   4.613  14.733 -0.0498  0.1341 -0.2037
 7322W        W23456   6.897  12.240  13.931 -0.0958  0.0575  0.4573
 7323W        W23457  17.753  13.483  16.371  0.2285  0.1183  0.2419
 7324W        W23458   7.657   6.084   1.497 -0.1276  0.0918 -0.0180
 7325W        W23459  17.256  16.112  16.521  0.0530  0.2341 -0.3124
 7326W        W23460  11.532  12.670  16.539  0.1027 -0.0687  0.1161
 7327W        W23461  15.393  14.544   5.235 -0.0046 -0.1881  0.1035
 7328W        W23462  12.644  16.391   0.548 -0.0360 -0.2785 -0.1127
 7329W        W23463   1.751  12.243   3.422  0.0463 -0.1589 -0.0531
 7330W        W23464   6.729   7.530  14.458  0.1836  0.3500  0.0601
 7331W        W23465   9.956   3.898  15.022 -0.1052  0.0289  0.0274
 7332W        W23466  10.700   5.548   4.903  0.2329  0.2187  0.1240
 7333W        W23467   5.446   0.805   2.919  0.1272  0.1626  0.3610
 7334W        W23468   1.873  10.771  15.305  0.1946 -0.2342 -0.0649
 7335W        W23469   8.376   4.033  14.777  0.3173  0.0756 -0.0572
 7336W        W23470  14.153  16.452  14.802 -0.1951  0.1042 -0.1202
 7337W        W23471   9.411  13.508  14.178  0.0143  0.1009 -0.1653
 7338W        W23472  16.361   8.969   3.263  0.2322  0.1528 -0.3445
 7339W        W23473  16.586  10.806   3.495 -0.0920 -0.1493  0.0999
 7340W        W23474  10.654   9.114   4.109  0.1483  0.0481  0.0070
 7341W        W23475   5.848   3.530   4.829 -0.2065  0.0128 -0.0832
 7342W        W23476   1.957  10.600  12.605  0.0598 -0.1794 -0.2286
 7343W        W23477   0.226   4.171  11.360  0.1767  0.0155 -0.2139
 7344W        W23478  13.513  16.048  15.923  0.1145  0.1256  0.1279
 7345W        W23479   3.853  14.186   3.249  0.0526  0.1921  0.2031
 7346W        W23480  13.545  14.737  15.995 -0.3866 -0.2141 -0.2627
 7347W        W23481  13.344   7.212  13.054  0.1046  0.1872  0.2516
 7348W        W23482   0.741   3.560  13.383  0.3891  0.0418 -0.0244
 7349W        W23483   4.434   3.028   1.463  0.2665  0.1201 -0.2601
 7350W        W23484   2.299   4.021  13.952 -0.2459  0.0215 -0.0711
 7351W        W23485   3.458  12.778  16.002  0.1508  0.2367 -0.2525
 7352W        W23486  15.209   7.974   2.860  0.0700 -0.0693 -0.0578
 7353W        W23487  11.873   6.218  15.888 -0.2512 -0.2455  0.0039
 7354W        W23488  12.959  16.993  11.914 -0.2006 -0.1986  0.1283
 7355W        W23489  10.702  12.257   3.253  0.1938  0.0897 -0.1503
 7356W        W23490   4.289   4.195   3.064  0.1671  0.2170 -0.0117
 7357W        W23491   8.801   3.076   3.488 -0.1901  0.0867  0.1581
 7358W        W23492  10.687  12.940  13.001 -0.2113 -0.0690 -0.0648
 7359W        W23493   8.143   6.881   2.981  0.0436  0.2398 -0.2064
 7360W        W23494   1.445  14.464  11.941 -0.4121  0.0495  0.0254
 7361W        W23495   1.173  15.605  14.724 -0.0129  0.2244  0.0512
 7362W        W23496   6.847   9.557  15.883  0.0213 -0.0178 -0.0304
 7363W        W23497   8.417   1.912  14.956  0.1731 -0.2802 -0.1238
 7364W        W23498   6.330  13.899  15.656  0.4167 -0.1633  0.1530
 7365W        W23499  17.457   4.813   5.147 -0.1881 -0.3891 -0.0208
 7366W        W23500  17.003  16.538   3.478  0.1804 -0.0371  0.1054
 7367W        W23501   1.503  16.816  14.166  0.3233 -0.1047  0.1939
 7368W        W23502   6.294   2.773  16.343 -0.0977 -0.0505  0.0350
 7369W        W23503  13.497   3.898  15.239  0.1272  0.0075  0.0651
 7370W        W23504   7.299   8.553  14.628  0.4917  0.1279 -0.2084
 7371W        W23505  10.615  11.493  14.534 -0.1545  0.1741 -0.1686
 7372W        W23506  10.720   9.349  14.382  0.0154  0.1409 -0.2797
 7373W        W23507  15.123   0.695  13.453  0.0876  0.0160  0.1959
 7374W        W23508   6.899   3.711  16.512  0.1864 -0.0049 -0.1948
 7375W        W23509  14.150   2.802   0.743  0.0561  0.0458  0.2221
 7376W        W23510  17.287   1.284  13.621 -0.2024  0.0085 -0.1804
 7377W        W23511   4.380   2.533   1.629  0.3606 -0.2154 -0.1892
 7378W        W23512   7.519  15.048  12.285 -0.1579  0.0195  0.2500
 7379W        W23513   6.142  10.121   1.839 -0.2406 -0.0575  0.0533
 7380W        W23514  12.603  15.535   2.206 -0.0894 -0.2001 -0.1761
 7381W        W23515   1.114  12.701  16.457 -0.0637  0.1118  0.0110
 7382W        W23516  13.093   7.379  15.620 -0.2731  0.0494 -0.0679
 7383W        W23517   9.483   0.842  15.422 -0.1791 -0.0037 -0.0380
 7384W        W23518  10.137   2.392   3.608  0.2056 -0.0323  0.2906
 7385W        W23519  15.645  14.575  14.908 -0.2056  0.1657  0.1295
 7386W        W23520   7.727   9.958  10.509  0.1264  0.1143  0.1310
 7387W        W23521  11.091   0.211   3.294  0.2164 -0.0107 -0.3447
 7388W        W23522   3.315  16.320  13.411  0.2018  0.1266  0.2929
 7389W        W23523  11.760   3.959   5.024 -0.0636 -0.0559  0.0194
 7390W        W23524   8.708   6.757  12.938 -0.0462 -0.1808 -0.3114
 7391W        W23525   4.725  13.727   0.429  0.1003 -0.0408  0.0067
 7392W        W23526   7.997  16.637  13.823  0.1049  0.1254 -0.0862
 7393W        W23527   2.482   0.586  14.846 -0.1355 -0.1531  0.0563
 7394W        W23528  16.813  13.323   3.986 -0.1919 -0.1936 -0.0070
 7395W        W23529   3.790   0.007  13.580 -0.1537  0.1067  0.0385
 7396W        W23530   0.340   9.353   3.561  0.3168 -0.0032  0.1271
 7397W        W23531   3.700  15.186   1.877 -0.2528 -0.4905  0.2375
 7398W        W23532  11.408   9.848  14.397  0.1472 -0.1105  0.1113
 7399W        W23533  12.703  15.451   4.312  0.1832  0.0944 -0.0376
 7400W        W23534   1.495   5.303   0.619 -0.1154 -0.0379 -0.1098
 7401W        W23535  16.074   4.769   4.837 -0.3320 -0.0970 -0.3955
 7402W        W23536  11.485   4.469   2.150  0.3975  0.0249 -0.0546
 7403W        W23537   6.424   4.789   5.327 -0.3224  0.0527 -0.4589
 7404W        W23538   5.646   1.830   3.997 -0.3714  0.1904 -0.0124
 7405W        W23539   6.256   3.624  15.665 -0.2053  0.1525 -0.1166
 7406W        W23540  11.816   3.822  16.439  0.2376 -0.2514  0.1510
 7407W        W23541   3.892  16.622   0.820 -0.1616 -0.0988  0.0973
 7408W        W23542  11.980  11.080  10.619  0.3941  0.0789 -0.0186
 7409W        W23543  14.911  10.992  12.350  0.4636  0.1030 -0.4160
 7410W        W23544   8.140   0.170  16.465  0.1303  0.0283  0.2378
 7411W        W23545  15.374   6.175   1.090 -0.0550  0.0795  0.0707
 7412W        W23546   0.086   8.829   0.810 -0.0024  0.3774  0.0797
 7413W        W23547  10.062  16.020  13.405 -0.2388  0.0465 -0.1605
 7414W        W23548  11.777   1.895   1.532 -0.2505  0.0518  0.1725
 7415W        W23549  14.898   3.862  15.455 -0.0820 -0.0464  0.0119
 7416W        W23550  14.988  15.017   5.798 -0.0189  0.1225 -0.0961
 7417W        W23551  14.826  14.446  13.665  0.0629 -0.2294  0.0985
 7418W        W23552   6.442  17.927  12.350  0.2156  0.2261  0.1641
 7419W        W23553   8.721   8.656  13.035  0.0547  0.2957  0.1243
 7420W        W23554   1.077   8.461   1.446 -0.1169 -0.3365  0.1936
 7421W        W23555  14.244  15.630  12.845  0.0166  0.2259 -0.3059
 7422W        W23556  13.284  15.666  11.898  0.3042  0.2249 -0.0682
 7423W        W23557  14.948   9.077   3.856 -0.0437 -0.2282 -0.1970
 7424W        W23558   6.564   4.888   3.279  0.0057 -0.0642 -0.0132
 7425W        W23559   9.034   4.625  12.915 -0.1277  0.1516  0.2636
 7426W        W23560   5.926  11.977   1.663  0.0126 -0.0391  0.0792
 7427W        W23561   5.705   7.273  13.525  0.4403 -0.3027  0.1106
 7428W        W23562  16.131   6.305  14.624  0.2469 -0.0771 -0.1226
 7429W        W23563   8.912   5.680   4.588 -0.1154 -0.0325  0.0118
 7430W        W23564   7.259   3.355  15.807 -0.0446  0.0614 -0.0309
 7431W        W23565   7.182   7.337   2.132 -0.4481  0.0676 -0.2327
 7432W        W23566   0.613   7.706  16.359  0.1140  0.1424 -0.0512
 7433W        W23567   9.985  16.758  13.959  0.1050  0.2063 -0.2366
 7434W        W23568  12.452   6.367   4.163  0.0662 -0.2885 -0.0780
 7435W        W23569  15.196   1.375  15.901 -0.0113 -0.2737 -0.0578
 7436W        W23570   4.301   1.704   4.123  0.1390  0.1334 -0.1977
 7437W        W23571   7.524  12.344   3.383  0.0003 -0.1524 -0.2248
 7438W        W23572   6.787  12.123  10.158  0.2024  0.0980  0.1989
 7439W        W23573   7.845   6.480  14.301 -0.3615 -0.1278 -0.1645
 7440W        W23574   6.448   6.478   2.339  0.0051  0.0504  0.0568
 7441W        W23575   8.007   8.711   2.814 -0.2623 -0.0094  0.0096
 7442W        W23576  16.348   8.579  14.840 -0.1169 -0.3592  0.1668
 7443W        W23577   7.697  17.536   2.352 -0.2286 -0.0650 -0.0245
 7444W        W23578   3.239   6.120   3.354  0.3058 -0.3090 -0.2021
 7445W        W23579  17.215   0.171  14.906 -0.2700  0.1027  0.1844
 7446W        W23580  17.561   3.586   1.068 -0.0849  0.1459 -0.2309
 7447W        W23581   6.151   7.064   0.845 -0.2153  0.0532  0.1465
 7448W        W23582   4.209   8.501  12.806 -0.3562  0.4592  0.0195
 7449W        W23583   3.331  11.220  11.594 -0.0302  0.1297  0.0387
 7450W        W23584  13.980   0.633   2.909  0.1790  0.1218 -0.1886
 7451W        W23585  11.665  10.721   5.288  0.1456 -0.0089 -0.0116
 7452W        W23586   1.143   1.090   6.298 -0.0541 -0.0297 -0.1458
 7453W        W23587  10.310   6.217   5.740 -0.4343  0.1047 -0.3721
 7454W        W23588  17.420  11.217  14.995  0.1834 -0.0068  0.0914
 7455W        W23589  15.629  12.958  11.719  0.2225 -0.0241 -0.3533
 7456W        W23590   4.580  16.758  16.267  0.1668 -0.1495 -0.1385
 7457W        W23591   2.986   8.528  14.419 -0.0259  0.2039 -0.5350
 7458W        W23592  11.485  11.304   2.434 -0.2596  0.0339 -0.1029
 7459W        W23593   6.325   3.976   0.886  0.1291 -0.1169 -0.0220
 7460W        W23594  13.921  15.517  16.348  0.1220  0.1537 -0.1095
 7461W        W23595  15.534   9.494   5.003  0.2281  0.2419  0.4912
 7462W        W23596  11.143   3.676   5.110  0.0109 -0.1056  0.3109
 7463W        W23597   9.042  14.538  11.969  0.1789 -0.0419 -0.1503
 7464W        W23598  16.066  17.960  15.490  0.1181  0.0039 -0.1587
 7465W        W23599   0.681  11.619   4.981  0.1411 -0.0172  0.2375
 7466W        W23600  15.380   2.331  13.464 -0.0564 -0.0473 -0.2484
 7467W        W23601   9.752   2.918  13.982 -0.2552 -0.0751  0.2169
 7468W        W23602   6.695   2.043  11.888 -0.0617 -0.1657 -0.0651
 7469W        W23603   0.025  13.973   3.139  0.0052  0.0179 -0.0311
 7470W        W23604   6.708  12.302   2.173  0.1076  0.0989 -0.2028
 7471W        W23605  12.111   6.114   0.746 -0.3150  0.0794 -0.1502
 7472W        W23606   0.923   4.509  15.585  0.0050 -0.0509  0.3164
 7473W        W23607   9.438   4.446  16.405 -0.0749  0.1885 -0.3577
 7474W        W23608   0.554   0.077   2.382 -0.2210 -0.0466  0.1109
 7475W        W23609   0.954   8.449  16.460 -0.1430 -0.0157 -0.1707
 7476W        W23610   6.289   3.666   0.007  0.1988  0.1058 -0.1884
 7477W        W23611  10.036  17.817   4.016  0.1764 -0.2349 -0.3173
 7478W        W23612   2.445  10.168   4.604  0.1362  0.0898 -0.0846
 7479W        W23613  15.840  17.885   1.500  0.2244 -0.0137 -0.1641
 7480W        W23614  13.884  11.380   5.236  0.2321 -0.2062  0.0105
 7481W        W23615   5.332   1.226   0.727  0.0619  0.0317 -0.0771
 7482W        W23616   4.203   1.510  15.884  0.0086 -0.2417 -0.0182
 7483W        W23617  14.153  17.396  14.569 -0.0798  0.1498  0.0659
 7484W        W23618   8.766   8.409   5.308 -0.0410 -0.0078 -0.0458
 7485W        W23619   7.851  11.577   3.244  0.2273  0.0096 -0.0023
 7486W        W23620   1.331   5.573  14.452  0.0605 -0.4740 -0.0706
 7487W        W23621   6.208   0.428  13.834  0.2643 -0.1015  0.3129
 7488W        W23622   8.957   7.106  12.721 -0.0887 -0.1472  0.0853
 7489W        W23623  11.423   5.008   4.974 -0.1942  0.2352  0.0306
 7490W        W23624  14.077   8.309  10.483 -0.1085  0.1371  0.1695
 7491W        W23625  15.949   4.410  14.785 -0.0653  0.0952  0.1515
 7492W        W23626   7.836   9.365  16.416  0.0566 -0.3369  0.2063
 7493W        W23627  15.693  15.545  12.312 -0.0427  0.1609  0.0288
 7494W        W23628   1.975  10.933   4.762  0.4056  0.1261  0.1674
 7495W        W23629   5.216   6.015  14.407  0.0402 -0.0300 -0.0037
 7496W        W23630   4.465   8.386  11.567 -0.0588 -0.3270 -0.1332
 7497W        W23631  10.947  13.470   0.262  0.1401 -0.1967 -0.2165
 7498W        W23632   9.630   7.575  12.677  0.1207 -0.1612  0.4702
 7499W        W23633   5.494  17.896  16.357  0.1040 -0.0165  0.1933
 7500W        W23634   8.336  13.737  15.524  0.0584 -0.0263  0.1944
 7501W        W23635   1.835   3.445  15.494 -0.0742 -0.2994 -0.0220
 7502W        W23636   6.689   0.686   2.559 -0.2197 -0.2752  0.0600
 7503W        W23637  13.898   1.403  11.824 -0.2891  0.2310 -0.0358
 7504W        W23638   9.080  13.696  12.515  0.3454 -0.0871 -0.2648
 7505W        W23639   1.788  14.210  12.446  0.0246 -0.1733  0.4056
 7506W        W23640   8.461  14.587  15.504 -0.0960 -0.0331 -0.1025
 7507W        W23641   7.595  13.928  16.216 -0.0426  0.0131  0.0381
 7508W        W23642   3.918  14.652   2.665  0.2110 -0.0501 -0.0887
 7509W        W23643   1.746   4.211  15.989 -0.1239  0.3263  0.0697
 7510W        W23644   9.624  10.477   2.852  0.0273  0.3832  0.3887
 7511W        W23645   1.751  14.338  15.351  0.3233  0.0015  0.0411
 7512W        W23646  15.940  13.514  13.458 -0.2940  0.1671 -0.1258
 7513W        W23647  12.916   5.890  12.118  0.0663  0.5094 -0.2609
 7514W        W23648  12.006  15.480   2.888  0.0769  0.1461  0.3441
 7515W        W23649   3.776   7.132   0.845 -0.4033  0.0417 -0.2016
 7516W        W23650   0.674   6.521  11.448 -0.0202  0.0590  0.3516
 7517W        W23651   3.769   1.031  15.995  0.1553  0.0902  0.3325
 7518W        W23652  12.466   9.340  16.492 -0.0511 -0.0691  0.0273
 7519W        W23653  11.700  16.066   1.203 -0.3269 -0.0851  0.0641
 7520W        W23654   5.645   9.456  16.295  0.4828 -0.0816  0.1816
 7521W        W23655   8.430   9.828   9.913  0.1445 -0.2105 -0.2905
 7522W        W23656   4.935  18.033   4.181 -0.3617 -0.0064 -0.1003
 7523W        W23657   1.617  12.281   5.083 -0.3480 -0.0406 -0.0565
 7524W        W23658   5.656  11.726  11.759  0.0819 -0.5073  0.3261
 7525W        W23659  10.160   6.220  12.697  0.0033 -0.2843 -0.2502
 7526W        W23660   0.806  15.946   5.831 -0.2949  0.0641  0.3180
 7527W        W23661   6.841  16.972   3.579  0.0821 -0.1437  0.1072
 7528W        W23662   0.166   9.899   2.266 -0.1058 -0.0679 -0.2840
 7529W        W23663   4.290   2.950   5.693  0.1481  0.0586  0.2023
 7530W        W23664  17.424  16.185   3.727 -0.2579  0.3621 -0.1896
 7531W        W23665  11.156   8.288  12.897  0.0672 -0.1135 -0.2024
 7532W        W23666   1.428  17.238   1.180 -0.2817  0.0735  0.2033
 7533W        W23667   8.087   0.861   4.656  0.2448 -0.2664 -0.1171
 7534W        W23668  14.194   5.499   2.708  0.0851 -0.0861 -0.0097
 7535W        W23669   2.658   9.885  16.281  0.2750  0.1284 -0.0418
 7536W        W23670  13.974   8.113  15.026  0.0556  0.2345 -0.0185
 7537W        W23671  14.102   6.995  12.856 -0.0291  0.0175  0.0998
 7538W        W23672  17.361   1.236   4.356  0.0953  0.2603 -0.1347
 7539W        W23673  17.056  16.546   5.215  0.0163  0.1079 -0.2345
 7540W        W23674  13.891  10.064  14.757 -0.2036 -0.0042  0.3150
 7541W        W23675  11.330  18.024  12.917 -0.4196  0.0345  0.1053
 7542W        W23676   5.234   8.607   5.825 -0.0348 -0.1140  0.4820
 7543W        W23677   4.189  16.166   3.059  0.1415  0.2685 -0.2137
 7544W        W23678   7.481   9.575  13.108  0.1071 -0.2088 -0.1347
 7545W        W23679   6.613   3.268  12.290 -0.1191  0.1747  0.1987
 7546W        W23680  11.654   5.197  13.377  0.1397  0.0294  0.0392
 7547W        W23681  10.183   0.493   4.082 -0.0552  0.1388 -0.1008
 7548W        W23682  11.801  13.231   5.742  0.3199 -0.2572  0.3157
 7549W        W23683  11.753  11.573   3.789  0.0551 -0.1317  0.2554
 7550W        W23684   0.705   3.100   4.868 -0.4400  0.2035 -0.3097
 7551W        W23685   4.791  11.893  12.932  0.3455  0.2543  0.0273
 7552W        W23686   1.964   2.381   3.208 -0.0297 -0.0961 -0.1181
 7553W        W23687  13.076  15.467   1.669 -0.0143 -0.2305  0.1828
 7554W        W23688   8.541  12.328  13.873  0.0054 -0.0864 -0.1018
 7555W        W23689   3.044   5.256   4.184  0.0445 -0.0914 -0.0953
 7556W        W23690   3.767   2.784  15.941 -0.0208 -0.0646 -0.0344
 7557W        W23691   7.244   5.154  14.603 -0.3343 -0.5021  0.2978
 7558W        W23692  12.264   2.839   2.217  0.0639  0.0146  0.1209
 7559W        W23693  14.683   9.511  16.338 -0.1508  0.1879 -0.3098
 7560W        W23694   9.308   2.966   4.038 -0.2140  0.3124 -0.1148
 7561W        W23695  16.848   4.271   5.522  0.3627 -0.0453 -0.2839
 7562W        W23696  13.115  12.137  16.266  0.3220 -0.3832 -0.1022
 7563W        W23697   8.729  15.568   5.125 -0.0887  0.2725  0.0889
 7564W        W23698  12.689   8.785  11.301  0.1065  0.1032 -0.2271
 7565W        W23699  10.605  16.028  16.122 -0.2744  0.2746 -0.0774
 7566W        W23700  16.543  14.164   5.131 -0.1335  0.3187 -0.2667
 7567W        W23701  14.865   5.980   5.642 -0.1817  0.0238 -0.0001
 7568W        W23702   7.888  14.962   3.595 -0.1405 -0.0345 -0.1283
 7569W        W23703  10.672  12.381  13.908 -0.0940 -0.0033 -0.0322
 7570W        W23704  10.241  10.598   0.923  0.0095 -0.1141  0.1757
 7571W        W23705   3.976   5.351  12.192  0.1691 -0.0931 -0.4897
 7572W        W23706   2.100  15.023  13.825 -0.0592  0.1400 -0.1125
 7573W        W23707   5.296   7.954  13.935 -0.3218  0.0367  0.6323
 7574W        W23708   6.740   0.592   4.125 -0.2472  0.0305  0.2072
 7575W        W23709   6.893  16.558   3.162  0.2968 -0.1454  0.1194
 7576W        W23710  17.100  10.439   0.575 -0.2224  0.0226  0.0743
 7577W        W23711  11.511   2.252   3.242  0.1202 -0.0720 -0.3408
 7578W        W23712   9.177  12.101   3.110  0.1740  0.0750 -0.2122
 7579W        W23713   3.026   2.348  13.745  0.0293 -0.0982 -0.2369
 7580W        W23714  14.005  17.667  11.437  0.2464  0.0757 -0.3870
 7581W        W23715  15.304   2.883  16.542  0.1068  0.3461  0.2070
 7582W        W23716  14.564   2.725  11.808 -0.0790 -0.2942 -0.1489
 7583W        W23717  16.008  15.801   4.259 -0.4546 -0.1733  0.4125
 7584W        W23718   7.764  17.298   0.579  0.3825 -0.0311 -0.0325
 7585W        W23719  15.686  13.285  14.442 -0.0274 -0.3784  0.2074
 7586W        W23720   2.998   0.670  15.828 -0.2357 -0.1982  0.1055
 7587W        W23721   2.843  14.679   0.277 -0.2835 -0.0747 -0.0399
 7588W        W23722  12.106   4.833  13.135  0.1322  0.0027 -0.2482
 7589W        W23723  16.988  14.467   0.593 -0.0757  0.2195  0.0964
 7590W        W23724   7.210   0.777   1.944  0.0376  0.4274  0.1246
 7591W        W23725   9.382  13.276   5.309  0.3016 -0.1458  0.1087
 7592W        W23726  15.950  12.848   1.353 -0.0372  0.0708 -0.1034
 7593W        W23727  17.897   4.050  11.354  0.2545  0.1678 -0.1220
 7594W        W23728  17.439  10.571  14.182  0.1744 -0.5179 -0.3066
 7595W        W23729  12.152   9.569  16.214  0.1451  0.0189 -0.1082
 7596W        W23730   9.381   2.063   3.091 -0.0938  0.4111 -0.0106
 7597W        W23731  11.722   0.457  12.347 -0.3411  0.0677 -0.2287
 7598W        W23732   1.522   5.036  14.941  0.1576 -0.2803  0.2130
 7599W        W23733   2.454   8.544   3.949 -0.1377  0.2122  0.1141
 7600W        W23734  11.577  10.552  14.036 -0.2472  0.0939  0.2034
 7601W        W23735  16.425   4.992   4.524  0.0275 -0.2711 -0.0386
 7602W        W23736   9.693   8.268   3.074  0.0138 -0.0049 -0.0432
 7603W        W23737   8.230   6.987   4.449 -0.0445 -0.2237  0.1294
 7604W        W23738   0.511  12.474  14.551  0.3259  0.0121 -0.0233
 7605W        W23739   7.017  11.725   0.631  0.0733  0.0442 -0.1499
 7606W        W23740   3.291  10.473  11.337  0.0154  0.2185 -0.1717
 7607W        W23741   1.699   8.876  15.603  0.0187  0.3046  0.0484
 7608W        W23742  16.036   9.597  15.847  0.0128 -0.0037  0.1826
 7609W        W23743   3.136  10.364   2.044 -0.1190  0.1151 -0.1312
 7610W        W23744   6.851  15.021  14.339  0.4071 -0.0753  0.0887
 7611W        W23745  15.296   8.348   4.896 -0.1616 -0.0204 -0.0744
 7612W        W23746   0.157   9.830   1.595  0.1606  0.0361 -0.2018
 7613W        W23747   7.324   3.482  16.434 -0.1600 -0.3453  0.1671
 7614W        W23748   3.913   8.870   5.781 -0.1362 -0.2392  0.4366
 7615W        W23749   8.701  16.518  14.225  0.5437 -0.1354  0.1990
 7616W        W23750   6.550   4.101   5.980  0.1109  0.1041 -0.1456
 7617W        W23751   4.757  12.262  15.309 -0.0885  0.0851 -0.1919
 7618W        W23752   1.956   8.043  13.119  0.2073  0.2873  0.0952
 7619W        W23753   0.168  11.201  15.573 -0.1389 -0.0725 -0.2604
 7620W        W23754   8.015  12.356  11.835 -0.4422 -0.1081 -0.1137
 7621W        W23755  17.534  16.740   5.154  0.0238 -0.0708  0.0415
 7622W        W23756  13.836   5.654  11.017 -0.1068 -0.1436  0.0384
 7623W        W23757   5.579   3.873   3.528  0.2317 -0.0600 -0.0852
 7624W        W23758   4.698   3.076   5.430 -0.3078 -0.0866  0.2548
 7625W        W23759   4.113  12.986  14.181  0.1334 -0.0105 -0.3232
 7626W        W23760  13.389   4.477   1.253  0.1820  0.0186 -0.0963
 7627W        W23761   5.667   5.358   4.073 -0.0067  0.0848  0.0228
 7628W        W23762   9.014  11.460  13.333  0.0747 -0.3329  0.0956
 7629W        W23763   5.226   7.671   2.430  0.0788  0.3077 -0.0308
 7630W        W23764   7.409  12.566   0.936 -0.3798 -0.2229 -0.0580
 7631W        W23765  10.615   9.703   4.159  0.1933  0.0081  0.0442
 7632W        W23766   1.252  11.550  13.787  0.0722  0.2110 -0.0791
 7633W        W23767  11.103   5.402  15.055  0.0053  0.1128  0.3154
 7634W        W23768   4.484  17.330   2.981 -0.2788  0.4360  0.0710
 7635W        W23769   3.938  13.211  13.790 -0.1021 -0.0082  0.1649
 7636W        W23770  15.263  16.770  13.706 -0.0122  0.1718 -0.0640
 7637W        W23771  16.795  12.622   0.672 -0.1966 -0.1259 -0.0338
 7638W        W23772   2.946  16.250   1.984  0.3136  0.1605  0.1744
 7639W        W23773   9.243  11.167  11.025  0.0684  0.1100  0.1466
 7640W        W23774  10.010   9.973   4.961  0.1720 -0.1962 -0.2586
 7641W        W23775  14.813  15.062  15.335 -0.1127 -0.1961 -0.0524
 7642W        W23776   2.328   3.318  15.617 -0.3064 -0.2784 -0.1121
 7643W        W23777  14.007   8.867   0.260  0.1685  0.3598 -0.0933
 7644W        W23778   7.941  13.943  15.783 -0.0426 -0.1164 -0.1976
 7645W        W23779  15.180   2.233  12.257  0.0621 -0.2521  0.0859
 7646W        W23780  11.848  18.058  15.052 -0.1887  0.1013  0.2427
 7647W        W23781   8.362   4.399   4.736 -0.1622 -0.0725  0.4229
 7648W        W23782   3.859   3.066  14.636  0.2411 -0.0169  0.3208
 7649W        W23783  14.444  13.196   0.759 -0.1814 -0.0928 -0.2945
 7650W        W23784   3.532  16.765   2.920  0.0509 -0.0468  0.0706
 7651W        W23785  17.180   8.051   5.685  0.1304  0.0506  0.0786
 7652W        W23786  10.142  12.514   2.598  0.2438  0.1221  0.2625
 7653W        W23787   9.174  14.492  13.222  0.0823  0.0321 -0.1982
 7654W        W23788   9.262   6.038   5.523  0.0647  0.0806 -0.3962
 7655W        W23789  12.564   9.834  16.402 -0.2006  0.0631  0.0802
 7656W        W23790   8.234   1.220   2.039  0.0860 -0.1248 -0.1037
 7657W        W23791  11.458   8.704   0.312 -0.3972  0.0317  0.0676
 7658W        W23792   6.805  16.831   0.950 -0.0628 -0.2311  0.0810
 7659W        W23793   0.996  17.129  15.711  0.0311  0.2487  0.0927
 7660W        W23794   1.212   8.818   0.127  0.0509 -0.0159 -0.1150
 7661W        W23795   3.490   5.161  12.945 -0.1485  0.0408  0.3305
 7662W        W23796  10.501  10.982   3.495  0.0848 -0.5535  0.3855
 7663W        W23797  10.245  15.221  15.141  0.0485 -0.3112 -0.1728
 7664W        W23798  16.162   3.503   5.561  0.2692 -0.2758  0.3294
 7665W        W23799  16.771  11.033  13.101  0.2850  0.0031  0.0468
 7666W        W23800   1.491   5.874   1.384 -0.2238  0.0898 -0.0892
 7667W        W23801  18.167  10.596  14.713 -0.0815  0.0592 -0.1222
 7668W        W23802   4.570   9.907   4.480  0.1032 -0.4350 -0.2201
 7669W        W23803  16.571  12.749   5.405  0.1581  0.2967  0.0077
 7670W        W23804  17.173  13.680   4.691  0.1962  0.1623 -0.0536
 7671W        W23805   5.197   1.378   1.691  0.0713 -0.0118 -0.1711
 7672W        W23806  15.708   9.049   1.314 -0.0228 -0.0241 -0.0151
 7673W        W23807  17.343   9.848  13.292  0.0058  0.0616 -0.0569
 7674W        W23808  17.224   3.656  14.443  0.0047  0.0994 -0.1898
 7675W        W23809  17.148   8.858   5.009  0.0811  0.1406  0.0047
 7676W        W23810   3.565   2.430   1.677  0.1766 -0.2098  0.0477
 7677W        W23811  12.777  15.783  12.439 -0.2488  0.3292  0.0832
 7678W        W23812   8.468  11.202  11.363  0.1601 -0.0208  0.2471
 7679W        W23813  15.084  10.276  14.586  0.0632 -0.1466 -0.2837
 7680W        W23814   7.695   0.312  12.378  0.1528 -0.1599 -0.2229
 7681W        W23815   8.566   2.830  14.921  0.0988 -0.2426 -0.1618
 7682W        W23816  16.763   8.386   2.080  0.0487 -0.0391 -0.1107
 7683W        W23817  15.975  16.480   1.093  0.0537  0.0914 -0.1232
 7684W        W23818   7.847  13.720  15.374  0.2852  0.1476 -0.0267
 7685W        W23819   3.275   8.128  15.260  0.0358 -0.1538 -0.3832
 7686W        W23820   2.950   9.931   1.654  0.5896 -0.0260  0.1243
 7687W        W23821   8.347   8.420  10.582 -0.1601  0.0146  0.2597
 7688W        W23822  13.306   7.429   3.586  0.2332  0.1293 -0.0665
 7689W        W23823  17.942  12.375   1.270 -0.0304 -0.0588 -0.0712
 7690W        W23824   0.710   2.307   5.190 -0.0137  0.0781 -0.0856
 7691W        W23825  11.055  10.700  14.176  0.2490  0.2629  0.1234
 7692W        W23826  17.550  13.049  16.495  0.3026  0.1634  0.0507
 7693W        W23827   1.936  11.385   1.268  0.1364 -0.0382 -0.4848
 7694W        W23828  13.804  11.576  15.002  0.2461 -0.1525 -0.1461
 7695W        W23829   6.600   6.319  15.439  0.0205 -0.2037  0.2431
 7696W        W23830   5.928  16.735  14.868  0.0635  0.0690  0.1490
 7697W        W23831   5.809   6.587  16.147 -0.0333  0.2194  0.0413
 7698W        W23832  11.250   4.392  16.171  0.4291 -0.1047 -0.0445
 7699W        W23833   0.289   8.664  12.007  0.0706  0.0137  0.0039
 7700W        W23834  15.635   9.143   4.389  0.2337  0.1743  0.1612
 7701W        W23835   9.428   0.675  13.918 -0.1703 -0.1983  0.0489
 7702W        W23836   8.676   9.091   1.007 -0.0164 -0.0991 -0.1155
 7703W        W23837  12.954   8.348   0.520 -0.0598  0.2572  0.0647
 7704W        W23838   9.556  17.089  13.999  0.3140 -0.1834  0.0476
 7705W        W23839  10.078   5.020   1.995 -0.1506 -0.2101 -0.1529
 7706W        W23840   3.094   2.562   1.283 -0.1972  0.0175  0.0758
 7707W        W23841   9.533   2.016  15.192  0.0205 -0.0843  0.0907
 7708W        W23842   9.702   9.074   5.186  0.0742  0.0329  0.3836
 7709W        W23843   7.520   3.725  14.445  0.2176  0.3544  0.0401
 7710W        W23844   6.557   5.085  10.489  0.1105  0.0439 -0.1538
 7711W        W23845  10.100   2.154  14.538  0.1658 -0.1390 -0.0422
 7712W        W23846   5.489   4.515  11.427 -0.0994 -0.1002 -0.0403
 7713W        W23847  14.511   6.888   3.465 -0.3371 -0.1798  0.1938
 7714W        W23848   5.648  12.253   2.497  0.1474  0.2787  0.1979
 7715W        W23849   7.857  17.411  15.519  0.1354  0.2316  0.1502
 7716W        W23850   3.131  11.481   5.567 -0.1023  0.2539 -0.0514
 7717W        W23851   9.960  18.090  12.660  0.0914 -0.0993  0.1781
 7718W        W23852   1.435  18.074   2.503  0.0942  0.1832  0.2536
 7719W        W23853   9.297   8.695  13.158  0.0751  0.0345 -0.0898
 7720W        W23854  15.259  16.785  11.996 -0.1538  0.1049 -0.0544
 7721W        W23855   1.735  14.835  14.112  0.2438  0.0599  0.1551
 7722W        W23856   6.957   2.664   2.911 -0.0226  0.0034 -0.1008
 7723W        W23857   7.800  14.110   5.695 -0.0824  0.0920 -0.1139
 7724W        W23858  11.440  12.132  11.369 -0.1326  0.2035  0.1318
 7725W        W23859   1.964   1.237  13.950 -0.0216 -0.2710  0.3711
 7726W        W23860  15.858  13.809   0.126  0.1743  0.1504 -0.1931
 7727W        W23861   1.682   5.666   2.262 -0.0041 -0.1927 -0.0918
 7728W        W23862  11.624   7.728   1.483 -0.4292  0.2311  0.1090
 7729W        W23863   3.531   3.425  12.789 -0.0284 -0.0085  0.0046
 7730W        W23864   3.466  15.152   0.883  0.0058  0.2149  0.0847
 7731W        W23865  14.538   6.345  12.306 -0.1937  0.1588 -0.2454
 7732W        W23866   6.858  17.753   2.742  0.1957 -0.0546  0.0595
 7733W        W23867  10.066   2.116   3.168  0.1070 -0.0783  0.3776
 7734W        W23868  12.357  16.320  15.182 -0.0162 -0.3168  0.0983
 7735W        W23869   3.424  15.615  12.120 -0.1020  0.1320 -0.0380
 7736W        W23870   2.145   5.850   0.138  0.0399  0.1725 -0.0884
 7737W        W23871  16.570  15.566   1.218  0.3653  0.1216 -0.1117
 7738W        W23872  15.863   3.364  15.999  0.0260 -0.4467 -0.2698
 7739W        W23873  10.602   4.811  13.058  0.0293  0.0602  0.1949
 7740W        W23874   4.813  11.635   2.851 -0.3561 -0.2824 -0.0595
 7741W        W23875  15.931   2.203   1.402 -0.0517 -0.0694 -0.2868
 7742W        W23876   5.824  15.084  13.853  0.0691  0.1245  0.0509
 7743W        W23877   5.288  14.140   3.177 -0.1316 -0.0993 -0.0998
 7744W        W23878   8.429  15.092   0.618  0.3739  0.0046  0.1238
 7745W        W23879  17.198  14.255  12.362  0.0716 -0.0127 -0.0648
 7746W        W23880  10.190  10.159   0.569  0.1891  0.0166 -0.1347
 7747W        W23881  17.886   7.091   1.962  0.0709  0.1854 -0.5253
 7748W        W23882   2.936  15.842  12.511  0.0452 -0.0767 -0.0992
 7749W        W23883  12.923  15.022   1.761  0.0572 -0.2163  0.1835
 7750W        W23884  15.653   7.830   3.332 -0.2644 -0.1973  0.0500
 7751W        W23885   8.701   8.797   1.459  0.1579  0.0755  0.1092
 7752W        W23886  13.587  16.749   1.598  0.1086  0.0943  0.1896
 7753W        W23887   1.230   7.207   1.831 -0.0316  0.1796 -0.1859
 7754W        W23888   4.198   7.045  16.448  0.0382  0.1241  0.1505
 7755W        W23889  16.826  11.293  11.374  0.1847  0.0407  0.1372
 7756W        W23890   2.986  13.087   3.752 -0.4155 -0.2785 -0.4747
 7757W        W23891  13.880   6.880  13.614  0.0040  0.0684 -0.4154
 7758W        W23892   1.572   2.441   0.419  0.1094 -0.0374 -0.2321
 7759W        W23893  13.403  17.815  12.092  0.1714  0.0675  0.3658
 7760W        W23894  12.390   3.090   2.848  0.0912 -0.1838 -0.0914
 7761W        W23895   1.786  11.396  14.394 -0.0449 -0.0292  0.2532
 7762W        W23896  10.745   2.891  14.396 -0.0921  0.2909 -0.0235
 7763W        W23897   4.825  16.983   1.937  0.0449  0.0547 -0.1039
 7764W        W23898   7.638   4.410  13.236 -0.1360 -0.1136 -0.0012
 7765W        W23899   3.120  15.478  12.901 -0.0124  0.5232 -0.2174
 7766W        W23900   5.654   2.518   2.248 -0.0149  0.1499  0.1787
 7767W        W23901  17.945  15.810  12.029  0.0566  0.0439  0.0872
 7768W        W23902  14.235  16.189   0.928 -0.0896  0.0466  0.1492
 7769W        W23903  10.832   9.432   3.210  0.1801  0.1623 -0.0451
 7770W        W23904   2.944   0.232  12.791 -0.1037 -0.0856 -0.2896
 7771W        W23905  15.790   6.785   1.451  0.0967  0.1618  0.1938
 7772W        W23906  14.128  11.928   3.406  0.1908 -0.6065  0.0396
 7773W        W23907  12.566   4.159  12.815 -0.2396 -0.2703  0.0770
 7774W        W23908  16.895   6.763  14.512 -0.1743 -0.3160 -0.1619
 7775W        W23909  14.759   4.418   4.823  0.0399  0.1538  0.5144
 7776W        W23910  12.406   5.833  12.776 -0.1270  0.1687 -0.4963
 7777W        W23911  14.136   8.628   2.925  0.1324 -0.0413  0.0808
 7778W        W23912   9.256   9.094  15.788 -0.1662  0.2847  0.5428
 7779W        W23913   6.468   1.919  15.052 -0.1395  0.1939 -0.0496
 7780W        W23914  17.489   7.555   3.206 -0.2123  0.5019 -0.0506
 7781W        W23915   1.430   7.610   1.523 -0.2273 -0.3388  0.1193
 7782W        W23916  14.148  15.642  14.798 -0.0852 -0.2631  0.0458
 7783W        W23917  16.223  13.540   5.755  0.1570 -0.5039  0.0007
 7784W        W23918   9.960   0.487  15.162 -0.1456  0.0780 -0.0936
 7785W        W23919   9.370  10.167   0.930 -0.1041 -0.0500  0.0276
 7786W        W23920  15.743  11.184  14.011  0.1655  0.1794 -0.2057
 7787W        W23921  10.037  17.734   5.182 -0.3527  0.0370 -0.1595
 7788W        W23922   7.734  10.234   4.318 -0.0312 -0.2227 -0.0257
 7789W        W23923  12.190  12.923   1.650  0.1293  0.1652 -0.0149
 7790W        W23924  11.252  14.362  16.520 -0.1671 -0.0209 -0.1447
 7791W        W23925   4.566  16.351  14.902  0.4092 -0.1694  0.1074
 7792W        W23926   9.168   6.484  13.740 -0.0038  0.3296  0.2641
 7793W        W23927   7.559  11.003   2.641  0.0949  0.5002 -0.1693
 7794W        W23928   8.776  17.621   5.728 -0.1973 -0.0893  0.0598
 7795W        W23929  10.970   4.532   4.759  0.1468 -0.1941  0.2107
 7796W        W23930   1.230   4.555   0.131 -0.0762 -0.3239 -0.0519
 7797W        W23931  14.467   7.753   4.431  0.2879 -0.2252  0.0246
 7798W        W23932  11.233   9.654   3.548 -0.0780  0.0480  0.1905
 7799W        W23933   4.633  15.309   0.640  0.1212  0.2165  0.0970
 7800W        W23934   8.804  12.079   3.927  0.3924 -0.1270 -0.4295
 7801W        W23935  12.541   9.791   0.364  0.0835  0.1530  0.0401
 7802W        W23936   8.741   1.313   6.454  0.3537  0.3225  0.0798
 7803W        W23937  16.505  10.483   0.739 -0.1356 -0.2060  0.0374
 7804W        W23938   0.558   7.451  11.049 -0.0755 -0.0651  0.1490
 7805W        W23939   4.897   6.664  10.793 -0.1326  0.5323 -0.1480
 7806W        W23940   7.138   5.911   4.457  0.0615 -0.0053  0.1324
 7807W        W23941   6.764   7.170  15.004 -0.1194  0.0370  0.2177
 7808W        W23942  11.125  17.438  15.773  0.0076 -0.0463 -0.0877
 7809W        W23943  10.978  10.018  14.179  0.1111 -0.4127  0.1787
 7810W        W23944   6.660   1.054  12.082  0.0708  0.2453 -0.2707
 7811W        W23945  15.299   3.816   3.717 -0.1186 -0.1936  0.4211
 7812W        W23946   4.471   7.612  14.943 -0.2261 -0.0017 -0.0213
 7813W        W23947   6.772  12.194  12.388  0.1912  0.1652  0.0242
 7814W        W23948  16.377  11.661   3.695 -0.1857 -0.0707  0.1421
 7815W        W23949   4.727   8.914   5.156  0.1231  0.1073 -0.3726
 7816W        W23950   4.813  17.925   5.531 -0.4106 -0.2951 -0.0712
 7817W        W23951  10.212  14.361   2.871  0.0100  0.0301  0.0632
 7818W        W23952   7.006  14.448  11.663 -0.0884  0.0765 -0.0252
 7819W        W23953   0.672  11.864   2.993 -0.3274  0.0278  0.0033
 7820W        W23954   8.886   2.190   3.207 -0.1928  0.0439 -0.0871
 7821W        W23955   5.089  11.466  16.523  0.0421  0.0576 -0.0449
 7822W        W23956  15.029   8.578   0.771 -0.0395 -0.3228  0.4187
 7823W        W23957   4.137   6.777  13.461  0.0580  0.1184  0.0008
 7824W        W23958   4.596   6.284   1.897 -0.1855 -0.3811  0.0888
 7825W        W23959  10.854  15.634  14.292  0.1282  0.0086 -0.0849
 7826W        W23960   0.651  11.752  13.782  0.0160 -0.1244 -0.1448
 7827W        W23961   0.492   6.706   1.553  0.1411  0.2834 -0.0494
 7828W        W23962  16.681  17.394  15.739  0.2530  0.1176 -0.0951
 7829W        W23963  17.439   8.468  15.818 -0.2060  0.0819  0.2467
 7830W        W23964   8.825  11.296   0.153 -0.1842  0.2282  0.2262
 7831W        W23965  11.683  10.771   4.032  0.2937  0.2250 -0.4559
 7832W        W23966   5.552   3.894  13.727  0.0449  0.3645 -0.0970
 7833W        W23967  11.238   7.853   2.282  0.0442  0.2710  0.0391
 7834W        W23968  12.768   6.237   3.075 -0.1959 -0.1444  0.1746
 7835W        W23969  14.010   4.526  11.915  0.0151 -0.0544 -0.3431
 7836W        W23970   9.920  13.644   2.854 -0.0468  0.0207  0.0921
 7837W        W23971  13.433   6.694  14.547  0.2367  0.2128  0.1453
 7838W        W23972   1.857   6.840   4.579  0.2592  0.1515  0.2602
 7839W        W23973  14.752   0.974   6.269 -0.0929 -0.2627 -0.0472
 7840W        W23974  10.228   6.566   0.885 -0.2206 -0.0358 -0.0052
 7841W        W23975  17.220   3.912  15.923 -0.1292 -0.1369 -0.0649
 7842W        W23976   3.247  13.168  12.989 -0.0102 -0.2264 -0.0074
 7843W        W23977   1.113  16.830   6.516  0.0420 -0.0407 -0.1131
 7844W        W23978   2.602  16.456  11.330 -0.1093  0.2664 -0.0079
 7845W        W23979  13.638  10.934   0.082 -0.1571 -0.0149  0.1520
 7846W        W23980   1.938  12.027  16.368  0.4117  0.0927 -0.0442
 7847W        W23981   6.756  14.403  12.426  0.1570  0.2962 -0.0958
 7848W        W23982   9.714  14.576   5.906 -0.2329 -0.2366  0.0143
 7849W        W23983  12.629  11.780  13.999 -0.0903  0.1467  0.0867
 7850W        W23984   4.544   3.314   0.125  0.1134  0.0521 -0.0982
 7851W        W23985   1.350  15.968  13.720 -0.2091  0.4107  0.1173
 7852W        W23986   8.081   0.540   1.602  0.3353  0.0030  0.4649
 7853W        W23987  18.118   8.239   0.502  0.0124 -0.0719 -0.1725
 7854W        W23988   0.694  15.579   5.531  0.0118 -0.0969  0.0979
 7855W        W23989   0.288   0.702  14.764  0.0422 -0.2012 -0.2536
 7856W        W23990   0.335   7.153  12.463  0.3056 -0.4686  0.0388
 7857W        W23991   4.213   1.138  11.651 -0.1486  0.2260  0.3698
 7858W        W23992   4.770   2.466  13.526 -0.0662 -0.0319  0.2500
 7859W        W23993   7.116  17.974   4.319  0.0486  0.0113 -0.0589
 7860W        W23994  10.797  11.981   2.267 -0.1142 -0.2162 -0.1221
 7861W        W23995  15.320  10.720   0.416 -0.1793 -0.0544  0.2166
 7862W        W23996   4.477  16.009   0.524 -0.1657 -0.2400 -0.2630
 7863W        W23997   9.907   3.595  15.399 -0.2216  0.0559 -0.0268
 7864W        W23998  17.633  13.900  12.408  0.1796 -0.0799  0.0311
 7865W        W23999  15.255  17.323  15.861  0.1789  0.1402 -0.1009
 7866W        W24000   3.218  16.305  12.351  0.1560 -0.5309  0.0949
 7867W        W24001   1.868   0.348   4.720 -0.2966  0.0189 -0.1762
 7868W        W24002   5.008  14.695  11.177  0.0983  0.2211  0.3140
 7869W        W24003   2.294   8.642  13.900  0.0145 -0.0546 -0.2520
 7870W        W24004  12.874  10.966   4.871 -0.0669 -0.0249 -0.0000
 7871W        W24005  10.290  14.711   1.826  0.1803 -0.0004  0.3198
 7872W        W24006  10.918  13.885   2.749  0.1325  0.0147  0.2843
 7873W        W24007   8.496   5.251  15.042  0.3540 -0.0605 -0.0794
 7874W        W24008   2.990   9.470  14.684 -0.0797 -0.0996 -0.0061
 7875W        W24009   2.582  10.030   0.217 -0.1905  0.1128  0.1940
 7876W        W24010  13.202   2.604  11.957 -0.3266 -0.1620 -0.4628
 7877W        W24011   4.838   3.190  11.792 -0.3240 -0.1785  0.0411
 7878W        W24012  17.007  14.519   5.751  0.0855 -0.0271  0.0597
 7879W        W24013  15.326   0.334   0.755 -0.0700  0.1205 -0.1852
 7880W        W24014  11.542  17.133   5.452 -0.0430 -0.0024  0.1570
 7881W        W24015   3.781  16.238   4.641 -0.1437  0.0177  0.0417
 7882W        W24016  13.957  12.646  11.618  0.2121  0.0397  0.0827
 7883W        W24017   2.691  16.161   0.378  0.2355  0.1950 -0.0742
 7884W        W24018  10.783   6.774   2.992 -0.2600  0.1716  0.1955
 7885W        W24019   5.227   9.557  14.436  0.1576  0.0428  0.2598
 7886W        W24020  10.799   7.528  14.049  0.0661  0.2144 -0.0026
 7887W        W24021  12.644   6.805  13.611 -0.1702 -0.0972  0.0899
 7888W        W24022  13.708   1.687  14.966 -0.1397  0.1524 -0.3495
 7889W        W24023   9.037   9.334  10.913  0.0168 -0.1275  0.3021
 7890W        W24024   7.125   5.193  12.648  0.0698 -0.0887 -0.0647
 7891W        W24025   7.287   7.271  14.465 -0.0840  0.0992  0.1338
 7892W        W24026   8.978  16.798  14.579  0.0372 -0.1935 -0.3188
 7893W        W24027   1.547   0.434   4.012 -0.2043 -0.2410  0.1668
 7894W        W24028   9.194   7.248   4.627 -0.1008 -0.1969  0.0186
 7895W        W24029  17.446  10.821   4.378  0.0441 -0.0215  0.2918
 7896W        W24030  17.673  15.848   2.372 -0.0831 -0.1147  0.0460
 7897W        W24031   3.981  12.934   5.206  0.0488  0.0930 -0.3546
 7898W        W24032  14.712  17.389  13.743 -0.4580 -0.2926 -0.1326
 7899W        W24033   1.494   5.641  13.641 -0.0091  0.0602 -0.0961
 7900W        W24034   1.070  13.322   0.184 -0.1434 -0.0381 -0.1441
 7901W        W24035   1.455  14.979   2.502  0.3475 -0.2463 -0.0309
 7902W        W24036   5.594   8.396   4.051  0.1969 -0.1000  0.4421
 7903W        W24037  16.512   8.071  14.868 -0.1688  0.2311  0.0731
 7904W        W24038   2.615  10.372  16.238  0.2139  0.1707  0.0080
 7905W        W24039   8.469   9.322  15.756 -0.1032  0.1677 -0.0359
 7906W        W24040  14.667   8.270   1.056 -0.0257  0.3944 -0.0169
 7907W        W24041  10.605   0.510   1.374 -0.3869 -0.0783 -0.1429
 7908W        W24042   0.928  17.213   4.243  0.2059  0.3262 -0.2453
 7909W        W24043   8.417  12.195  11.585 -0.5121 -0.4929 -0.1723
 7910W        W24044  12.829   5.284  15.315  0.2111  0.0792  0.0584
 7911W        W24045  16.943   3.348   2.079 -0.1927  0.3373 -0.1016
 7912W        W24046  10.754   5.452  14.601  0.1191 -0.2715  0.2653
 7913W        W24047   7.179   4.320   5.400 -0.2831  0.1420 -0.1528
 7914W        W24048   3.360   5.254  11.561  0.1068 -0.0803  0.0183
 7915W        W24049  13.563  17.629   4.905  0.3639 -0.2452 -0.0473
 7916W        W24050   9.304   5.594   0.913  0.1517  0.1162  0.0841
 7917W        W24051  13.187   1.458  11.308  0.0431  0.0415  0.0719
 7918W        W24052  12.372  17.304   4.294 -0.4661  0.1464 -0.0645
 7919W        W24053  10.555   2.775   4.685  0.0542 -0.0012 -0.0736
 7920W        W24054  14.329  11.211  11.995  0.0683 -0.1092 -0.1340
 7921W        W24055   4.127   4.245  13.685 -0.1295 -0.1879 -0.0298
 7922W        W24056   2.067   1.919   3.079 -0.3392  0.1234 -0.2587
 7923W        W24057  17.523   0.840  15.690 -0.1964 -0.1562 -0.0731
 7924W        W24058  17.893  11.325  15.769 -0.2359  0.1035 -0.0401
 7925W        W24059  14.543  16.545   5.014  0.1435  0.3974  0.1361
 7926W        W24060   8.602  17.786   4.887 -0.4535 -0.1146  0.1369
 7927W        W24061   6.732  15.133  15.177  0.1479  0.0725  0.0704
 7928W        W24062   5.104  15.768  12.323  0.0371  0.0602 -0.1587
 7929W        W24063   0.543   8.337  11.367  0.0518  0.2585  0.0490
 7930W        W24064  16.386  13.824   2.905  0.1521 -0.0203 -0.3137
 7931W        W24065  14.683  17.508   4.055  0.0394 -0.0778  0.0794
 7932W        W24066  16.900  11.169  14.841  0.0689  0.2693  0.2275
 7933W        W24067   1.478   0.661   5.565 -0.0305 -0.1500  0.0149
 7934W        W24068   9.463   1.632  13.491 -0.0582  0.1369 -0.0859
 7935W        W24069  13.374   7.914   0.995  0.0633 -0.0103 -0.2383
 7936W        W24070  11.901   2.120   0.082 -0.3439  0.2583 -0.0821
 7937W        W24071   5.077   7.547   1.433  0.2378 -0.3415 -0.1074
 7938W        W24072  13.754  15.271  15.401  0.4210 -0.0943 -0.0295
 7939W        W24073   0.459   2.289   2.126  0.0884 -0.1512 -0.3101
 7940W        W24074  15.792   8.243   1.992 -0.1797  0.0075  0.0305
 7941W        W24075  16.233   3.010  12.410  0.2325  0.0171 -0.2257
 7942W        W24076   0.903  13.481   3.496  0.2304 -0.1857  0.1078
 7943W        W24077  17.318  17.257   3.666  0.1427 -0.2052 -0.2039
 7944W        W24078  14.044   4.377   2.864  0.4694 -0.1433  0.2018
 7945W        W24079   6.889   1.695  12.868  0.0473 -0.4419 -0.0623
 7946W        W24080  10.325  13.827  13.831 -0.0124  0.2156 -0.0901
 7947W        W24081   7.255   3.768   5.565 -0.1655  0.1146 -0.0246
 7948W        W24082   7.345   3.928  13.973  0.0022 -0.1755  0.1878
 7949W        W24083   6.310   9.605  12.977  0.0678 -0.0083 -0.0958
 7950W        W24084   0.960  16.417  15.039  0.2854  0.1005 -0.2025
 7951W        W24085   9.461   9.780   2.354 -0.0016  0.0865 -0.4470
 7952W        W24086  16.736  11.195  10.825  0.0454 -0.1595 -0.0970
 7953W        W24087  13.272  12.889   3.460  0.3474  0.3702  0.0047
 7954W        W24088   9.184   9.851  11.320 -0.0765 -0.2601 -0.2662
 7955W        W24089  12.037   8.743   3.334 -0.2107 -0.1246  0.0383
 7956W        W24090   2.825   6.955  11.455  0.0436 -0.1702 -0.0858
 7957W        W24091  10.425   2.856   0.987  0.5572 -0.3869  0.3829
 7958W        W24092  12.731   5.329  16.373 -0.1352  0.0965 -0.4215
 7959W        W24093  11.450   1.449   2.740  0.1960 -0.1579  0.1392
 7960W        W24094  17.765   1.705  12.445  0.0691  0.0618 -0.2966
 7961W        W24095  10.535   6.624   5.776  0.0379 -0.0787 -0.1011
 7962W        W24096   7.180   6.635  11.161 -0.0832 -0.0312 -0.1186
 7963W        W24097  14.641   8.813  12.007 -0.0051 -0.1495 -0.1146
 7964W        W24098  16.730   3.764   4.644 -0.1582 -0.2913 -0.2038
 7965W        W24099  10.812  14.211  16.314  0.3237 -0.3309 -0.0183
 7966W        W24100   2.438  12.945   1.077 -0.4893  0.0557  0.0577
 7967W        W24101   5.237   8.138   5.086  0.0479 -0.1253  0.0805
 7968W        W24102   4.911   3.125  13.924 -0.0566 -0.3922  0.0441
 7969W        W24103  12.597   5.715  15.012  0.1718 -0.0069  0.1032
 7970W        W24104  12.073   4.397   4.303  0.3124  0.1063 -0.0586
 7971W        W24105   8.430  13.444   1.952 -0.1977 -0.1293 -0.0562
 7972W        W24106  10.626   2.175  16.139 -0.2964 -0.0792 -0.1271
 7973W        W24107   6.241  11.467  15.890  0.1629 -0.1937  0.0004
 7974W        W24108  15.579  11.146   3.530  0.4017 -0.0691 -0.4120
 7975W        W24109   3.838  12.365  15.242 -0.0789 -0.1990  0.0145
 7976W        W24110  16.046   4.959  14.760  0.3183  0.1786  0.0171
 7977W        W24111   2.813   7.452  15.926  0.0144  0.3871  0.0573
 7978W        W24112   5.959  12.318  13.775  0.2199 -0.6506 -0.0390
 7979W        W24113   8.117   8.424   4.276 -0.2761 -0.1051 -0.1167
 7980W        W24114  14.896   2.438  15.176 -0.0241 -0.2893 -0.0293
 7981W        W24115   7.707   3.523   5.394  0.2031 -0.2112  0.0527
 7982W        W24116  12.841   2.994   3.827 -0.0324 -0.3439 -0.0572
 7983W        W24117  16.575  15.691  14.429  0.1582 -0.0054 -0.1642
 7984W        W24118  14.400  15.212   4.496  0.0173  0.1187 -0.0220
 7985W        W24119   4.844  10.444  11.128 -0.1607 -0.1821 -0.0372
 7986W        W24120  12.119   3.931  12.008  0.0210  0.0915 -0.1182
 7987W        W24121   1.544  10.637  11.743  0.0595  0.1601 -0.2863
 7988W        W24122   9.787   5.856   5.282 -0.1203 -0.0914 -0.0305
 7989W        W24123   3.472   4.806  14.528 -0.1308 -0.3049 -0.4095
 7990W        W24124   3.506   1.224   1.598  0.0521  0.0305 -0.1368
 7991W        W24125   2.810  17.838  15.220 -0.2341 -0.0661 -0.1695
 7992W        W24126   3.976  12.773   1.414 -0.0424  0.1651 -0.2159
 7993W        W24127  10.257   4.926  16.299 -0.4329 -0.0736 -0.2264
 7994W        W24128  17.212  11.430   3.758  0.0255  0.2318 -0.0275
 7995W        W24129   4.859  16.778   5.943 -0.3338 -0.4263  0.1200
 7996W        W24130   5.321  12.564   0.791  0.1336 -0.2764  0.1670
 7997W        W24131  10.198  10.331   4.450  0.4044  0.2947 -0.0498
 7998W        W24132   7.885   6.263   4.176 -0.0433 -0.2184  0.0841
 7999W        W24133   5.238   8.096   2.708 -0.3646  0.2483 -0.0105
 8000W        W24134   5.377   5.518   5.059  0.0940  0.0908  0.0266
 8001W        W24135   4.578   0.705  15.379  0.2127  0.0612 -0.0870
 8002W        W24136  18.171   7.155  11.183 -0.0362 -0.0704 -0.0664
 8003W        W24137  14.388  10.520   0.743  0.1095  0.0034  0.0720
 8004W        W24138  15.920  16.349   5.067  0.0728 -0.2835  0.0374
 8005W        W24139  15.677   4.456   0.285  0.0614 -0.0816 -0.0937
 8006W        W24140   8.031   5.942  10.693 -0.0890 -0.3239 -0.0857
 8007W        W24141   7.172   1.421   2.446  0.5212  0.1318 -0.0209
 8008W        W24142  11.984   8.173  12.352  0.0904 -0.0873  0.0344
 8009W        W24143   4.444   5.642   1.247 -0.3824 -0.2881  0.1266
 8010W        W24144  13.979  12.170   4.917 -0.2897 -0.0517 -0.1471
 8011W        W24145   7.232   3.282   3.528  0.1252 -0.1077 -0.0269
 8012W        W24146  15.168  11.246  12.778  0.0379  0.2586  0.2569
 8013W        W24147  11.584   3.585  16.115  0.1217 -0.0583 -0.0063
 8014W        W24148  12.599  15.986  12.901 -0.0198 -0.0227 -0.1501
 8015W        W24149   4.130  10.896  16.477  0.0655 -0.0205  0.1689
 8016W        W24150   0.529   2.794   4.266  0.2189  0.1385 -0.2359
 8017W        W24151   0.932  14.409  12.798 -0.3412  0.1043 -0.2533
 8018W        W24152  14.296   4.189  16.128  0.1422  0.2095 -0.2621
 8019W        W24153   5.933   6.572   3.660  0.3723 -0.2278 -0.1926
 8020W        W24154  12.141   0.482   4.780  0.0859  0.1193 -0.0083
 8021W        W24155   8.160   7.808  14.432  0.0206  0.1372 -0.0886
 8022W        W24156   5.624   4.980   0.786  0.2984  0.0172  0.0676
 8023W        W24157   6.440  13.601   4.438  0.1625 -0.1748 -0.1034
 8024W        W24158   5.765   8.667  14.565  0.2483  0.1333 -0.0139
 8025W        W24159   6.980  17.477   1.643 -0.0389  0.0897 -0.1582
 8026W        W24160   9.044   9.381   3.149 -0.4220  0.2030  0.1630
 8027W        W24161   0.742  13.733   6.360 -0.1328  0.0320 -0.0340
 8028W        W24162  12.403  13.456   6.512 -0.2328 -0.0533  0.0954
 8029W        W24163   3.724   1.340  11.519  0.1285 -0.1158  0.4199
 8030W        W24164  12.523   0.960  13.019  0.0613  0.1042  0.0413
 8031W        W24165   7.776   6.760   4.290 -0.1548 -0.0401  0.3251
 8032W        W24166  14.427   2.034   3.566  0.1457  0.3179  0.1565
 8033W        W24167  12.719   4.242  10.598  0.3765  0.3885 -0.0249
 8034W        W24168   7.704   4.218   1.456 -0.0034 -0.0461  0.0477
 8035W        W24169   8.919  10.571  13.170 -0.1882 -0.2418 -0.1248
 8036W        W24170   0.815  16.587   1.490  0.0519 -0.0638  0.0244
 8037W        W24171   7.561  14.939  11.306 -0.1444  0.1575 -0.0242
 8038W        W24172  17.399  13.614   3.384 -0.2366  0.0975 -0.3081
 8039W        W24173  13.136   8.778  16.228 -0.0744  0.1563 -0.0700
 8040W        W24174  10.549   1.729   5.120  0.0695  0.0009  0.3708
 8041W        W24175   9.093   9.867  13.573 -0.2454 -0.0292  0.0028
 8042W        W24176   5.643  13.622   0.647  0.0501  0.2027 -0.3596
 8043W        W24177   7.724   2.034   5.711 -0.0244 -0.2458  0.1217
 8044W        W24178   1.993   3.183  13.967 -0.2676 -0.1652  0.2759
 8045W        W24179   4.180  16.467   5.886 -0.3220 -0.0424 -0.1668
 8046W        W24180  17.471  16.580  14.981 -0.1850  0.1851 -0.0043
 8047W        W24181   9.138   3.201  11.776 -0.2353  0.2466  0.0074
 8048W        W24182   0.243   2.634  13.180  0.0734  0.0710  0.1378
 8049W        W24183   2.519   8.632  16.465  0.2555 -0.2232 -0.1754
 8050W        W24184   7.580   8.261  11.053 -0.0225  0.3347  0.0938
 8051W        W24185  14.915   0.605   0.297 -0.0606  0.1508 -0.4589
 8052W        W24186   5.394  12.692   3.773 -0.1588 -0.2348 -0.3101
 8053W        W24187  14.766  14.000   3.746 -0.0606  0.1139  0.4004
 8054W        W24188   2.924   0.948   0.658 -0.0984 -0.2011  0.1100
 8055W        W24189   0.420  11.329  14.712 -0.0489 -0.0320  0.1912
 8056W        W24190   9.523  13.721  14.828  0.2104  0.0511 -0.0865
 8057W        W24191   0.054  17.675   5.162 -0.2544 -0.0820  0.1732
 8058W        W24192   1.850   6.996   5.108 -0.1871  0.3871 -0.1397
 8059W        W24193  13.155  17.789  15.838 -0.1823 -0.0141  0.1996
 8060W        W24194  17.423   2.952  13.279 -0.0658 -0.0235 -0.1364
 8061W        W24195   6.133   4.900   6.329  0.2727  0.0638  0.2714
 8062W        W24196   5.597   3.547  13.301 -0.2277 -0.4288  0.2824
 8063W        W24197   6.426   8.891   5.108 -0.0580 -0.0718  0.0536
 8064W        W24198  17.191  10.454   4.079  0.0027  0.0885 -0.1106
 8065W        W24199  17.812   3.861  13.610  0.0085 -0.0976  0.1321
 8066W        W24200  13.860   7.556   3.640  0.0239  0.0680  0.4257
 8067W        W24201  11.562   1.826   3.674 -0.0350 -0.1757  0.5493
 8068W        W24202   4.751   7.334   4.656 -0.0141 -0.0296 -0.1807
 8069W        W24203   6.752   5.706  12.226 -0.4989 -0.1084 -0.2113
 8070W        W24204  11.714   8.443  11.276  0.3199 -0.2608 -0.0585
 8071W        W24205   3.476  17.208   1.952  0.2196 -0.2213  0.1941
 8072W        W24206   2.257   8.498   2.478 -0.1078 -0.0796  0.0839
 8073W        W24207   4.869   4.057   2.361 -0.0614  0.2091  0.1273
 8074W        W24208   4.726   1.528   5.244  0.1479  0.0277 -0.2107
 8075W        W24209   8.209   8.968   3.470 -0.0168  0.0018 -0.0993
 8076W        W24210   2.686  12.328  12.167 -0.2708  0.2220  0.1923
 8077W        W24211   9.560  15.651   2.662 -0.2449 -0.1560 -0.1626
 8078W        W24212  13.467  17.182   3.268 -0.1489 -0.1329  0.0310
 8079W        W24213  16.621  15.794   3.067 -0.0909  0.2143  0.2752
 8080W        W24214  17.674  14.228  16.374  0.0340  0.2863  0.1854
 8081W        W24215   1.006  13.696  13.422 -0.0418  0.1831 -0.3670
 8082W        W24216  13.342   8.850   2.742  0.0072 -0.1138  0.2173
 8083W        W24217   3.598   0.722  13.227 -0.0858 -0.1310 -0.0842
 8084W        W24218  13.227  12.403   3.576 -0.2030  0.1336  0.1509
 8085W        W24219  14.104   9.217   5.350  0.1816 -0.1445  0.3111
 8086W        W24220   1.590  10.304  14.744  0.2168 -0.0154 -0.4229
 8087W        W24221  12.760  12.088   2.968  0.2350  0.0493 -0.1347
 8088W        W24222  10.576   6.460   4.330 -0.1629 -0.4206  0.1016
 8089W        W24223  13.945  17.999   5.042  0.0717  0.0819 -0.0731
 8090W        W24224   3.568  15.122  14.273  0.4084 -0.1462 -0.1346
 8091W        W24225  12.184  15.339   2.317  0.1501 -0.2103 -0.2008
 8092W        W24226   3.532   7.797  14.754 -0.0059 -0.3130  0.1707
 8093W        W24227  12.731   3.213  13.258 -0.2780 -0.2191  0.1277
 8094W        W24228   7.027  14.461   2.586  0.0191  0.0498  0.0782
 8095W        W24229  18.098   8.289   2.932 -0.0651 -0.0512  0.0274
 8096W        W24230  11.566   1.093  13.594  0.1800 -0.1490 -0.1172
 8097W        W24231  17.947   9.152   4.853  0.0477  0.4548  0.1728
 8098W        W24232  12.065  12.365   2.617  0.0633 -0.0228  0.3229
 8099W        W24233  10.305   1.328   4.868 -0.1000  0.1505  0.1319
 8100W        W24234   3.130   5.433   3.455  0.2458 -0.0015  0.0519
 8101W        W24235  16.288  16.720   0.767  0.2756  0.2132  0.2227
 8102W        W24236  12.739   8.697  13.751 -0.0175  0.0528  0.1090
 8103W        W24237  13.007  12.134  12.710 -0.1297 -0.0758 -0.0011
 8104W        W24238   7.998  17.374   5.545  0.1227  0.1548  0.0887
 8105W        W24239  17.646  13.357   2.986 -0.1366  0.0705 -0.0979
 8106W        W24240  17.590  16.837   0.878 -0.2337 -0.0970 -0.1944
 8107W        W24241   4.912  13.695   6.058  0.1705 -0.1119  0.0442
 8108W        W24242  11.393   7.352   2.322 -0.3700 -0.1702 -0.3156
 8109W        W24243   2.444  13.041   5.905 -0.2312 -0.2658  0.1340
 8110W        W24244   0.556  15.105   1.401  0.0481 -0.0434  0.0857
 8111W        W24245  13.542  17.055   4.875  0.2984 -0.0040 -0.1540
 8112W        W24246   9.183   1.570  15.078  0.1081 -0.0066  0.0656
 8113W        W24247   8.900   3.169  12.912 -0.2506  0.3018 -0.1989
 8114W        W24248  14.462   3.344  11.630 -0.3443 -0.0121 -0.0793
 8115W        W24249   0.619  15.081   3.251 -0.1766  0.0904  0.0305
 8116W        W24250  12.229   7.404   4.841 -0.0165 -0.0936  0.0441
 8117W        W24251   1.882   7.615  16.042 -0.2930 -0.1156  0.0888
 8118W        W24252  14.472   8.158  14.642 -0.0979 -0.1163 -0.1797
 8119W        W24253   1.506  11.269   1.032 -0.3852  0.0375  0.2882
 8120W        W24254   6.587   5.708  11.322 -0.0673 -0.2689 -0.1897
 8121W        W24255  11.209   9.284  14.207 -0.0415 -0.2312  0.0402
 8122W        W24256   0.496  11.241   5.364 -0.0910 -0.1489  0.0028
 8123W        W24257  13.637   0.086  14.279 -0.1380  0.0153  0.0216
 8124W        W24258   5.727  17.240   3.811  0.0558  0.0930 -0.0245
 8125W        W24259   1.771  12.754   3.193 -0.0120 -0.1815 -0.0799
 8126W        W24260  10.972   1.444  11.926 -0.0781  0.1605  0.1227
 8127W        W24261  16.509  16.504   1.489  0.1047  0.1707 -0.0229
 8128W        W24262   7.204   0.200   4.763  0.4383  0.0578 -0.0876
 8129W        W24263  12.133   1.405   1.491 -0.0553 -0.0588 -0.0999
 8130W        W24264   1.106  10.849  15.495 -0.0147  0.1606 -0.2025
 8131W        W24265   4.823  14.298  16.015  0.2285  0.0255 -0.1851
 8132W        W24266   1.058   9.450  12.820  0.0446 -0.0597  0.1480
 8133W        W24267   2.512   9.054  12.599  0.1789  0.0146  0.0896
 8134W        W24268  13.040  17.527  14.479  0.0687 -0.1177 -0.1820
 8135W        W24269   5.061  13.848  11.718 -0.0063  0.1664 -0.0313
 8136W        W24270  17.888   3.455  13.934 -0.0607  0.1192 -0.4455
 8137W        W24271   9.799   9.252   0.688  0.0691 -0.0523 -0.2432
 8138W        W24272  11.442   1.429   0.279 -0.0713  0.0243 -0.0071
 8139W        W24273   1.603   6.436   3.425  0.0523 -0.2994 -0.3228
 8140W        W24274   1.992  14.021   5.695 -0.0174 -0.1133 -0.0933
 8141W        W24275   7.877   6.928   4.746 -0.0264  0.0213  0.0147
 8142W        W24276  17.644   3.057  12.801  0.0340  0.2913  0.5043
 8143W        W24277  17.098   5.909  12.390 -0.2788  0.3512  0.1151
 8144W        W24278   6.950  10.672  12.287  0.0308 -0.0910 -0.1486
 8145W        W24279   3.547   8.895   2.543  0.0748  0.1403 -0.2315
 8146W        W24280  15.073  12.052   0.747 -0.1198 -0.0028  0.1981
 8147W        W24281   1.594  15.464   4.293 -0.0585 -0.1019  0.2678
 8148W        W24282  11.106   1.333   1.690  0.1725 -0.3149 -0.1187
 8149W        W24283   6.128  14.834  13.103 -0.2425 -0.4945  0.1079
 8150W        W24284  12.976  12.346   1.853 -0.0064 -0.2029  0.0288
 8151W        W24285   9.957  11.467  10.846 -0.2511  0.0121 -0.2254
 8152W        W24286   0.995   7.063   2.750 -0.0253  0.0269  0.1331
 8153W        W24287   1.602   1.535   4.466  0.3125 -0.0176 -0.0035
 8154W        W24288  11.565  12.762   5.801 -0.2299  0.1104 -0.2076
 8155W        W24289   4.532  17.895   1.653  0.1498 -0.3179  0.2244
 8156W        W24290  16.503   6.695   3.628  0.0124 -0.0802 -0.2441
 8157W        W24291  16.179   4.472   4.371  0.1682  0.0207 -0.1194
 8158W        W24292  10.974  12.011  13.780 -0.0993  0.2959 -0.1157
 8159W        W24293   5.968  12.931  15.726  0.1750 -0.2649  0.0958
 8160W        W24294  10.098  10.413  15.632 -0.3877 -0.2203 -0.2705
 8161W        W24295  17.024  12.210   1.605  0.0266  0.0445 -0.0895
 8162W        W24296  14.200   8.021   0.931  0.1646 -0.1733 -0.1948
 8163W        W24297  15.735   2.600   4.887 -0.2654 -0.2639  0.0292
 8164W        W24298   1.621   0.824   0.956  0.0370  0.0619 -0.2650
 8165W        W24299   2.159  13.230  14.238 -0.1313  0.0813 -0.0794
 8166W        W24300  11.659  16.907   1.490  0.1461 -0.1131  0.2460
 8167W        W24301  15.638   0.370   4.991  0.0399 -0.3117 -0.1170
 8168W        W24302   3.975   8.066  12.713  0.0563 -0.0889  0.0579
 8169W        W24303   8.089  12.092   0.622  0.0989 -0.1609 -0.3035
 8170W        W24304  12.661  17.642  13.129 -0.4539 -0.0540 -0.0425
 8171W        W24305  17.296  14.602   2.412 -0.1025 -0.1348 -0.0154
 8172W        W24306   9.644   4.922   3.564  0.0256  0.1717  0.0300
 8173W        W24307   1.910  17.157  13.223 -0.2512  0.1577 -0.2109
 8174W        W24308  13.872   1.705  16.031  0.2131 -0.0348 -0.2588
 8175W        W24309  10.835  14.960  14.175 -0.0140  0.2131  0.1564
 8176W        W24310   9.809   7.370  16.313  0.1648 -0.0210  0.0112
 8177W        W24311  15.352  14.230   4.584  0.1420  0.0572 -0.0744
 8178W        W24312   9.723  15.721  12.741  0.0803 -0.2847 -0.0078
 8179W        W24313   5.423   0.329   3.364  0.1180 -0.1485 -0.2325
 8180W        W24314   8.400   3.510   2.858 -0.1308 -0.0714 -0.1061
 8181W        W24315  15.428  16.945  12.480 -0.2329  0.0565  0.2765
 8182W        W24316  16.190  13.014   5.659  0.1207  0.0250  0.0929
 8183W        W24317   2.032  17.209   4.949 -0.1242  0.2568  0.0717
 8184W        W24318   7.611   1.555  13.964 -0.3054  0.1260 -0.0131
 8185W        W24319   3.832   7.358  14.427 -0.1905  0.2893  0.1035
 8186W        W24320  18.121  14.131  11.938  0.0854 -0.2060 -0.1436
 8187W        W24321  16.103   4.675   0.609 -0.1451 -0.3014 -0.0222
 8188W        W24322   1.705   4.414  15.492  0.2388  0.2785  0.1277
 8189W        W24323  18.133   3.983  11.932 -0.0470 -0.3286 -0.0996
 8190W        W24324   4.953  11.535  13.274 -0.1240  0.2241 -0.3314
 8191W        W24325  17.166   7.153   1.386 -0.0972 -0.0070  0.1645
 8192W        W24326   7.621   3.570  11.805 -0.2042  0.1752  0.1993
 8193W        W24327  11.026  13.832  15.400  0.0002 -0.4434 -0.0766
 8194W        W24328   7.876   0.302  13.290  0.1847  0.0387 -0.0654
 8195W        W24329   2.354  12.116  11.263 -0.2968  0.1172  0.0721
 8196W        W24330  16.657  17.941   5.603  0.0680  0.1853 -0.3926
 8197W        W24331   3.205   3.085   0.512 -0.4077 -0.1840 -0.1035
 8198W        W24332  12.993  16.463   2.633 -0.1002 -0.1653 -0.1441
 8199W        W24333  11.745   0.344   4.382  0.0434 -0.2301 -0.1444
 8200W        W24334  14.786   6.022  14.535 -0.1215  0.2471 -0.1627
 8201W        W24335   1.900  16.663  14.914 -0.0953 -0.1202 -0.0129
 8202W        W24336  10.037   9.139  15.460  0.0419  0.0497 -0.2079
 8203W        W24337   0.665   6.502   6.022 -0.0713 -0.4481  0.0024
 8204W        W24338   4.153  13.907   1.512 -0.1277  0.0357  0.1719
 8205W        W24339  17.749   6.851  14.947  0.0095  0.0955 -0.1213
 8206W        W24340  12.989   7.749   1.360 -0.4281 -0.0533  0.2531
 8207W        W24341  10.317  16.875  14.611 -0.3868 -0.3016  0.0716
 8208W        W24342  18.038  14.109  14.984  0.1033  0.1142 -0.1407
 8209W        W24343   3.344  10.925  12.539 -0.1821  0.1529  0.0559
 8210W        W24344   1.623   7.620   0.257 -0.2681 -0.1584 -0.1571
 8211W        W24345   5.967  16.620   1.535  0.1861  0.0203 -0.1973
 8212W        W24346  12.327  15.384   1.789 -0.0028 -0.0783  0.1658
 8213W        W24347   7.659  13.126   1.576 -0.3184  0.1984 -0.0963
 8214W        W24348   3.777  14.638   1.527 -0.1530  0.0313 -0.0003
 8215W        W24349   9.606   4.584  14.585  0.0959  0.0071 -0.1153
 8216W        W24350  16.258  15.431   4.617  0.4587 -0.0453  0.3479
 8217W        W24351   1.059  11.852   4.700  0.1770 -0.0201  0.0638
 8218W        W24352  10.604  11.794  12.972 -0.0597 -0.0834  0.1786
 8219W        W24353   9.562  11.574   0.224  0.3873 -0.0409 -0.1212
 8220W        W24354   9.634  18.105  12.219  0.0946  0.5398  0.0637
 8221W        W24355  12.601   8.777   1.458 -0.2259  0.0422  0.0865
 8222W        W24356   7.404  12.893  12.743  0.2490 -0.0861 -0.0803
 8223W        W24357  14.594  10.620   2.030 -0.1952  0.0330  0.3423
 8224W        W24358  13.199  16.098  15.414  0.1074  0.1955  0.1061
 8225W        W24359  10.471  16.289   6.322  0.1150 -0.2136 -0.0086
 8226W        W24360   2.665  15.595   0.669  0.0158 -0.0288  0.2230
 8227W        W24361   9.106   2.986   1.503 -0.2953  0.3792  0.0666
 8228W        W24362  12.729   8.878  16.515  0.1070 -0.0498  0.1037
 8229W        W24363  12.279  13.329   2.407 -0.1440 -0.0097  0.0694
 8230W        W24364  16.016  17.398  13.930  0.1646  0.2742 -0.1575
 8231W        W24365   9.079  15.222   5.228 -0.2605 -0.2223  0.1729
 8232W        W24366  14.944   8.565  11.604  0.1407 -0.3208  0.0395
 8233W        W24367   5.324   9.779   4.218  0.0664  0.3099 -0.2463
 8234W        W24368  15.344   6.451  11.044 -0.2766  0.0693  0.1167
 8235W        W24369  11.845   8.962  14.140  0.3038 -0.0471  0.0171
 8236W        W24370  14.487   4.282   5.234 -0.0423 -0.5850 -0.0401
 8237W        W24371   9.380   6.787  13.239 -0.0526  0.1726 -0.0429
 8238W        W24372   3.679  14.660   2.008  0.0323  0.1330 -0.2186
 8239W        W24373   3.854   8.707  15.447  0.3389  0.0582  0.2595
 8240W        W24374   3.184  13.972   4.241  0.0140  0.2480  0.3530
 8241W        W24375  10.898   0.549   4.824 -0.2311 -0.2699 -0.0631
 8242W        W24376   8.315   3.501   4.582 -0.0054  0.2207 -0.1380
 8243W        W24377  11.688   0.708   4.045 -0.0337 -0.0448 -0.4384
 8244W        W24378   0.903   5.945  13.696 -0.1246 -0.2917  0.1795
 8245W        W24379  14.384   2.608  13.249 -0.3790  0.0258  0.0296
 8246W        W24380   0.229  13.001   5.408 -0.0080 -0.1682  0.0309
 8247W        W24381  17.173  16.835  15.341  0.3801  0.2181  0.2453
 8248W        W24382  12.405  10.015   1.235 -0.0649 -0.1216  0.1418
 8249W        W24383   0.570   6.495   5.073  0.0065  0.2822  0.0822
 8250W        W24384  11.739  16.712   4.572 -0.0680  0.0103 -0.2303
 8251W        W24385   3.105   6.903  12.802  0.1320  0.0259  0.0459
 8252W        W24386  16.271   0.518  14.348  0.1615 -0.1554  0.1864
 8253W        W24387   9.707   7.401   4.489  0.2138 -0.1023  0.0511
 8254W        W24388   8.630   4.839  11.423 -0.0823 -0.0213  0.2871
 8255W        W24389   5.217   8.390  11.021 -0.1771 -0.0686 -0.2182
 8256W        W24390   0.035   6.617   2.945  0.2212  0.2267  0.0701
 8257W        W24391  15.144   3.586  10.505  0.0505  0.1188 -0.0772
 8258W        W24392  10.821  14.883   5.323 -0.2547 -0.0254  0.1739
 8259W        W24393  11.958   7.121  11.021  0.1603 -0.1590 -0.1162
 8260W        W24394  10.786  15.068  12.808  0.0892  0.3890 -0.2227
 8261W        W24395   3.139   8.717   2.330  0.1528  0.0460  0.3052
 8262W        W24396  10.831   8.585  11.744 -0.0701  0.1993 -0.1508
 8263W        W24397   6.935   0.058   0.473 -0.4843 -0.0222  0.0144
 8264W        W24398  11.402   7.708  16.513 -0.2696 -0.1506  0.0598
 8265W        W24399   3.643   7.047   4.882 -0.0464 -0.0778  0.0037
 8266W        W24400  14.891   2.624  13.418  0.1243  0.2185 -0.0219
 8267W        W24401   1.715   2.261   4.925  0.0156  0.1151 -0.1239
 8268W        W24402   7.384  12.783  15.447 -0.0496  0.2859 -0.1941
 8269W        W24403   6.338   9.220   1.904  0.1441  0.0546 -0.1873
 8270W        W24404   9.714   4.364  12.030 -0.0274  0.1611 -0.1197
 8271W        W24405   4.932  11.961   0.212  0.0509 -0.0214 -0.1643
 8272W        W24406   3.065  17.605  13.959 -0.4025 -0.1430 -0.0085
 8273W        W24407  11.152   3.357   4.108 -0.0154 -0.0309  0.0653
 8274W        W24408   7.561  12.648  13.875  0.2257 -0.2182 -0.2396
 8275W        W24409   6.717   8.468   4.985 -0.0100 -0.0097 -0.2129
 8276W        W24410   7.264  18.173  14.779 -0.0439 -0.0118 -0.0056
 8277W        W24411  17.155   6.971   3.626  0.0865 -0.1775  0.1201
 8278W        W24412  11.241   4.025   1.996  0.1594 -0.1900 -0.1689
 8279W        W24413  17.853  11.791  16.033  0.0994  0.3468  0.1444
 8280W        W24414   5.817  13.952  15.905 -0.4327 -0.0506  0.0367
 8281W        W24415   1.110   7.558   3.636 -0.2308  0.0704 -0.2292
 8282W        W24416  14.703  15.343   1.852  0.2356  0.0451  0.0182
 8283W        W24417   8.190   2.934   2.649  0.2433  0.3931  0.1092
 8284W        W24418  15.545   4.473   4.706 -0.0148  0.1585 -0.1687
 8285W        W24419   6.074   2.594  15.510  0.0754  0.0035  0.2318
 8286W        W24420   0.178  15.378   5.522  0.1669 -0.1207  0.1979
 8287W        W24421  10.280  12.746  16.111  0.0051  0.1525  0.0452
 8288W        W24422   1.763   0.659   2.167  0.2744 -0.1445 -0.0292
 8289W        W24423   4.193   0.546   3.936 -0.1300 -0.2933  0.2313
 8290W        W24424   4.805   5.537  14.758  0.1474 -0.2954  0.2804
 8291W        W24425   0.186  13.923  15.799  0.1130  0.1747 -0.2760
 8292W        W24426   3.980   7.186  13.004 -0.1924  0.1185 -0.0033
 8293W        W24427   2.417   9.345   2.306  0.2807  0.1845 -0.4343
 8294W        W24428  13.846   0.201   3.216 -0.0208 -0.0292  0.1435
 8295W        W24429   5.338   6.654   1.652 -0.2851  0.0926  0.0924
 8296W        W24430  14.123  17.523   2.756 -0.0471 -0.5161 -0.0771
 8297W        W24431  13.341   0.563   2.887  0.0876  0.0767 -0.0355
 8298W        W24432   5.664  12.671  15.420 -0.0342 -0.0083 -0.0549
 8299W        W24433  14.252  16.600  13.750  0.2127  0.4645 -0.1556
 8300W        W24434   6.795  16.211   0.694  0.6099 -0.1429  0.1589
 8301W        W24435   9.817   9.339  12.920  0.0069  0.0328 -0.1174
 8302W        W24436  10.114  16.015   2.964  0.2564  0.2509  0.0005
 8303W        W24437  17.758   2.606  12.941  0.1528 -0.0171 -0.1145
 8304W        W24438   6.441   3.306   1.386 -0.1979 -0.2356  0.2803
 8305W        W24439   3.684  17.398  12.195  0.1000 -0.2697  0.3148
 8306W        W24440  17.574  15.682   0.446  0.1642 -0.1506 -0.1072
 8307W        W24441  17.915   9.888  15.472  0.0483  0.1050 -0.0012
 8308W        W24442  14.689  12.995   1.183 -0.0645  0.0109 -0.0105
 8309W        W24443  11.624   9.288  11.353 -0.3520 -0.0278 -0.3523
 8310W        W24444   4.673   9.294  14.004 -0.1297 -0.1380 -0.0208
 8311W        W24445   9.792   7.265  13.982 -0.0689  0.2225  0.0808
 8312W        W24446  13.109   9.615  10.824  0.2845  0.0017  0.2606
 8313W        W24447  14.192  10.953   0.864  0.0406 -0.1654  0.0639
 8314W        W24448   8.905  15.041  11.797 -0.2140  0.1390 -0.1240
 8315W        W24449  15.754  16.460   1.612 -0.1766 -0.1109 -0.2064
 8316W        W24450  13.711   1.285   2.192  0.0549 -0.1262  0.1542
 8317W        W24451  11.428  14.582   6.430  0.0636  0.0545 -0.2319
 8318W        W24452   8.020  15.226  14.294 -0.0538 -0.1004  0.0710
 8319W        W24453   3.875  16.477  13.398 -0.2181  0.0409  0.1382
 8320W        W24454  13.214  17.429   2.779  0.1009  0.0899  0.2287
 8321W        W24455   2.165  10.146  16.144  0.4633  0.0632  0.1762
 8322W        W24456   5.038  10.994  16.269  0.1957 -0.0401 -0.1946
 8323W        W24457   6.966  17.322  12.597 -0.0160 -0.2396 -0.0475
 8324W        W24458   3.275   7.782   3.822 -0.0728  0.0154 -0.1653
 8325W        W24459  12.513   1.246  11.789 -0.0570  0.0060  0.0020
 8326W        W24460   1.686  13.012  14.963  0.0281 -0.0090 -0.3345
 8327W        W24461   0.892   4.584   5.797 -0.1755 -0.1488 -0.2146
 8328W        W24462  14.032   2.302   0.630  0.0326 -0.1615 -0.2200
 8329W        W24463   3.269   8.584  14.958 -0.2746  0.0544 -0.1091
 8330W        W24464   6.157  16.194   5.421  0.1079  0.1127 -0.0347
 8331W        W24465  11.334   0.261   5.231  0.0525  0.1790 -0.0178
 8332W        W24466   5.569  14.232   1.412 -0.2298 -0.0134  0.2608
 8333W        W24467  13.329  12.274   4.081 -0.1334  0.0203  0.0215
 8334W        W24468  13.350  14.610  14.387  0.0058  0.0274 -0.1964
 8335W        W24469  13.338  15.514  13.933  0.2228 -0.0850  0.1302
 8336W        W24470   2.477  16.976  15.238 -0.0235 -0.2351 -0.2836
 8337W        W24471  11.132  13.347  14.232  0.3327 -0.1221 -0.2923
 8338W        W24472  14.814   5.699  16.450  0.1361 -0.1184 -0.0669
 8339W        W24473  16.798   9.745   1.752  0.0611  0.1813  0.1482
 8340W        W24474   7.469   1.823  16.127 -0.0273  0.0198  0.1324
 8341W        W24475   0.646  13.428   2.925 -0.1275  0.2293  0.2174
 8342W        W24476   3.017   0.332  11.836 -0.1444  0.1552 -0.0300
 8343W        W24477  17.216   8.757  16.447 -0.0367 -0.0761  0.2213
 8344W        W24478   5.749   4.859   1.770  0.1680  0.0184 -0.1026
 8345W        W24479   3.656   6.155   3.021 -0.2120  0.3134  0.1657
 8346W        W24480   0.641  15.704  15.935 -0.2728  0.1783  0.0965
 8347W        W24481   2.947   5.956   5.018  0.1721  0.1319  0.1179
 8348W        W24482   3.476   1.950  14.735  0.0592 -0.4808 -0.3989
 8349W        W24483  15.523  10.812  15.692  0.4205  0.2332  0.0167
 8350W        W24484  17.447  18.047  15.303  0.4156  0.2776 -0.0672
 8351W        W24485  11.366  16.289  14.476  0.1401 -0.1258  0.1624
 8352W        W24486  12.115  12.340   0.794 -0.1377 -0.1229  0.1612
 8353W        W24487  11.777   5.300   3.435  0.1679 -0.0550  0.0488
 8354W        W24488   9.393  17.606   2.889 -0.1023 -0.1959 -0.1891
 8355W        W24489  13.201   0.515  15.782  0.3136 -0.0128  0.2791
 8356W        W24490  14.750  18.035  14.941  0.2541 -0.0150  0.0573
 8357W        W24491   2.866   5.973  14.046 -0.2170  0.0973 -0.1783
 8358W        W24492   5.979  15.824  12.796  0.1536 -0.0389  0.3784
 8359W        W24493  15.570  13.043  16.473 -0.1593  0.2475  0.0990
 8360W        W24494  14.697  16.265   5.425  0.3741 -0.0540 -0.0225
 8361W        W24495  18.164   1.915   2.337  0.2049  0.0048  0.0634
 8362W        W24496   7.693   0.654   0.907 -0.2546  0.0594 -0.0522
 8363W        W24497   5.419  13.791   2.757 -0.1853 -0.2922 -0.0871
 8364W        W24498   8.369   6.243   3.953 -0.0203  0.3159 -0.0322
 8365W        W24499   9.828  14.122   0.642 -0.0554  0.0859  0.0541
 8366W        W24500   1.963   7.869  11.970 -0.2448 -0.1802  0.1348
 8367W        W24501  15.664   4.110  15.113  0.2535  0.3367 -0.1380
 8368W        W24502   9.663   7.832   1.261  0.1129 -0.2647  0.2561
 8369W        W24503   9.178   6.373  12.322 -0.4667 -0.1277 -0.0479
 8370W        W24504   3.630   9.215   4.527 -0.0198 -0.0286  0.3308
 8371W        W24505   6.796   7.152  12.812  0.0947 -0.1966  0.0543
 8372W        W24506   9.006  16.016   1.987  0.5478  0.1027  0.1744
 8373W        W24507  10.002   1.025  15.185  0.1541 -0.0008 -0.1994
 8374W        W24508   0.227  16.870  13.208 -0.1148 -0.1465  0.0764
 8375W        W24509   0.878  14.509  16.254  0.0642 -0.1770  0.2857
 8376W        W24510   1.693   5.771  11.495  0.0307  0.1414  0.0077
 8377W        W24511  13.868   8.486   3.825 -0.1619  0.0312 -0.0788
 8378W        W24512  10.114  16.767   3.930 -0.2311 -0.1329  0.2233
 8379W        W24513  15.294  13.049   2.970 -0.0263  0.2329  0.2621
 8380W        W24514  11.963   4.364   1.910 -0.1253 -0.1363 -0.0502
 8381W        W24515  17.961   3.473   3.926 -0.1473 -0.1377  0.0818
 8382W        W24516   0.103   9.031  13.651 -0.1015 -0.0454 -0.0233
 8383W        W24517   6.931   7.097  10.946  0.0585 -0.0444 -0.1286
 8384W        W24518   9.281  13.075   2.316 -0.0380 -0.0259  0.2016
 8385W        W24519  10.862  10.680   5.977 -0.0734 -0.2656 -0.0252
 8386W        W24520   3.977  10.515   6.110 -0.2605  0.0670  0.0080
 8387W        W24521   8.041  17.056  13.506  0.1270 -0.1201  0.2279
 8388W        W24522  17.666   2.671   2.455  0.0776 -0.3007 -0.0481
 8389W        W24523   4.436   1.235   1.578 -0.3139 -0.0862 -0.0486
 8390W        W24524  17.529   9.652  11.039  0.1255  0.3130 -0.1754
 8391W        W24525  13.857  13.369   5.307 -0.1999 -0.0446  0.0417
 8392W        W24526   3.181  12.057   3.420  0.1023 -0.1704 -0.0557
 8393W        W24527  12.925  12.711  16.309  0.0100  0.0931 -0.1430
 8394W        W24528   2.080  12.838   2.709 -0.0098  0.2239  0.2306
 8395W        W24529  12.853  16.855   0.832  0.1641 -0.2737  0.3277
 8396W        W24530  13.573   6.664  15.560 -0.0337  0.1323  0.0826
 8397W        W24531   5.813  16.621   0.490 -0.0542 -0.3571 -0.1062
 8398W        W24532  10.728   7.725   3.476 -0.0554 -0.2037 -0.0788
 8399W        W24533   2.471  13.153   5.339 -0.2002 -0.0347  0.1061
 8400W        W24534   7.393  15.097  13.349 -0.2391  0.0376  0.4583
 8401W        W24535  11.846  10.240  10.762 -0.1962  0.1365  0.0970
 8402W        W24536   0.118  15.215  16.365 -0.1790  0.1282  0.1914
 8403W        W24537   4.345  17.862  14.463  0.0283 -0.0997 -0.1311
 8404W        W24538  10.077   4.790  12.980 -0.3331  0.0714 -0.0540
 8405W        W24539   2.364   1.582   2.260  0.2259  0.0671 -0.1950
 8406W        W24540   4.256   0.162   1.524  0.2059 -0.2048  0.0962
 8407W        W24541  10.214  15.216  12.808 -0.4384 -0.2364 -0.0447
 8408W        W24542   8.470  16.402  13.299  0.1435 -0.2309  0.1474
 8409W        W24543  13.870  17.413  14.115 -0.2350 -0.1682 -0.0724
 8410W        W24544  12.963   3.321   4.776  0.1240  0.2155  0.0472
 8411W        W24545   5.054   4.232   2.768 -0.0855 -0.1006 -0.0726
 8412W        W24546   9.009   0.586   1.796  0.1853  0.0163 -0.2974
 8413W        W24547  13.240  15.229  12.718  0.1361 -0.0077 -0.0729
 8414W        W24548   4.781   4.986  11.203 -0.3732  0.1758 -0.0089
 8415W        W24549  10.767   5.297  11.910  0.0407 -0.0603 -0.0949
 8416W        W24550  13.074   1.821  14.570 -0.1566 -0.1643  0.1495
 8417W        W24551  16.930  13.285  12.219  0.0246  0.0336 -0.2608
 8418W        W24552  10.853   7.942  10.975  0.0821 -0.0260 -0.0378
 8419W        W24553  15.316  13.522  16.355  0.1806  0.1900  0.2121
 8420W        W24554  16.694  12.314  12.672  0.2132 -0.0338 -0.1517
 8421W        W24555   6.820   2.403  14.978  0.1146 -0.2427 -0.1485
 8422W        W24556   7.768   4.488   5.504 -0.0892  0.0880  0.1876
 8423W        W24557  16.200   3.801   1.454 -0.2589  0.2836  0.1717
 8424W        W24558   4.846  10.412   2.429  0.0995  0.0360 -0.1437
 8425W        W24559  16.361  13.963  14.247  0.0593 -0.0735 -0.1154
 8426W        W24560   5.172   0.090  13.690  0.0147  0.3084 -0.2287
 8427W        W24561   3.006   3.745  14.862 -0.0294 -0.3350 -0.1648
 8428W        W24562   1.793  15.130  13.417  0.0723 -0.1896 -0.4811
 8429W        W24563  10.567  15.209  13.205 -0.0771  0.0681  0.1697
 8430W        W24564   1.359  16.578   5.569 -0.1374  0.0988  0.0185
 8431W        W24565   7.714  14.611  12.194 -0.1359 -0.0024  0.1351
 8432W        W24566   1.330   4.250   3.232 -0.1067 -0.0892 -0.3503
 8433W        W24567  11.162  12.549   2.066 -0.2250 -0.0751 -0.1119
 8434W        W24568  11.348  14.748  14.652 -0.2758  0.1780  0.0778
 8435W        W24569   7.403   4.918  16.007 -0.1640  0.0604 -0.1064
 8436W        W24570   1.786   1.752   4.826 -0.1241 -0.0782 -0.0781
 8437W        W24571  10.218  12.959   3.453  0.0519  0.1192 -0.0611
 8438W        W24572   3.509   9.538   0.505  0.2926 -0.0456  0.1146
 8439W        W24573  16.083   4.801   0.080  0.2020  0.2195 -0.1657
 8440W        W24574   6.868  15.949   3.807  0.1540  0.0043 -0.1082
 8441W        W24575   8.073  13.220  16.360  0.3600  0.1119  0.0577
 8442W        W24576   0.076   4.443   3.504 -0.0152 -0.1975 -0.0861
 8443W        W24577  15.535  13.036   1.602  0.1447  0.1300  0.1356
 8444W        W24578  12.550   4.652   3.554  0.0812 -0.0603 -0.1378
 8445W        W24579   0.521   5.783   4.144  0.0040  0.2891  0.0713
 8446W        W24580   4.695  16.207  15.353  0.1299 -0.0992 -0.1676
 8447W        W24581   6.542  14.658   6.127  0.0760 -0.1318  0.1849
 8448W        W24582   6.819  14.460  14.865  0.1250  0.0824  0.1019
 8449W        W24583  13.261   2.162  12.189  0.1844 -0.3784 -0.0034
 8450W        W24584  11.827  14.760  12.671 -0.1577  0.2034 -0.0441
 8451W        W24585   3.544  13.517  11.673  0.2386  0.0023  0.1695
 8452W        W24586   8.221  17.114   0.542  0.1303 -0.0530  0.3774
 8453W        W24587  10.907  15.954  13.926 -0.0561 -0.0303 -0.0498
 8454W        W24588  11.537   1.957   0.385 -0.2624 -0.2030 -0.2018
 8455W        W24589   0.085   4.291  12.348  0.0096  0.0782 -0.1499
 8456W        W24590   2.787  10.493  11.438 -0.2871 -0.3049  0.3228
 8457W        W24591   9.636   6.393   2.379  0.0586  0.0094  0.0302
 8458W        W24592  10.734   6.001  12.552 -0.1555 -0.2022 -0.0469
 8459W        W24593  10.851   1.301  15.246  0.2094 -0.1963 -0.1940
 8460W        W24594  15.567   5.454   2.620  0.2850 -0.1030 -0.1681
 8461W        W24595   4.989   5.261   2.873  0.0525 -0.2032 -0.0792
 8462W        W24596   0.548   6.436  11.977 -0.0634 -0.0886  0.0786
 8463W        W24597   8.412   5.359  12.476 -0.1057 -0.0928 -0.5304
 8464W        W24598  12.381   1.080  12.560  0.2525  0.1466  0.2679
 8465W        W24599  14.563  11.381  15.001 -0.0833 -0.1312 -0.0864
 8466W        W24600   2.003   2.553   5.766 -0.0838  0.2016 -0.0256
 8467W        W24601   1.767   3.963   3.485  0.2676 -0.0921 -0.0816
 8468W        W24602   8.058  17.249  14.538 -0.0524  0.3112 -0.3253
 8469W        W24603  14.829  14.315  12.284  0.0401  0.2260 -0.0080
 8470W        W24604  14.568  15.995   4.093 -0.3162  0.3512 -0.1784
 8471W        W24605  11.737   1.242   5.152 -0.0524 -0.3278 -0.2316
 8472W        W24606  14.198  17.563   3.775  0.3281 -0.1403  0.0122
 8473W        W24607   9.023   2.992  15.139  0.3374  0.1661  0.0679
 8474W        W24608  15.708  17.824  13.911  0.1811  0.2920  0.1814
 8475W        W24609   1.120   1.260   3.099 -0.1633 -0.0090 -0.2277
 8476W        W24610  13.569  16.233   1.428  0.0601 -0.0925 -0.0565
 8477W        W24611   0.756  14.541  15.125 -0.1858  0.3960  0.1199
 8478W        W24612  16.501  15.897   6.137  0.2060 -0.0351 -0.0974
 8479W        W24613  11.249  15.418   2.199 -0.1034 -0.0569 -0.2594
 8480W        W24614  10.211  16.765  15.106 -0.1185  0.2036  0.0260
 8481W        W24615  11.252   5.203  11.744 -0.0517  0.0582  0.0350
 8482W        W24616   7.430   6.589  15.256  0.0348  0.1140  0.1028
 8483W        W24617  10.381   2.841   3.501 -0.2955 -0.1078  0.0971
 8484W        W24618  15.093   3.339  15.543 -0.3817 -0.3890  0.2620
 8485W        W24619   7.061   8.792  13.950 -0.0012  0.1215 -0.1530
 8486W        W24620   2.702   8.650  15.997 -0.2333  0.3643  0.0774
 8487W        W24621   3.839  11.225   4.334  0.0829  0.0855 -0.4292
 8488W        W24622   6.497  16.643  14.070  0.2367  0.1792 -0.2845
 8489W        W24623   8.698   2.002  13.246  0.4078 -0.1667 -0.1159
 8490W        W24624  15.468   6.462  15.242  0.1455 -0.1387  0.0030
 8491W        W24625   2.957  12.011  16.482 -0.1005  0.3949 -0.0048
 8492W        W24626   7.237   8.815  11.956  0.1867 -0.3932 -0.0603
 8493W        W24627  16.700   4.752  15.833 -0.1074 -0.0225 -0.1844
 8494W        W24628  14.245  13.593   1.012 -0.2540  0.0370  0.2048
 8495W        W24629  14.564   3.245   4.320  0.3068 -0.1582  0.2022
 8496W        W24630   7.631  17.690   0.002  0.1330 -0.2075 -0.1766
 8497W        W24631   3.128   6.901   4.327  0.3344  0.1621  0.0397
 8498W        W24632   8.168  12.005  11.099  0.1131  0.2318 -0.0495
 8499W        W24633   4.710   3.824   0.729 -0.2500  0.1605 -0.0800
 8500W        W24634   0.645   1.069   2.890 -0.2415 -0.0942 -0.0779
 8501W        W24635   0.503   7.821   1.325  0.2595 -0.0429  0.1236
 8502W        W24636   8.685  15.504  11.043 -0.2218  0.2353  0.2556
 8503W        W24637  14.498   1.262   4.145 -0.3964 -0.3117 -0.1897
 8504W        W24638  10.165   6.014   2.177 -0.2948 -0.1295 -0.0277
 8505W        W24639   1.103  13.124  15.690 -0.1611 -0.0045  0.1118
 8506W        W24640   3.202   9.843   2.261  0.1084 -0.1805 -0.1311
 8507W        W24641  11.452  12.643  11.307  0.1617  0.3427  0.1389
 8508W        W24642  17.511   0.291  13.018 -0.2179 -0.1799  0.1905
 8509W        W24643   7.173   7.032  12.444  0.0021 -0.0868 -0.0071
 8510W        W24644  11.058  10.063  14.761  0.3148 -0.1221 -0.2220
 8511W        W24645   3.992  15.713   3.152  0.1163  0.0149 -0.2784
 8512W        W24646   0.138  11.554   1.148 -0.0831  0.2699  0.0635
 8513W        W24647   5.339  16.869  16.282 -0.1887 -0.1855 -0.1677
 8514W        W24648   3.936   0.085   3.281 -0.0290 -0.0302 -0.3314
 8515W        W24649   5.469   7.418   5.707 -0.1348 -0.3297 -0.1146
 8516W        W24650  10.382  11.950  13.794  0.0309 -0.1094  0.5641
 8517W        W24651   2.244  14.522  12.327 -0.0203 -0.0420  0.3382
 8518W        W24652   9.773  13.965   3.634  0.0890 -0.2367  0.0227
 8519W        W24653  12.409   1.874   3.851 -0.1229 -0.0003 -0.0259
 8520W        W24654   4.594   8.873   2.311  0.0329 -0.0722  0.0972
 8521W        W24655   5.303   4.128  15.789 -0.1414 -0.1415 -0.2668
 8522W        W24656   9.522   1.576   0.923 -0.3058  0.0507  0.3344
 8523W        W24657   2.192  15.799   1.290  0.3346 -0.0121 -0.2541
 8524W        W24658   0.609   9.806   3.730 -0.3850  0.0631  0.2250
 8525W        W24659  17.032   9.121   0.787 -0.1022 -0.1143  0.0110
 8526W        W24660  13.410  15.449   3.526 -0.1703 -0.1503  0.0355
 8527W        W24661   0.912   7.855  13.443  0.0339 -0.0178  0.0332
 8528W        W24662   3.270   8.657   2.872  0.0495 -0.0845 -0.1082
 8529W        W24663   3.011  11.345  15.166  0.2727 -0.4553 -0.2680
 8530W        W24664  10.330  14.209  15.119  0.4443  0.0655 -0.3852
 8531W        W24665   1.480   0.834  11.758  0.2146 -0.0393  0.0225
 8532W        W24666   3.499  11.062   5.429  0.1730  0.3442 -0.4224
 8533W        W24667  17.194   3.380   0.083 -0.1282  0.1067 -0.2319
 8534W        W24668   4.959  14.606   0.161  0.2970  0.1448 -0.0159
 8535W        W24669   2.912  15.806  16.291  0.1801  0.1862 -0.0150
 8536W        W24670  16.728  12.661   3.741 -0.0078  0.0794 -0.2588
 8537W        W24671  16.672  13.210  13.687  0.2388 -0.0715  0.1446
 8538W        W24672  14.471  13.515   3.341  0.2370 -0.1204  0.2152
 8539W        W24673   4.116   7.690   1.181 -0.1444  0.0776 -0.0055
 8540W        W24674  17.266  16.132   6.085 -0.0758  0.0738  0.2670
 8541W        W24675  13.923   3.636  11.380 -0.3267  0.0854  0.1354
 8542W        W24676  15.850  14.284  11.231  0.1296  0.0710  0.0303
 8543W        W24677   5.212   8.490  15.522 -0.3370  0.2680  0.1308
 8544W        W24678  17.637   7.366  14.125  0.1529  0.1699 -0.2080
 8545W        W24679   4.498   9.463  11.176  0.1507 -0.0092 -0.0299
 8546W        W24680   2.104  14.004  11.424  0.2807 -0.0509  0.0139
 8547W        W24681  15.937   5.304  13.990 -0.1493  0.1414 -0.0401
 8548W        W24682   6.482   9.291  12.588  0.0574 -0.0928  0.0617
 8549W        W24683   7.844   5.900   4.964  0.1104 -0.3979  0.0362
 8550W        W24684  17.275   6.943   4.284 -0.1604  0.5369  0.0409
 8551W        W24685   9.430  18.025   0.328 -0.0885 -0.1132  0.0097
 8552W        W24686  10.639  15.523  15.148  0.1966  0.0495  0.0401
 8553W        W24687  14.128  10.255   2.773 -0.0860 -0.0977  0.0087
 8554W        W24688   7.474   7.734   4.537  0.1353  0.0343  0.1616
 8555W        W24689  12.104   1.665  16.356 -0.3610  0.2317 -0.1293
 8556W        W24690   1.793  14.573   3.176 -0.3939 -0.0401 -0.0018
 8557W        W24691   3.013   3.678  12.604  0.2738  0.0230  0.1294
 8558W        W24692   8.150  18.049  14.058 -0.2381  0.0454  0.1032
 8559W        W24693  13.745   8.036  14.215 -0.4488  0.3093 -0.1080
 8560W        W24694  11.390   8.437   3.516  0.0442 -0.1797 -0.1782
 8561W        W24695   6.901  13.715   4.999  0.1419 -0.1936 -0.2480
 8562W        W24696  15.756  13.076   4.763 -0.0407 -0.1627  0.1063
 8563W        W24697   5.177   3.205  12.582 -0.0759 -0.0140 -0.1401
 8564W        W24698  16.548  14.872  13.718 -0.3367  0.1935 -0.0288
 8565W        W24699   3.554  12.867   3.391 -0.0035 -0.0679  0.1255
 8566W        W24700   9.782  12.256  13.314 -0.2037  0.0302 -0.1419
 8567W        W24701   3.154  10.788   1.732 -0.2557  0.1598 -0.0665
 8568W        W24702   0.237  15.280   1.857 -0.0245 -0.1544 -0.0401
 8569W        W24703  12.998   2.971  12.386 -0.0965  0.0207 -0.1656
 8570W        W24704   5.777  17.492  14.983 -0.2657  0.0019 -0.0307
 8571W        W24705  15.079   1.894   0.045  0.1605  0.3110  0.1612
 8572W        W24706  17.826   4.652   3.736 -0.1079 -0.1032  0.0216
 8573W        W24707  13.197  14.436  13.455 -0.0373 -0.2091  0.1752
 8574W        W24708   9.252  16.178   3.528 -0.2085 -0.0267 -0.2556
 8575W        W24709   1.759   9.029   1.862 -0.0299  0.2888 -0.0847
 8576W        W24710  17.337  11.025   5.806  0.1386 -0.1077 -0.0142
 8577W        W24711   7.066   8.123   0.084  0.3258 -0.0460  0.4105
 8578W        W24712   4.841   2.266   1.562  0.2580  0.3513  0.1287
 8579W        W24713  11.211  14.206  14.178  0.0311 -0.0705 -0.2832
 8580W        W24714  15.413   9.034  15.295  0.0050 -0.1864  0.2946
 8581W        W24715  16.739   2.207  15.656  0.0491 -0.0613  0.0586
 8582W        W24716   1.861  12.962   2.266  0.2431  0.0452 -0.1336
 8583W        W24717  15.117   5.178  15.510 -0.0358  0.0124  0.1089
 8584W        W24718  14.990  10.488  12.349  0.0342  0.4428  0.3345
 8585W        W24719  16.138  15.251  15.429  0.0409  0.1289  0.0989
 8586W        W24720   9.482  11.994  11.919  0.1565 -0.3245 -0.3990
 8587W        W24721  16.289   3.994   4.606 -0.0420  0.2137  0.0573
 8588W        W24722   8.861  17.788  12.156  0.0384 -0.2110  0.2973
 8589W        W24723   6.550   2.947  12.671 -0.0713  0.0463  0.1521
 8590W        W24724   9.030   7.446   3.168  0.1493 -0.1285 -0.2237
 8591W        W24725  12.557  17.751  14.235 -0.5587 -0.1438  0.1002
 8592W        W24726  17.400  17.549  16.135 -0.1425  0.1514 -0.1086
 8593W        W24727  16.519  15.308   5.569  0.4111  0.0388  0.2029
 8594W        W24728   1.822  13.489   4.770 -0.0480 -0.2342  0.2195
 8595W        W24729   8.561   0.306  15.236  0.0162 -0.1075 -0.0557
 8596W        W24730  17.139  17.714   5.389  0.1647  0.0192  0.0575
 8597W        W24731  12.784  18.059  15.985  0.0835 -0.1135 -0.2166
 8598W        W24732  15.310   9.080  14.255 -0.2780 -0.3345 -0.3236
 8599W        W24733   6.147   4.421   4.868 -0.2474  0.1496 -0.0514
 8600W        W24734   6.004   3.992   1.692 -0.2389  0.0308 -0.0272
 8601W        W24735  10.262   0.141   3.798  0.0354  0.1258 -0.1798
 8602W        W24736   9.422   6.700  14.164  0.0826 -0.1023  0.1486
 8603W        W24737   8.722  10.169   3.487 -0.0599  0.1250  0.0257
 8604W        W24738  11.948   3.560  14.286  0.0345 -0.1392 -0.2941
 8605W        W24739   1.174   0.605  14.440 -0.2142  0.0468  0.0895
 8606W        W24740   6.981  14.311   3.567  0.2478  0.0906 -0.0573
 8607W        W24741   8.927  17.757  13.760 -0.1383  0.2676  0.0338
 8608W        W24742   8.633   9.024  13.921  0.0132  0.0888  0.2915
 8609W        W24743   1.528  17.277   1.887 -0.0301  0.1258  0.0668
 8610W        W24744   8.130  10.182  12.680 -0.2136 -0.3409  0.0583
 8611W        W24745  14.136  15.957   3.273  0.0215 -0.2714  0.3445
 8612W        W24746   5.613   7.089   3.608 -0.2261  0.0622  0.0973
 8613W        W24747   3.880  15.009   0.112  0.1867 -0.0594 -0.2210
 8614W        W24748   9.618  14.189  14.799  0.0449 -0.2014 -0.1496
 8615W        W24749  11.283   6.113   5.541 -0.3309  0.1941  0.0153
 8616W        W24750   5.024  15.802  15.337 -0.1964 -0.0171 -0.2335
 8617W        W24751   2.260   4.076   4.189  0.1908 -0.0908  0.1189
 8618W        W24752   6.087   7.133   2.371 -0.2038  0.3115  0.2675
 8619W        W24753   4.882   5.748   4.176 -0.0505 -0.3075 -0.4049
 8620W        W24754   5.856  10.866  14.301  0.2404 -0.0219 -0.3138
 8621W        W24755   3.677  10.901  15.273  0.0310  0.1061 -0.0722
 8622W        W24756  14.416   0.122   1.909 -0.0910 -0.0400  0.4361
 8623W        W24757   9.193   2.278   2.631  0.0316  0.0751  0.0522
 8624W        W24758   7.627   2.545  14.257  0.0158 -0.3914 -0.0151
 8625W        W24759   6.402   7.853  15.369  0.0302  0.1564  0.0267
 8626W        W24760   8.710  15.496  11.530  0.1420  0.3007 -0.1318
 8627W        W24761   1.438   5.790   2.733 -0.2133 -0.0263 -0.0478
 8628W        W24762  11.831  11.866  11.307 -0.2831 -0.1203 -0.0312
 8629W        W24763   0.030  16.243   3.867 -0.3409 -0.0078 -0.2425
 8630W        W24764  11.744   4.037  12.388  0.0617 -0.0534 -0.3167
 8631W        W24765  15.417   9.836   0.969 -0.0735  0.1811 -0.0937
 8632W        W24766   5.829  10.954   5.111  0.1012  0.0535 -0.2204
 8633W        W24767   0.757  16.867   0.175  0.3696  0.1286 -0.0340
 8634W        W24768   1.259   5.977  16.173  0.1633  0.3716  0.0391
 8635W        W24769   4.326   5.652  12.266  0.0297  0.1946 -0.2425
 8636W        W24770  10.619   9.316  10.855  0.1710  0.1292  0.0157
 8637W        W24771  15.295  13.473  13.969  0.0553 -0.2928 -0.2629
 8638W        W24772   6.874   1.364   0.116 -0.1538  0.1742 -0.0436
 8639W        W24773  10.351  17.698   1.893  0.4526 -0.2691  0.1002
 8640W        W24774   9.708   9.536  13.443  0.1048  0.0819  0.2220
 8641W        W24775   3.437   3.927   0.198 -0.0784  0.0351  0.2768
 8642W        W24776  18.105  16.151   2.423  0.1576  0.2679  0.0541
 8643W        W24777   5.526   3.661   1.384 -0.2036 -0.3131 -0.1171
 8644W        W24778  18.062   8.855  16.355 -0.2263  0.1755 -0.2080
 8645W        W24779   9.290   1.060  12.236 -0.1495  0.0541  0.0330
 8646W        W24780  18.152   3.904  13.986  0.0166  0.2041 -0.4129
 8647W        W24781  10.421  13.707  16.036 -0.3146  0.7127  0.3744
 8648W        W24782   8.258   9.892  10.458 -0.2808  0.0371 -0.2831
 8649W        W24783   2.340   3.583   1.976 -0.0721  0.3446 -0.0896
 8650W        W24784   8.283   8.005   1.084  0.2321  0.0374 -0.1992
 8651W        W24785  17.106   7.890   1.931  0.2163 -0.1181 -0.1404
 8652W        W24786   6.881   8.590   3.765  0.1245  0.0091 -0.1942
 8653W        W24787   2.365   1.729   0.482 -0.2844 -0.2059 -0.1211
 8654W        W24788   0.838  16.173   4.397 -0.1702 -0.0760 -0.0034
 8655W        W24789  13.649   7.455   5.032  0.4236  0.0595  0.1786
 8656W        W24790   2.308   0.931  13.106 -0.0660  0.0644  0.0527
 8657W        W24791  11.678   8.519  10.805  0.4067 -0.2512  0.1962
 8658W        W24792   6.030   3.813  16.098 -0.0546 -0.0895 -0.1197
 8659W        W24793  13.414   1.710   0.820 -0.1168  0.0030  0.3790
 8660W        W24794   0.976   9.525  12.058  0.1982  0.2046  0.2218
 8661W        W24795   4.515  12.201  11.319  0.0690 -0.0963 -0.1626
 8662W        W24796  16.444  12.723  12.946  0.0242 -0.3214 -0.0386
 8663W        W24797  17.609   5.205  14.107  0.1188  0.2976 -0.1395
 8664W        W24798  10.215  15.532   2.509 -0.0777  0.3798  0.1908
 8665W        W24799   0.681  16.916   0.699  0.0836  0.1688  0.2411
 8666W        W24800  16.856   5.998  14.292 -0.1382 -0.1458 -0.1081
 8667W        W24801   7.189  15.148  14.958  0.1358  0.5160  0.0779
 8668W        W24802  13.722   9.097   3.433  0.1633  0.2751  0.0720
 8669W        W24803  11.544  10.631   4.766 -0.1940 -0.1575 -0.1055
 8670W        W24804   5.378   4.482   2.505 -0.0107  0.0778 -0.1148
 8671W        W24805   8.827  15.268  13.145 -0.1215  0.0045  0.0667
 8672W        W24806   2.306  11.036  14.590 -0.0589  0.0772 -0.0141
 8673W        W24807   3.816  15.558   3.614 -0.2532 -0.0953  0.2078
 8674W        W24808   3.569   9.630  10.353  0.1246  0.1439 -0.2402
 8675W        W24809   9.761   1.665   3.102 -0.1312  0.1869 -0.1222
 8676W        W24810  10.071  13.767   0.296 -0.0270  0.1289 -0.0832
 8677W        W24811   8.741  14.828   1.350 -0.1098  0.0146  0.0210
 8678W        W24812  10.958   8.987   1.127  0.1544 -0.2692 -0.3502
 8679W        W24813  12.163  14.357  16.315 -0.2768  0.2694 -0.1596
 8680W        W24814  10.046  17.182  16.344  0.0298  0.1210 -0.0792
 8681W        W24815   5.954   0.175   5.700  0.0785  0.1710 -0.0268
 8682W        W24816   6.383  16.686   0.642 -0.0635  0.1017 -0.0401
 8683W        W24817  17.083  12.635  13.197  0.3732  0.0765 -0.0769
 8684W        W24818   5.338  15.881   6.516 -0.1170  0.3303 -0.2015
 8685W        W24819  17.938   0.213   3.812 -0.1864 -0.0606  0.0454
 8686W        W24820   2.678  10.218   2.256 -0.0530 -0.0486 -0.1819
 8687W        W24821   2.090  10.974  13.395 -0.3621  0.2410 -0.1063
 8688W        W24822   4.162  16.018   2.560  0.1690 -0.1386  0.0879
 8689W        W24823   7.705  16.685   3.953  0.2436  0.1074  0.1468
 8690W        W24824   8.135   3.778   3.494 -0.3253  0.1887  0.2227
 8691W        W24825  10.588  16.586  13.223  0.0401  0.0142 -0.1107
 8692W        W24826  15.777   5.839  16.468  0.1249 -0.1929  0.1201
 8693W        W24827   8.426   5.203   2.214 -0.2851  0.1227  0.2052
 8694W        W24828   7.085  10.152  13.742 -0.0610 -0.0501  0.0143
 8695W        W24829  15.679   6.092  16.049  0.2726  0.1416 -0.0638
 8696W        W24830  13.398  14.889   0.862 -0.0070 -0.2144  0.0787
 8697W        W24831   7.529   2.903   6.219  0.2253  0.0442 -0.1279
 8698W        W24832  15.982   5.241  13.001 -0.0995 -0.1539 -0.1335
 8699W        W24833   9.394   9.223   0.346 -0.0326  0.1081 -0.1750
 8700W        W24834   8.409   5.115  13.906 -0.0185  0.2042  0.1622
 8701W        W24835   1.127   2.668  13.734  0.3720  0.0694  0.0645
 8702W        W24836   1.914   5.272   2.387  0.2151 -0.0054  0.2345
 8703W        W24837  10.630  12.680  13.523 -0.1719  0.0941  0.1796
 8704W        W24838   9.602   1.005   2.887 -0.1335 -0.0092  0.3978
 8705W        W24839   5.252  12.900  13.323 -0.1902 -0.2348 -0.3186
 8706W        W24840   6.661  16.096   5.201 -0.0315 -0.3193  0.1610
 8707W        W24841   1.749   1.049   5.945 -0.0370  0.0428 -0.0688
 8708W        W24842  11.403  14.125   4.239  0.2695  0.0520 -0.2309
 8709W        W24843  10.378  10.452   3.453  0.3628  0.0480 -0.2636
 8710W        W24844  17.988  14.008   0.724  0.1507  0.2292 -0.0292
 8711W        W24845  14.079   2.096  15.428 -0.0522 -0.3358  0.0341
 8712W        W24846   0.253   8.956   5.524 -0.0194  0.0188 -0.2475
 8713W        W24847   0.987   6.258  12.154 -0.1860  0.4349 -0.0487
 8714W        W24848   0.310  10.416  13.458 -0.1144 -0.3419  0.1121
 8715W        W24849  17.660   4.687  15.941 -0.3463 -0.2279  0.0347
 8716W        W24850   0.027   1.565  13.325 -0.4741 -0.4079 -0.3211
 8717W        W24851  11.560   1.848   1.946  0.2030  0.2859 -0.2514
 8718W        W24852   9.147   0.487  15.298  0.0192  0.4268 -0.2624
 8719W        W24853   6.490  14.468   2.575 -0.2817  0.0469 -0.1610
 8720W        W24854  18.167  17.957   3.106 -0.2780 -0.3918 -0.1870
 8721W        W24855   6.456  17.782  14.303  0.2524  0.0312  0.1189
 8722W        W24856   4.594   2.735  11.803 -0.0992 -0.0458  0.0304
 8723W        W24857   7.907   5.090   2.661 -0.1380 -0.1805 -0.0785
 8724W        W24858   4.252  12.316   2.709  0.2483  0.1380 -0.0440
 8725W        W24859  15.299  11.213  15.357 -0.5927 -0.0055  0.2346
 8726W        W24860  16.103   9.941  10.167 -0.0438  0.3462  0.6443
 8727W        W24861   7.456  17.762  15.596 -0.1746 -0.0766  0.0050
 8728W        W24862  10.778  17.808   2.164  0.1316 -0.0789 -0.0107
 8729W        W24863   1.593   0.815  13.672 -0.2383  0.3323  0.1255
 8730W        W24864   0.264   9.619  12.331  0.0914  0.0966 -0.2303
 8731W        W24865   2.434  11.818   1.853  0.2585  0.2590  0.0030
 8732W        W24866   1.104   7.866   0.567  0.0988  0.0439 -0.1565
 8733W        W24867   0.411   6.515   2.088 -0.4139 -0.1089 -0.4379
 8734W        W24868  16.275  15.694   5.164  0.0630  0.1231 -0.0211
 8735W        W24869   0.841   0.947   5.320  0.2292 -0.0642  0.0930
 8736W        W24870  11.219  12.748  12.992  0.1472  0.1884 -0.2313
 8737W        W24871  16.909   6.658   3.913  0.0043 -0.3923 -0.1780
 8738W        W24872   3.540  12.020   4.372  0.3841 -0.1007  0.0445
 8739W        W24873  13.881   0.852  12.816 -0.2641  0.4007  0.1276
 8740W        W24874  16.706   5.052  15.393 -0.2770  0.1411  0.0260
 8741W        W24875   3.005  18.108   3.761  0.2146 -0.0420 -0.4936
 8742W        W24876  15.564   5.172   0.834 -0.0899 -0.0071  0.1323
 8743W        W24877  13.856   4.709  16.176 -0.1624 -0.1033  0.0595
 8744W        W24878  14.860  13.357  14.755 -0.0588 -0.0925  0.0468
 8745W        W24879   1.411  15.280   0.893 -0.0846  0.1866  0.0136
 8746W        W24880  12.220   6.323  13.939 -0.0733  0.1068 -0.0767
 8747W        W24881  17.573  11.694  12.555 -0.0609  0.0741  0.3587
 8748W        W24882   6.986   3.230  16.259  0.0157 -0.0383  0.0069
 8749W        W24883   7.798  14.327   0.464 -0.0681 -0.0754  0.2120
 8750W        W24884   2.814   4.603  13.499 -0.0454  0.1063  0.2372
 8751W        W24885  14.069   7.856  14.575 -0.0237  0.0643 -0.2218
 8752W        W24886   4.414   2.309   0.814  0.0779 -0.1183  0.2423
 8753W        W24887  11.736  15.683  13.671 -0.1810  0.2408 -0.2103
 8754W        W24888   2.953   4.298   0.996  0.0064 -0.0704 -0.1327
 8755W        W24889   6.531  13.971   4.749 -0.0819 -0.0014 -0.3431
 8756W        W24890   7.749  13.657   3.600 -0.2086  0.1704 -0.0389
 8757W        W24891  15.420  17.082  14.491  0.0860 -0.1620  0.3590
 8758W        W24892  15.557  14.545   5.756  0.2202  0.0306 -0.2547
 8759W        W24893   7.153   5.055   4.938  0.1381 -0.2438 -0.0057
 8760W        W24894  14.269   2.483   3.359 -0.0932  0.1798 -0.1095
 8761W        W24895   1.215   3.094  11.450  0.0598 -0.3677 -0.1899
 8762W        W24896  16.869  16.521  16.495  0.3933 -0.0751  0.1022
 8763W        W24897   7.194   0.857  15.612 -0.1598 -0.4835 -0.2117
 8764W        W24898   0.820  14.161  15.490  0.0102  0.0545 -0.0845
 8765W        W24899  14.983   8.495   3.575 -0.1826  0.1684  0.0968
 8766W        W24900  12.129   5.378  14.806 -0.0146  0.1948 -0.2428
 8767W        W24901   5.485   1.444  14.575 -0.0674 -0.1577  0.0437
 8768W        W24902  16.474   1.963  13.105  0.2016 -0.1217 -0.0168
 8769W        W24903  16.952  15.458  16.325  0.0063 -0.2025 -0.1325
 8770W        W24904  14.775   4.503  14.685 -0.2607  0.0266  0.2961
 8771W        W24905  15.178   5.967  11.246  0.1401  0.2163 -0.0310
 8772W        W24906  17.425  16.406  13.654 -0.0053 -0.0350  0.0481
 8773W        W24907   7.663   1.294  10.940  0.2907 -0.2332 -0.2508
 8774W        W24908   1.497  14.452   1.020 -0.0541 -0.0435  0.0455
 8775W        W24909   2.508  11.371  15.327  0.0182 -0.1511  0.0891
 8776W        W24910   2.600   2.368   4.635  0.1445  0.1822  0.1331
 8777W        W24911   3.939  11.371  15.257 -0.0204 -0.1969 -0.1251
 8778W        W24912  13.047  14.554  15.738 -0.1933  0.1567 -0.1132
 8779W        W24913   5.413   7.254  15.767 -0.0732 -0.0405  0.1287
 8780W        W24914  10.500   2.367   0.045 -0.2503 -0.1142 -0.1777
 8781W        W24915  16.410   3.580  12.537  0.0476 -0.2752  0.4053
 8782W        W24916  17.173   1.157  12.389 -0.0967  0.1537  0.1016
 8783W        W24917  17.665  17.860   4.479  0.2013 -0.0202 -0.2793
 8784W        W24918   3.093   6.077  14.424  0.1319 -0.3073 -0.0957
 8785W        W24919   9.939  11.317   2.434  0.1543 -0.2701  0.3135
 8786W        W24920   9.952  17.071   1.179 -0.0085  0.2465  0.0550
 8787W        W24921   0.642  17.413  13.665 -0.1263  0.0258  0.0876
 8788W        W24922  11.912  17.156   2.789  0.1089  0.3043  0.0873
 8789W        W24923   1.894   4.622   2.085 -0.0909 -0.1801 -0.1608
 8790W        W24924   5.180  18.017   4.731 -0.1034  0.1309 -0.1221
 8791W        W24925  17.109   7.589   2.328 -0.1701  0.0163 -0.0449
 8792W        W24926   5.485  16.731   1.232 -0.1496  0.2300 -0.1829
 8793W        W24927   9.250  12.266  12.751 -0.2501 -0.2113 -0.2024
 8794W        W24928  14.856   7.285   1.531  0.1020 -0.1799 -0.3719
 8795W        W24929   5.885  16.178   2.903  0.3040 -0.0442  0.0136
 8796W        W24930  13.353   7.094   2.429 -0.2417  0.0881  0.1079
 8797W        W24931  13.583   0.391   4.569 -0.1170  0.1295 -0.3159
 8798W        W24932  11.931   7.707  12.646 -0.3566  0.3658  0.2122
 8799W        W24933   1.217  10.221   3.057  0.2577 -0.0169 -0.3147
 8800W        W24934   7.547   7.785  10.869  0.0451 -0.3172  0.2183
 8801W        W24935  17.481   3.102   0.427 -0.1001 -0.3310  0.1061
 8802W        W24936   6.818   5.031   0.159  0.3365 -0.1717  0.0225
 8803W        W24937   7.316  14.622   6.362  0.4032  0.4039  0.3035
 8804W        W24938   1.848   7.259  11.483  0.2721  0.2922 -0.3546
 8805W        W24939   7.813  11.568   2.615  0.0887 -0.0314 -0.2372
 8806W        W24940   5.903  11.309   2.637  0.3334 -0.1401  0.0781
 8807W        W24941   2.388   9.677   4.604 -0.0464 -0.1224  0.1465
 8808W        W24942  10.757   1.950   0.058  0.1808  0.0199  0.2962
 8809W        W24943  17.708   6.341  14.340  0.0262  0.2089 -0.2522
 8810W        W24944   1.671  16.370   0.000 -0.0772 -0.0663  0.0057
 8811W        W24945   1.777   4.884   0.286  0.0395 -0.0636  0.1582
 8812W        W24946   0.373  17.956  16.052  0.0411 -0.0675 -0.0821
 8813W        W24947   4.297   9.114   4.280  0.2415 -0.0451 -0.1356
 8814W        W24948  16.844   5.641  12.743 -0.0962 -0.0555 -0.0719
 8815W        W24949   2.636   0.467  14.295  0.2149 -0.3172 -0.1043
 8816W        W24950  15.399   5.893  12.708  0.1329 -0.3373  0.0412
 8817W        W24951   3.178   3.323   2.511  0.0443 -0.0182 -0.0241
 8818W        W24952  11.622  11.889   5.876 -0.0195  0.0359 -0.0658
 8819W        W24953   9.953  13.226  16.044 -0.2132  0.0862  0.1162
 8820W        W24954  17.894  14.200  13.873 -0.1030 -0.0818  0.0467
 8821W        W24955  11.260   2.862  12.176 -0.2200 -0.0886 -0.1246
 8822W        W24956   8.631   7.553  12.746 -0.0326  0.0178 -0.3010
 8823W        W24957  14.776   5.080  14.530 -0.0502  0.1475  0.1258
 8824W        W24958  10.450   2.911   2.751  0.1717  0.0737  0.1990
 8825W        W24959   8.754   3.324  12.037  0.0354 -0.2162 -0.3218
 8826W        W24960   1.226  17.922  15.170  0.2296  0.0176 -0.1920
 8827W        W24961  10.358  15.489  14.685 -0.0207  0.1672 -0.0653
 8828W        W24962   3.461  17.063   4.020 -0.0295 -0.0958 -0.0445
 8829W        W24963   7.124   6.217  16.087 -0.0248  0.2700  0.0356
 8830W        W24964  14.785  17.991  13.804 -0.1405 -0.0394 -0.0823
 8831W        W24965   2.441   9.068   3.778 -0.0209 -0.1260 -0.0548
 8832W        W24966   8.166   3.825   5.477 -0.2013  0.0151  0.2287
 8833W        W24967  17.367  16.779   3.920  0.0363  0.1370  0.4494
 8834W        W24968  17.949   9.368  14.730  0.1289 -0.1661  0.0065
 8835W        W24969   7.346  14.264   3.934 -0.2389  0.2209  0.0898
 8836W        W24970  13.079   0.426   4.758  0.1505  0.0476 -0.3113
 8837W        W24971   9.920   4.033   3.618  0.0983  0.2478  0.0271
 8838W        W24972  14.827  14.901  14.807 -0.1842 -0.0580  0.0797
 8839W        W24973   9.542  10.018  13.328 -0.4706  0.0795 -0.1181
 8840W        W24974  14.063   7.359  13.593 -0.2562 -0.3526 -0.3000
 8841W        W24975  14.913   1.917  11.824 -0.0404 -0.3847 -0.0549
 8842W        W24976   9.953   1.465  14.977 -0.2560  0.0847 -0.0260
 8843W        W24977   9.858   6.089   4.787  0.0005  0.0009 -0.2026
 8844W        W24978  17.210  11.553  14.737 -0.0525  0.0688  0.2769
 8845W        W24979   0.981  14.321  11.910  0.0501 -0.1606  0.1377
 8846W        W24980  16.726  13.049   3.323 -0.0766  0.2317 -0.0979
 8847W        W24981  11.732  11.249  14.242  0.2016 -0.0735 -0.1916
 8848W        W24982  13.945  14.218   3.988 -0.4898 -0.1221 -0.3004
 8849W        W24983  17.283   4.970  15.784  0.1064 -0.1534  0.1576
 8850W        W24984  16.551  13.869   2.258 -0.3357 -0.0783 -0.0069
 8851W        W24985  12.012  10.172   1.594  0.0097  0.2163  0.1443
 8852W        W24986   2.317  17.243  14.169  0.1029 -0.0496  0.3247
 8853W        W24987   1.778   3.811  14.518 -0.1153 -0.0311  0.2395
 8854W        W24988  14.833  11.399  13.679 -0.0242  0.2152 -0.2830
 8855W        W24989   9.782   0.059   4.237  0.2314  0.0967  0.0976
 8856W        W24990  14.629  12.038  12.967 -0.0851  0.0761  0.2711
 8857W        W24991  10.721   9.230   9.905 -0.0445 -0.0536 -0.2583
 8858W        W24992   8.406   1.526   1.644 -0.0374 -0.1261  0.1721
 8859W        W24993   5.820  16.926  11.815 -0.0058  0.1644 -0.0675
 8860W        W24994   4.263  14.804   0.439 -0.1388  0.2439 -0.1223
 8861W        W24995   5.197   7.826   3.174  0.1492  0.1973 -0.1578
 8862W        W24996   9.245  10.920  14.885 -0.0891 -0.2534 -0.0226
 8863W        W24997   3.121   8.634  11.760 -0.2445  0.2758 -0.1647
 8864W        W24998   2.399   4.225  14.449  0.0194 -0.1028 -0.0603
 8865W        W24999   6.444   6.838   4.499 -0.1329 -0.0532  0.1260
 8866W        W25000  12.500  14.143   2.267 -0.0353 -0.1195 -0.1038
 8867W        W25001   7.653   1.442   2.240  0.0882 -0.2744 -0.3430
 8868W        W25002  16.074   0.844   4.259 -0.2293  0.0137  0.0834
 8869W        W25003   6.014  15.722   2.869  0.0330 -0.0300  0.1590
 8870W        W25004   0.589  17.609   2.672  0.0136 -0.1498 -0.1342
 8871W        W25005   4.342  15.117  15.340 -0.2290  0.1116 -0.0757
 8872W        W25006   0.043   8.409  16.434 -0.0053  0.0531  0.3425
 8873W        W25007   0.694  16.386  11.987  0.2454  0.0138  0.1010
 8874W        W25008   9.619   9.873   3.846  0.0418 -0.1518 -0.2284
 8875W        W25009   4.822   6.882   0.404  0.0812  0.2206  0.0851
 8876W        W25010   6.291  17.257  14.152 -0.4154 -0.0515  0.0204
 8877W        W25011   3.092  11.641   2.237  0.1996 -0.2264  0.2017
 8878W        W25012   1.772  12.643   5.532  0.2398  0.1359 -0.1318
 8879W        W25013   1.697  15.464  12.153 -0.0898  0.1375  0.2379
 8880W        W25014   6.329   4.263   2.973  0.2863 -0.0048 -0.1848
 8881W        W25015  10.133  16.525   1.421  0.2526  0.2072  0.0459
 8882W        W25016  10.073   8.400  13.722 -0.0908  0.0403  0.0154
 8883W        W25017  15.742  10.047   4.660  0.0885 -0.1928  0.0507
 8884W        W25018   4.809   0.364  14.803 -0.1907  0.0376  0.2559
 8885W        W25019   6.504   5.067   1.095 -0.0863  0.1059  0.3739
 8886W        W25020  13.093  16.828  15.681  0.0623 -0.0311 -0.3245
 8887W        W25021   9.698  10.521   1.898 -0.0692 -0.2460 -0.3022
 8888W        W25022  12.015   5.277   5.190 -0.0144 -0.1656  0.0399
 8889W        W25023  12.066   7.486   0.288 -0.3343  0.1668 -0.3151
 8890W        W25024   9.014   8.436   3.759 -0.0233 -0.1238  0.0173
 8891W        W25025  12.681  16.884   6.695  0.0781  0.1852 -0.1352
 8892W        W25026   8.273  15.403  11.319 -0.2367 -0.0263 -0.0162
 8893W        W25027  10.023  17.857  15.814  0.1310  0.2919  0.2248
 8894W        W25028  13.867  10.610  12.876 -0.1490 -0.0655  0.0612
 8895W        W25029  11.286  14.353  16.052  0.0579  0.3348 -0.0116
 8896W        W25030   8.493   6.286   0.092 -0.0000 -0.3299 -0.0640
 8897W        W25031  11.753   2.265   5.250  0.0513 -0.1867 -0.1299
 8898W        W25032   9.053  10.621  10.956  0.1643 -0.1365 -0.1776
 8899W        W25033  14.265   6.672  12.063  0.0280 -0.1648  0.0855
 8900W        W25034   8.235  11.366  11.854  0.2035 -0.0378  0.0203
 8901W        W25035   0.960   1.766  11.575 -0.0856  0.1173 -0.4879
 8902W        W25036  11.279   9.877  12.644 -0.3167  0.0803  0.1606
 8903W        W25037  15.872  17.311  16.524 -0.0272 -0.2780  0.1594
 8904W        W25038  13.453   8.427   0.279 -0.1250 -0.0251 -0.0320
 8905W        W25039  13.972   0.907  12.332  0.2636  0.0182  0.2518
 8906W        W25040  11.882  11.200   1.107 -0.1254  0.1648  0.0515
 8907W        W25041  11.068   3.778  14.553 -0.0751  0.5400 -0.0050
 8908W        W25042  11.945   3.083  16.232  0.2003  0.1547  0.4181
 8909W        W25043  13.321   0.049  16.059 -0.2750  0.0869 -0.0722
 8910W        W25044   2.687  16.352  14.550  0.1250  0.2945 -0.1586
 8911W        W25045   1.592   6.541  11.314 -0.1333  0.0935  0.4106
 8912W        W25046  13.870   9.467   3.107  0.0875  0.1825 -0.0457
 8913W        W25047   0.270   1.439   2.719  0.0133  0.0724  0.0502
 8914W        W25048  17.244  16.263  12.797 -0.1231 -0.0692  0.0664
 8915W        W25049  12.229   6.540  16.108  0.1259 -0.0056 -0.0513
 8916W        W25050  11.609   1.179  14.060 -0.3881  0.4519  0.2303
 8917W        W25051  10.077   5.915  10.728  0.0483 -0.1381 -0.0227
 8918W        W25052  16.357   4.538   5.300 -0.1406  0.2267  0.1126
 8919W        W25053   1.212   1.058   1.118  0.1879 -0.0955  0.1984
 8920W        W25054   9.366   8.214  16.083  0.2031 -0.0679 -0.0405
 8921W        W25055  18.080  15.406  14.168  0.1037  0.2653 -0.2580
 8922W        W25056   3.040  16.499   0.396  0.0918 -0.0552  0.1183
 8923W        W25057   7.640  16.761   4.599  0.1512 -0.0594  0.0447
 8924W        W25058   0.292  12.437   1.301  0.0777 -0.0780 -0.1497
 8925W        W25059   3.660  16.624   4.176 -0.1226 -0.0102 -0.1472
 8926W        W25060  14.528  11.109  15.520  0.0124  0.3597  0.1648
 8927W        W25061   9.041  11.777  12.944  0.0218 -0.0355 -0.3022
 8928W        W25062   5.285   0.758  14.451  0.0858 -0.1526  0.1300
 8929W        W25063   5.273   7.714   5.333  0.0390 -0.0384  0.2572
 8930W        W25064  17.853  16.041   5.839 -0.1349  0.1730 -0.0028
 8931W        W25065  12.712  14.087  11.959  0.3359 -0.0387  0.1824
 8932W        W25066   3.471  18.123  12.123  0.1658  0.1944  0.1200
 8933W        W25067   3.265  17.933  15.943 -0.1556  0.1140 -0.1532
 8934W        W25068  16.207   5.167  13.430  0.2323 -0.1151 -0.0140
 8935W        W25069   7.955   2.529  11.195  0.0641 -0.2534 -0.0503
 8936W        W25070  14.215   9.119  16.376  0.3076 -0.0881  0.1439
 8937W        W25071   9.751   8.510   4.347  0.2844 -0.2814  0.1407
 8938W        W25072  11.543   8.739  14.958  0.0774 -0.3882  0.3876
 8939W        W25073  16.590  11.532  16.455 -0.5180 -0.3070  0.1009
 8940W        W25074   5.086  13.346  12.021  0.0438 -0.1362 -0.2203
 8941W        W25075  14.045   2.089  16.341  0.0940 -0.0337  0.2028
 8942W        W25076   0.309  13.929   2.361 -0.0577  0.2811  0.1918
 8943W        W25077  17.624  15.893  12.775  0.1269 -0.2665 -0.3090
 8944W        W25078  11.474   6.471  12.678 -0.0627  0.1306 -0.0932
 8945W        W25079  14.641   0.541  13.503 -0.1192  0.2081 -0.1838
 8946W        W25080   2.979   9.049  12.395 -0.2480 -0.2281 -0.0634
 8947W        W25081   2.911  15.653  15.288  0.0174 -0.0612  0.0825
 8948W        W25082   1.339  17.407  12.503 -0.0719  0.0672  0.0955
 8949W        W25083   8.790   7.543  11.857  0.0568  0.1897 -0.0795
 8950W        W25084  15.893  11.376   4.953  0.0007  0.1477  0.0016
 8951W        W25085  12.996   4.416   1.530 -0.0613 -0.0106  0.0428
 8952W        W25086  16.266   1.191   4.618 -0.3824  0.2072 -0.3355
 8953W        W25087   1.026  17.919   5.180 -0.2673  0.4685 -0.1181
 8954W        W25088  16.709   3.670   1.263  0.1715 -0.0647  0.1173
 8955W        W25089  16.769  11.110  13.965  0.1477 -0.0813 -0.3090
 8956W        W25090  10.391  12.038   5.031  0.1897 -0.0228 -0.0636
 8957W        W25091  17.894   0.586  12.324  0.2291 -0.0783 -0.0471
 8958W        W25092  14.877   0.898  11.915 -0.0419 -0.1034 -0.0853
 8959W        W25093  11.368  14.562   5.357 -0.0069  0.2001 -0.0303
 8960W        W25094  16.225  12.231   3.181 -0.2911 -0.2783  0.2709
 8961W        W25095  11.703   2.611   2.948  0.0952  0.4606  0.2568
 8962W        W25096   1.981  15.952   5.053  0.1161 -0.1498  0.0478
 8963W        W25097   3.436   3.946  14.624  0.0938  0.0664  0.0121
 8964W        W25098   2.563  15.115  13.369  0.2921  0.2511 -0.0604
 8965W        W25099   8.439   9.889   1.428  0.0414 -0.1252  0.0373
 8966W        W25100   3.129  10.161   1.015 -0.2688 -0.1328 -0.1336
 8967W        W25101  14.982   9.288  14.861 -0.2783 -0.2507 -0.1181
 8968W        W25102   4.307   5.497   2.494 -0.3690  0.2772  0.3519
 8969W        W25103   3.674  10.043  13.709  0.0076  0.3536  0.1819
 8970W        W25104   0.778   2.480   3.947 -0.0317  0.1719  0.0671
 8971W        W25105   7.135  12.094  12.957  0.1341  0.0955 -0.0844
 8972W        W25106  17.272  12.300   0.620  0.0298  0.1816  0.0285
 8973W        W25107  12.616   0.943  12.135  0.1513 -0.3522  0.1166
 8974W        W25108   0.047  10.633   0.971  0.1629  0.1686  0.0377
 8975W        W25109   5.526   8.956   4.654 -0.0290 -0.1602 -0.4492
 8976W        W25110   4.354   2.517  14.293  0.0248 -0.0283  0.2478
 8977W        W25111   7.215  15.751  12.077  0.0134 -0.4129  0.1146
 8978W        W25112   3.129  13.291  15.005  0.1899 -0.2322 -0.0111
 8979W        W25113  16.053   9.880   5.055 -0.3128  0.3196 -0.0903
 8980W        W25114   6.334  16.416  14.827 -0.0883  0.0600  0.0750
 8981W        W25115  14.033  14.649  13.613  0.2507 -0.0121 -0.0441
 8982W        W25116  11.979  17.925   1.678 -0.1889 -0.1210 -0.3671
 8983W        W25117   5.629  13.894  12.515  0.3288 -0.1608 -0.3111
 8984W        W25118  12.234   8.926   1.202  0.1660 -0.0650 -0.2441
 8985W        W25119   6.110   1.077  11.818  0.1900 -0.0632  0.1088
 8986W        W25120  17.908   5.790  15.218  0.3872 -0.0312  0.0605
 8987W        W25121  10.724   3.846  12.812 -0.1318 -0.2773 -0.1024
 8988W        W25122   5.979  17.691   4.150 -0.1009  0.1849  0.1741
 8989W        W25123   7.843   7.106  12.653 -0.1513  0.0084  0.0876
 8990W        W25124   2.363  15.028  14.776  0.0923 -0.0609  0.2385
 8991W        W25125   5.932   4.891  10.640  0.1158  0.1551 -0.1403
 8992W        W25126  16.268   3.940   5.944  0.2188 -0.4795 -0.2761
 8993W        W25127  15.344   8.170  13.657  0.2614 -0.0661 -0.3201
 8994W        W25128   8.001   4.669   3.364  0.1802  0.0184 -0.3271
 8995W        W25129  13.584  16.908   4.322  0.0649 -0.2132  0.2478
 8996W        W25130   1.271  14.070  13.674 -0.5014 -0.1996 -0.1016
 8997W        W25131   1.582   1.184   4.038 -0.1790 -0.1341  0.0793
 8998W        W25132   2.325  15.083   0.220 -0.0232  0.0017 -0.4143
 8999W        W25133   2.307  13.586   0.342 -0.1893  0.1238 -0.0276
 9000W        W25134  16.793  16.558   1.980 -0.0393 -0.3294  0.1819
 9001W        W25135  16.099  16.905   1.219 -0.1134  0.2466  0.2193
 9002W        W25136   4.346  17.105   2.163  0.1228  0.0635 -0.3145
 9003W        W25137  17.356   2.255   2.495 -0.1343  0.0145 -0.0025
 9004W        W25138   2.834   1.821   2.387 -0.0106 -0.2553  0.4842
 9005W        W25139  13.498  10.794   2.704  0.1997  0.1903  0.0012
 9006W        W25140   8.903  10.530   0.737 -0.1069 -0.0569  0.1688
 9007W        W25141  15.550  13.449   0.721 -0.0967 -0.2390  0.0070
 9008W        W25142  13.564  12.011  16.213 -0.1591  0.0599 -0.0413
 9009W        W25143   6.878  14.391  13.846  0.0316 -0.0935 -0.4311
 9010W        W25144   6.272  13.356   3.540 -0.2318  0.1239  0.0063
 9011W        W25145   3.806  13.317  16.281  0.1891  0.2639  0.1911
 9012W        W25146   2.361   2.035  15.965 -0.1493  0.1804 -0.1941
 9013W        W25147  12.332  17.688   1.409  0.2189 -0.0189  0.0062
 9014W        W25148  14.766  12.921  15.953  0.1524  0.3515 -0.1075
 9015W        W25149  10.262  12.199  11.946 -0.2343  0.3124 -0.2857
 9016W        W25150  15.570   4.246  10.262 -0.0414  0.2778  0.0221
 9017W        W25151  11.349   5.881  15.445 -0.2883 -0.2852 -0.2265
 9018W        W25152   8.704  10.534   4.057 -0.2068 -0.0889  0.0411
 9019W        W25153   2.012   6.014  12.184  0.1860  0.0935  0.0565
 9020W        W25154   5.928   7.935  15.215 -0.0365  0.0135  0.0194
 9021W        W25155  13.703   3.117  12.231  0.0127  0.0142  0.1476
 9022W        W25156  11.069   3.406  13.574 -0.2571 -0.0029  0.2017
 9023W        W25157   0.607   5.532   1.651  0.1475 -0.3503 -0.0344
 9024W        W25158   8.063  10.518  15.417 -0.2446 -0.0921 -0.0363
 9025W        W25159  14.092   7.470  12.000  0.2427  0.2833  0.0854
 9026W        W25160  14.088  14.653   2.047  0.1120  0.2970 -0.1074
 9027W        W25161  13.282   1.402   2.494  0.0994  0.2360 -0.0659
 9028W        W25162   9.948   8.675   0.853  0.0667  0.2797  0.0615
 9029W        W25163  11.277  17.188   2.927 -0.0531  0.0520  0.1046
 9030W        W25164  10.144  11.043  11.481 -0.0213  0.1346  0.6059
 9031W        W25165   5.330   9.740  12.200  0.1487 -0.2274 -0.0882
 9032W        W25166   2.460  16.561  15.486 -0.1001  0.3644  0.1409
 9033W        W25167   3.064   0.714  13.764  0.4471  0.0065  0.3443
 9034W        W25168   8.899  18.042  15.799  0.2445  0.0471  0.3003
 9035W        W25169   2.694   5.090   1.257  0.1230  0.0895  0.1734
 9036W        W25170  11.239  18.136   5.587 -0.0561  0.0673 -0.0870
 9037W        W25171   0.900  12.653  14.968 -0.0148  0.0509  0.4980
 9038W        W25172  14.302  11.258   4.140  0.0052  0.1311  0.3032
 9039W        W25173   8.806   6.008  11.887  0.3545 -0.1604  0.0330
 9040W        W25174   2.386  16.724  14.819  0.0073 -0.3976 -0.1361
 9041W        W25175   8.600   2.019   1.498 -0.1144  0.0172  0.2105
 9042W        W25176   7.447  13.299   5.862  0.1056 -0.3038 -0.0179
 9043W        W25177   7.318  13.690  15.289 -0.1326 -0.0410 -0.3009
 9044W        W25178   2.959   0.138  16.105  0.0319 -0.1808  0.2419
 9045W        W25179  13.315   2.617   5.202  0.0177  0.1224  0.3785
 9046W        W25180  13.012  10.164  12.910  0.1376 -0.2220  0.0906
 9047W        W25181   1.324   8.412   2.434  0.3745  0.0463 -0.2318
 9048W        W25182  13.209   7.895   2.885 -0.1780 -0.1134 -0.0663
 9049W        W25183  15.182  14.937   3.923  0.2340  0.0914  0.2622
 9050W        W25184  12.637  16.661   1.771 -0.3147  0.1587 -0.2559
 9051W        W25185   9.132  17.187  15.753  0.0285  0.1983 -0.0619
 9052W        W25186   1.073  17.806  14.176  0.0493  0.1596  0.2487
 9053W        W25187  15.720  15.221   3.016  0.3068 -0.0407 -0.0347
 9054W        W25188  16.714   6.186  12.759 -0.1281 -0.1180 -0.1812
 9055W        W25189   5.536  14.752  15.657  0.0870  0.3079  0.0457
 9056W        W25190   2.355   9.848   2.487 -0.0101  0.0168 -0.3092
 9057W        W25191   8.403  13.752  13.837 -0.0473  0.1375  0.2675
 9058W        W25192   5.893   1.223   1.717 -0.1875 -0.3386  0.1288
 9059W        W25193  10.428   3.671  16.234  0.0843 -0.0919 -0.0781
 9060W        W25194   1.888  13.014   3.564  0.0270 -0.1260 -0.2853
 9061W        W25195   4.278  11.621  15.540  0.1531  0.3938 -0.0628
 9062W        W25196   4.076   0.356   0.572  0.3561  0.3088  0.2641
 9063W        W25197  11.048   3.005  15.070  0.0834 -0.0785 -0.1600
 9064W        W25198   7.873   1.255  14.339  0.2288  0.0269  0.2151
 9065W        W25199  11.771  13.609  14.017 -0.0721 -0.2194 -0.3336
 9066W        W25200   8.949  11.042  14.079 -0.1332 -0.2232 -0.2220
 9067W        W25201  16.126  10.059  13.331 -0.0782 -0.0950  0.0618
 9068W        W25202  12.998  11.419   3.540  0.1219 -0.3340  0.1751
 9069W        W25203  12.157  14.841   5.601  0.1152  0.2403 -0.1733
 9070W        W25204   7.354   7.861   1.448 -0.0273 -0.0016  0.0102
 9071W        W25205   9.217   7.967   2.091  0.5770  0.0091 -0.3771
 9072W        W25206   3.121  16.406   4.328  0.1091 -0.0090 -0.1679
 9073W        W25207   6.239   1.674  12.669  0.0106  0.0321  0.1152
 9074W        W25208   0.832  13.549  13.021 -0.1315  0.3834 -0.1316
 9075W        W25209  10.783   9.570   3.714  0.0053  0.1059 -0.0152
 9076W        W25210  18.069   1.801   5.835 -0.0426 -0.1320 -0.0781
 9077W        W25211   6.011   3.108  13.999 -0.0771  0.0420  0.0253
 9078W        W25212  13.721   5.966  14.075  0.3131 -0.2906 -0.1984
 9079W        W25213   9.799  11.704  13.304  0.1625 -0.2222 -0.1294
 9080W        W25214   8.108   1.796  11.522  0.2679  0.0315  0.0597
 9081W        W25215   5.852   9.198  13.745  0.0142  0.0844 -0.1140
 9082W        W25216  10.361  15.917  14.386  0.0999 -0.3159  0.0817
 9083W        W25217   5.756   4.341  15.497 -0.0670 -0.3096 -0.2195
 9084W        W25218  12.969   1.412  13.543 -0.0206 -0.3133  0.2536
 9085W        W25219  18.029  10.457   5.156  0.3110 -0.3583 -0.0341
 9086W        W25220  17.089   6.531   4.716  0.0284  0.1008 -0.3220
 9087W        W25221   0.453  16.832   1.187  0.2212 -0.0063  0.2316
 9088W        W25222  16.865  15.456   2.733 -0.3936 -0.1176  0.1174
 9089W        W25223  14.267  14.930  14.653  0.0811  0.0648 -0.2902
 9090W        W25224   5.208  15.775   4.559  0.0924  0.0989 -0.0368
 9091W        W25225   9.452   2.455   1.411  0.3096 -0.3644  0.0741
 9092W        W25226   6.822  13.647  14.923  0.0047  0.1049 -0.2669
 9093W        W25227  15.267   1.935   0.593 -0.0648  0.1178 -0.1510
 9094W        W25228  11.214  17.463   3.364 -0.0087 -0.3386  0.0270
 9095W        W25229   1.369  14.542   2.777 -0.4080  0.0070  0.0657
 9096W        W25230  12.006  16.339   2.379 -0.2893 -0.1388  0.1911
 9097W        W25231   3.016   0.920   3.214 -0.1186 -0.1559  0.1071
 9098W        W25232   8.699   6.193  15.932  0.0248 -0.0985 -0.0316
 9099W        W25233  10.115   9.064   3.316  0.0217 -0.1943  0.1167
 9100W        W25234  15.459  15.293   2.165 -0.1593  0.1576  0.0774
 9101W        W25235   1.611   7.144   0.470 -0.1545  0.2106 -0.5703
 9102W        W25236  15.019  10.029   1.563 -0.0053  0.0686  0.1107
 9103W        W25237  13.887   5.122   1.990 -0.1163 -0.2697 -0.1197
 9104W        W25238  16.524  14.378  13.924  0.0381  0.0858  0.0332
 9105W        W25239  16.977   8.804  13.264 -0.0837 -0.2045  0.0023
 9106W        W25240  13.242  11.573   1.593 -0.0860 -0.1882  0.0229
 9107W        W25241   7.779  16.376   5.405 -0.0425 -0.1961 -0.0230
 9108W        W25242  16.934  16.035  12.459 -0.0823 -0.0913 -0.0927
 9109W        W25243  13.595  16.751  14.667  0.0014 -0.1983  0.0419
 9110W        W25244   0.183  17.741   4.629 -0.2080  0.0235 -0.0295
 9111W        W25245   9.380  12.283   1.746 -0.3826 -0.0802 -0.0604
 9112W        W25246  17.406   7.784   4.122 -0.2043  0.0210 -0.0854
 9113W        W25247   8.775   4.442  11.957  0.1142 -0.0947 -0.1379
 9114W        W25248   4.225   0.912   0.059 -0.1198 -0.0004  0.4415
 9115W        W25249   4.692   9.163   0.544  0.0581 -0.1238 -0.1425
 9116W        W25250   8.013   4.130  15.075  0.1212  0.1669  0.1232
 9117W        W25251   1.505   1.600   1.451 -0.1676 -0.1382  0.0424
 9118W        W25252   4.388   5.320  11.813 -0.1219  0.1164  0.1334
 9119W        W25253  12.254   8.579   2.349  0.1534  0.0284 -0.1924
 9120W        W25254   6.651  16.243   4.351  0.0649 -0.1327 -0.0844
 9121W        W25255  10.139   1.913   3.715 -0.2764 -0.0652  0.0308
 9122W        W25256  15.678   5.417  14.895  0.2071  0.0490  0.0804
 9123W        W25257   8.384   8.852   4.497 -0.1045 -0.3834  0.2296
 9124W        W25258  11.106   3.602   1.107 -0.0670 -0.1479  0.2701
 9125W        W25259   2.073   4.225   3.145  0.2458  0.2766 -0.0902
 9126W        W25260   9.005   7.628  11.389 -0.0911 -0.1313  0.1323
 9127W        W25261  11.612   2.293  12.011  0.0708  0.0539  0.2769
 9128W        W25262   6.568  10.098   2.321  0.1075 -0.1740 -0.1113
 9129W        W25263  11.949   8.477   0.297 -0.0221  0.2049  0.1793
 9130W        W25264  15.274  16.231  13.623 -0.1376 -0.1394  0.1840
 9131W        W25265   6.621  11.063  12.057 -0.0900  0.2266 -0.3567
 9132W        W25266  11.031  15.134  13.276  0.2127  0.0099 -0.2269
 9133W        W25267   8.782  16.145   1.003 -0.0041 -0.2132  0.0700
 9134W        W25268  17.127   6.521  13.657 -0.0909 -0.1670 -0.0588
 9135W        W25269  12.855   6.343   0.086  0.0779  0.0534  0.1564
 9136W        W25270   2.522   0.523  11.897 -0.0560  0.1304  0.1001
 9137W        W25271   8.337  12.252   3.597 -0.2605  0.0636 -0.0787
 9138W        W25272   0.534  10.178   1.662 -0.3277 -0.0172 -0.0992
 9139W        W25273  16.663  17.480   0.169  0.1230 -0.2396 -0.2481
 9140W        W25274   9.285  15.699  12.317 -0.0008  0.1330 -0.1365
 9141W        W25275   9.661  10.494  12.617  0.1974 -0.2749 -0.0484
 9142W        W25276  11.862   6.358  13.037 -0.0055 -0.0758  0.2096
 9143W        W25277  15.608  11.680   0.160  0.1351  0.4124  0.1999
 9144W        W25278  11.944   7.293   1.724 -0.0513 -0.0839 -0.0055
 9145W        W25279   6.613   4.529   2.120  0.0730  0.1186  0.1395
 9146W        W25280  12.397   4.435   0.844  0.0508 -0.0186 -0.1043
 9147W        W25281  14.371  11.086   2.325  0.1401  0.1339  0.2844
 9148W        W25282  16.005  15.073  12.292  0.1680 -0.0856 -0.0811
 9149W        W25283   8.741   0.211   4.919 -0.1465 -0.2474 -0.1330
 9150W        W25284  15.155   5.285   4.932 -0.2983 -0.1001 -0.0544
 9151W        W25285   7.645   7.825   3.004 -0.0138 -0.1309 -0.0334
 9152W        W25286   3.913  12.079   0.768 -0.0315  0.0751  0.1297
 9153W        W25287  17.986   4.225  14.950 -0.1957 -0.1471  0.0107
 9154W        W25288  17.556   6.547  15.257  0.2135  0.1197  0.1003
 9155W        W25289  14.830   6.629   4.969  0.0253 -0.2125 -0.2802
 9156W        W25290   9.344  16.771  11.773  0.0247  0.1878 -0.0401
 9157W        W25291   7.897   2.771  12.022 -0.1999 -0.1342  0.0065
 9158W        W25292  14.414   6.847  14.383 -0.1087  0.1283  0.0460
 9159W        W25293  10.160   5.752  13.206  0.1004  0.2348  0.1477
 9160W        W25294   3.190   7.891  11.260  0.1258  0.0985  0.1074
 9161W        W25295  14.730  16.852  13.691 -0.2159  0.2202 -0.0445
 9162W        W25296   6.748   8.841  14.952  0.1453 -0.0401  0.2032
 9163W        W25297   3.077  11.519  13.841  0.0832  0.1627 -0.0305
 9164W        W25298  14.164  11.217  11.064 -0.0348  0.0561 -0.1299
 9165W        W25299  11.094  11.641  11.873 -0.2251  0.0940  0.3597
 9166W        W25300   5.866   2.385  13.521 -0.1312 -0.2375  0.0964
 9167W        W25301  12.033  15.707   0.957 -0.0115  0.0681  0.1669
 9168W        W25302   6.931   2.182  13.723  0.1215 -0.2387 -0.1285
 9169W        W25303   2.410   4.728  14.311 -0.2293  0.1028 -0.1721
 9170W        W25304   6.693   9.004  12.997 -0.0046  0.1853 -0.0181
 9171W        W25305  11.360   2.343  15.909  0.1834 -0.0235 -0.0561
 9172W        W25306   7.713  13.555  16.539 -0.0987  0.2539 -0.0319
 9173W        W25307  17.554   3.986  14.758  0.1092  0.0949 -0.0543
 9174W        W25308  13.387  11.094   4.983 -0.0707 -0.0153  0.1204
 9175W        W25309   9.314   6.959   1.072  0.0057  0.0412  0.0556
 9176W        W25310  15.346   1.748   5.294 -0.1193  0.1657 -0.0284
 9177W        W25311  17.675   8.784  16.103 -0.0940  0.1641  0.2791
 9178W        W25312  11.043  11.725   9.863  0.0716  0.0265 -0.1843
 9179W        W25313  16.547   6.961   0.640  0.1179  0.0232  0.4388
 9180W        W25314  15.534   5.830  12.166 -0.1070  0.3247  0.1900
 9181W        W25315   7.390   6.580  11.685 -0.2839  0.0901 -0.0983
 9182W        W25316  10.630   6.680   4.767  0.2230 -0.0202 -0.4046
 9183W        W25317  13.776   7.700   0.773 -0.0289 -0.2684  0.1903
 9184W        W25318  16.557  14.462   5.992 -0.1125  0.1002 -0.2165
 9185W        W25319   8.186   7.968   3.595  0.0955  0.1433 -0.0951
 9186W        W25320   8.063   7.001   2.481 -0.0958  0.2779 -0.4169
 9187W        W25321   3.541   3.250   0.954  0.0908 -0.2733  0.2104
 9188W        W25322  14.207   8.521  16.274 -0.2035  0.0867 -0.0933
 9189W        W25323   7.135   9.895   3.501 -0.0015 -0.0418 -0.0433
 9190W        W25324   3.150  17.192   1.455  0.0231  0.0886 -0.0810
 9191W        W25325  10.948  11.687   0.492  0.0069 -0.0221 -0.0900
 9192W        W25326  16.381  16.225   5.050 -0.2297  0.1521 -0.2733
 9193W        W25327  18.051   3.488  12.860  0.1554 -0.0582  0.4476
 9194W        W25328   4.048   7.630  16.370 -0.2552  0.0793  0.0317
 9195W        W25329   0.029   3.662   6.101 -0.1388  0.1084  0.3722
 9196W        W25330  12.242   9.254  15.837  0.1098  0.1785 -0.2183
 9197W        W25331  10.174  16.897   0.681 -0.0281 -0.0916  0.0990
 9198W        W25332  14.841   6.897  15.415  0.3732 -0.0603 -0.0041
 9199W        W25333  10.707  17.880  11.699  0.0279  0.0694 -0.0976
 9200W        W25334   1.446   7.884  14.069  0.0625  0.0331 -0.0161
 9201W        W25335   0.505   8.455  15.775  0.0478 -0.1855  0.1834
 9202W        W25336   3.195   9.109  11.490 -0.2227  0.1170  0.3991
 9203W        W25337   1.716   5.195  13.719  0.1214 -0.0057  0.2482
 9204W        W25338   7.903   6.461   3.098 -0.0002 -0.0018  0.3967
 9205W        W25339   4.122   2.003  11.183  0.1146 -0.1474  0.1545
 9206W        W25340  15.048   5.614  12.076  0.1243 -0.3642  0.4323
 9207W        W25341  17.454   3.636  16.240  0.1432 -0.0069 -0.0057
 9208W        W25342   5.355  10.684  12.489 -0.0147 -0.0490 -0.2996
 9209W        W25343   4.492   5.595  15.411 -0.0839  0.0763 -0.0080
 9210W        W25344   6.751   6.610   4.899 -0.0863 -0.1419 -0.1343
 9211W        W25345   4.464  14.229   1.758 -0.2085 -0.3176 -0.1866
 9212W        W25346  10.488   4.620  14.392  0.0190  0.0719  0.0798
 9213W        W25347   9.987   2.704  11.613  0.0247 -0.1595 -0.2699
 9214W        W25348   8.434   4.695   1.140  0.0646  0.1710 -0.0748
 9215W        W25349  15.583   3.975   4.989 -0.3754 -0.0837  0.1367
 9216W        W25350  15.932  15.782  13.062 -0.1553 -0.3082 -0.1054
 9217W        W25351   6.320   7.550   2.085 -0.2076 -0.0262 -0.1737
 9218W        W25352  14.476  14.201   5.511  0.2647 -0.2010 -0.3306
 9219W        W25353  11.561   7.015  11.817  0.2093 -0.1054  0.2072
 9220W        W25354  13.256   0.728   2.307 -0.2173 -0.1750 -0.0456
 9221W        W25355   4.303  17.576   2.564 -0.0671 -0.1069 -0.1947
 9222W        W25356  12.614   0.566   3.439  0.2048 -0.1302  0.1087
 9223W        W25357   4.300  10.004  15.130 -0.0469 -0.1197  0.2837
 9224W        W25358  14.627   3.065   1.699  0.1895  0.1002 -0.3169
 9225W        W25359  15.345  15.846  13.171 -0.1990 -0.2849  0.2259
 9226W        W25360  16.164  12.024  15.135  0.3326  0.2832 -0.2997
 9227W        W25361   7.088   8.663  16.505 -0.0105 -0.1892  0.0591
 9228W        W25362  15.014  14.022   4.148  0.1106 -0.1454 -0.2357
 9229W        W25363  10.584   5.936  15.389  0.0320  0.0350 -0.1378
 9230W        W25364   9.654  10.920   5.019 -0.0381 -0.1626  0.1309
 9231W        W25365   4.546  13.307  15.080  0.1075  0.0689 -0.1062
 9232W        W25366  14.723   0.573   0.761  0.0006  0.2010  0.0587
 9233W        W25367   5.243  15.535  10.703  0.0664  0.1288  0.1365
 9234W        W25368   0.284   0.056   5.125 -0.0806 -0.1996 -0.1263
 9235W        W25369   3.705  16.026  14.145 -0.2595  0.1685  0.0285
 9236W        W25370  16.293   9.943  10.971 -0.1685  0.1424 -0.0112
 9237W        W25371   8.776  12.810  16.491 -0.1682  0.0395 -0.3345
 9238W        W25372  16.000   6.143  15.114  0.2905  0.2551 -0.0288
 9239W        W25373   5.212   7.099   3.892 -0.0329  0.2346  0.1016
 9240W        W25374   5.067  13.365  15.035  0.0817  0.0263  0.0156
 9241W        W25375   1.202   3.874  14.542  0.2508 -0.3298 -0.2832
 9242W        W25376  14.798   5.576   0.891 -0.0481 -0.0119 -0.3160
 9243W        W25377  17.395   9.397  13.473  0.1502  0.1217 -0.1744
 9244W        W25378  15.293   0.237  13.039 -0.2700  0.0798  0.0630
 9245W        W25379   5.166   1.811   4.387  0.1398  0.2401  0.3718
 9246W        W25380  14.698   3.359   1.271 -0.0813 -0.0901  0.1532
 9247W        W25381  11.698   0.030   1.991 -0.4725 -0.0217  0.1085
 9248W        W25382  15.785   5.688  11.272 -0.0449 -0.0026  0.2183
 9249W        W25383  16.646  13.388   2.131  0.0861 -0.0559 -0.0267
 9250W        W25384   1.816   3.574   4.930  0.1129  0.0496  0.0837
 9251W        W25385   7.895   4.782  13.775 -0.1492  0.2003 -0.1465
 9252W        W25386   3.007   2.853   2.172 -0.1261  0.1100  0.3537
 9253W        W25387  10.925  16.350   2.848 -0.1742 -0.1356  0.0125
 9254W        W25388   9.608   7.544   4.973  0.2691  0.1234 -0.0157
 9255W        W25389  15.381  12.636  14.216  0.1869  0.0243  0.0730
 9256W        W25390   7.398   0.678  12.634 -0.1863  0.2681 -0.1263
 9257W        W25391   4.371   3.751   0.352 -0.0972  0.1260 -0.0031
 9258W        W25392  14.304   2.220  14.001 -0.1827 -0.2458  0.0589
 9259W        W25393   6.644  14.143  15.996 -0.0544 -0.0486  0.0168
 9260W        W25394  17.262  18.174   0.260 -0.1767  0.2568  0.0525
 9261W        W25395  15.885  13.750   2.939 -0.1206  0.2838 -0.2820
 9262W        W25396   8.050  13.566  11.535  0.0508  0.1109  0.2339
 9263W        W25397   6.830  16.495  13.657  0.4498  0.2086 -0.1076
 9264W        W25398  14.013   5.801  13.680  0.0735 -0.0747 -0.1478
 9265W        W25399  12.347   2.874  15.896  0.1049 -0.0578 -0.1643
 9266W        W25400   8.257   9.894  10.966  0.3755  0.1968 -0.0708
 9267W        W25401   6.875   5.820  11.763  0.2173  0.0061  0.1814
 9268W        W25402  16.331   4.331  15.073  0.2832  0.1238 -0.2053
 9269W        W25403   5.385   8.224   0.774  0.3504 -0.0434  0.2513
 9270W        W25404  11.728   5.170  14.440  0.1114 -0.0180 -0.3709
 9271W        W25405   9.240   5.647   1.877  0.0910 -0.0912  0.3498
 9272W        W25406  14.419  16.802   0.719  0.0933  0.0178  0.1284
 9273W        W25407   2.462   7.814   0.376  0.0114  0.0528  0.0329
 9274W        W25408   4.633   4.757  13.356  0.0125 -0.1827 -0.0863
 9275W        W25409   0.302  10.936   1.817 -0.1215  0.0724 -0.3621
 9276W        W25410   9.973   4.013  11.730  0.0738  0.1976 -0.1126
 9277W        W25411   0.554  12.885  12.360 -0.0999  0.0496  0.1494
 9278W        W25412   8.778  13.886   3.250  0.1563 -0.2165  0.1149
 9279W        W25413   3.053   6.535  15.722  0.2064  0.0780  0.0531
 9280W        W25414  10.668   2.427  13.250 -0.3092 -0.0809  0.2595
 9281W        W25415   7.526  16.850  12.370  0.4920  0.0309 -0.1782
 9282W        W25416   8.225  14.851  13.982  0.0543  0.2146 -0.1772
 9283W        W25417  16.758   8.083  11.777 -0.3209  0.2277  0.1036
 9284W        W25418  13.203  12.570  14.114  0.1932  0.3816 -0.0571
 9285W        W25419  15.454  16.304  12.981  0.0958 -0.0486  0.0365
 9286W        W25420   5.429  16.180   5.137 -0.0833 -0.2882 -0.1130
 9287W        W25421   3.088   6.015   1.150  0.3750 -0.0518  0.2545
 9288W        W25422  10.923  13.843   1.935 -0.1348  0.0441 -0.0604
 9289W        W25423  11.748  17.293  13.866 -0.0251  0.2543 -0.1453
 9290W        W25424   9.540   9.399  10.569  0.0034 -0.3501  0.0668
 9291W        W25425   8.086  16.802   2.996  0.1871 -0.1793  0.1615
 9292W        W25426   4.352  15.644   0.939  0.3598 -0.2690  0.2313
 9293W        W25427   2.731   8.160   4.833  0.0049  0.0861  0.0820
 9294W        W25428   5.875   7.592   2.421 -0.0410  0.1526 -0.1406
 9295W        W25429   4.014   3.331   1.305 -0.0762  0.0222 -0.2165
 9296W        W25430   4.423  17.838   5.214  0.0836 -0.1516  0.1833
 9297W        W25431  15.436   9.799   3.203  0.0732 -0.2228 -0.2795
 9298W        W25432  13.612   1.088  10.904 -0.0355 -0.3089 -0.1243
 9299W        W25433  10.360   3.882  15.784 -0.1815 -0.0925 -0.2956
 9300W        W25434  11.384   9.754   4.596 -0.2327 -0.1546  0.2421
 9301W        W25435   5.327  16.627   5.990 -0.3188  0.0199  0.1763
 9302W        W25436  16.769  12.534   4.460 -0.1582 -0.0042 -0.1153
 9303W        W25437   0.748  15.268  13.672  0.0140  0.0044  0.0297
 9304W        W25438  15.484   8.632   4.040 -0.1020 -0.0175 -0.1993
 9305W        W25439  10.045  13.598   3.439  0.1008 -0.1640  0.0372
 9306W        W25440   7.564  13.758  12.205  0.1313 -0.0404 -0.1438
 9307W        W25441   4.735   2.620   2.647  0.0866  0.0277 -0.1182
 9308W        W25442  17.863  10.012   1.323  0.2294 -0.2923 -0.0263
 9309W        W25443   4.734   0.544   2.508 -0.3653 -0.2076  0.1900
 9310W        W25444   8.662   7.272  13.150  0.3332  0.4138  0.0935
 9311W        W25445   8.752  17.529  13.363  0.0393  0.0472  0.1403
 9312W        W25446   5.367  12.211   0.280 -0.2527  0.1272  0.0939
 9313W        W25447  10.949  15.208  16.092  0.2832 -0.0068  0.0387
 9314W        W25448  12.030  14.057   1.822  0.1056 -0.0724  0.2529
 9315W        W25449  13.920   0.853  13.303  0.0760  0.1692  0.2104
 9316W        W25450  11.503  17.960   6.859  0.0015  0.0789 -0.0145
 9317W        W25451   3.679   9.650   0.938 -0.2769 -0.5312 -0.0285
 9318W        W25452  13.861   4.484   5.623 -0.1461  0.1067  0.3670
 9319W        W25453   9.476   8.722  14.102 -0.0797 -0.3943 -0.3978
 9320W        W25454  16.619  11.761   4.237  0.0376 -0.4322  0.2874
 9321W        W25455  14.570   4.285  15.161 -0.0231 -0.2838  0.2405
 9322W        W25456   1.139   6.939   6.115 -0.1147  0.0933  0.2999
 9323W        W25457  10.125   5.974  15.563  0.0291 -0.0607  0.0050
 9324W        W25458  14.338   6.823  16.091 -0.2182  0.4369 -0.3056
 9325W        W25459  12.096   9.858   0.142  0.3359 -0.0972  0.2505
 9326W        W25460   5.126   2.039  13.361 -0.0896  0.0328  0.0113
 9327W        W25461   4.473   3.912  15.341  0.1512 -0.2669  0.4055
 9328W        W25462  11.626   7.202  13.773 -0.2812  0.0584 -0.4209
 9329W        W25463  14.512  16.089  16.458 -0.1180  0.3204  0.0611
 9330W        W25464   4.294   7.752  12.503  0.3605 -0.0787 -0.3851
 9331W        W25465   4.142   2.102   3.887  0.2265 -0.2058 -0.1276
 9332W        W25466   8.260   6.038   2.216  0.0218 -0.0532  0.0387
 9333W        W25467   1.016  13.165   2.414  0.1839 -0.2353  0.0523
 9334W        W25468  10.919  17.049   3.440  0.2293  0.1846 -0.0384
 9335W        W25469   1.930   1.792   2.100 -0.0822 -0.2254 -0.2474
 9336W        W25470  11.510   5.492  14.057  0.3995 -0.1926 -0.4200
 9337W        W25471  16.634  13.871  13.851  0.1277  0.2489 -0.1451
 9338W        W25472   9.042  17.293  13.904  0.1188  0.0205  0.0004
 9339W        W25473   8.804   1.712  14.732 -0.0684 -0.1891 -0.3153
 9340W        W25474   5.705  17.504  15.451 -0.1362  0.1984 -0.2825
 9341W        W25475  17.417  10.737   3.580  0.0185 -0.0718  0.1815
 9342W        W25476   3.895  15.228  13.450 -0.0714  0.0970  0.0203
 9343W        W25477  16.070  13.061  14.139  0.3522 -0.1412 -0.2036
 9344W        W25478  12.058  12.125  14.699  0.3438  0.0849 -0.2712
 9345W        W25479  15.463  13.322  14.885  0.0634  0.0941  0.0876
 9346W        W25480   0.377   2.805   5.025 -0.2169 -0.3008 -0.2553
 9347W        W25481  11.176   2.667   0.256 -0.1989 -0.1139  0.1819
 9348W        W25482   6.036  11.956  15.813  0.1443  0.0981 -0.2262
 9349W        W25483   6.699   4.558   2.945 -0.1704  0.2047 -0.2477
 9350W        W25484  13.450  16.334  15.039 -0.0510  0.0001 -0.2389
 9351W        W25485  12.153  17.714  12.422 -0.0349  0.4500 -0.2849
 9352W        W25486   5.184   2.359  15.949  0.0651  0.2851 -0.0392
 9353W        W25487   8.398   6.362   2.821  0.1481  0.1648 -0.2524
 9354W        W25488  11.281  11.864   0.809  0.0225  0.0926 -0.0688
 9355W        W25489   3.662   8.603   3.765  0.1289 -0.2957 -0.1105
 9356W        W25490  16.154   6.299  12.092 -0.1970  0.1380  0.0131
 9357W        W25491   9.115   7.129   0.503  0.1688  0.2998  0.2736
 9358W        W25492   8.072  11.009   0.550  0.0312  0.0470  0.1412
 9359W        W25493   4.296  10.316   1.198 -0.0148  0.0308 -0.2668
 9360W        W25494  12.782   2.918   2.038 -0.0862 -0.1254 -0.2048
 9361W        W25495  16.712   3.825   2.083  0.0803 -0.1673 -0.3471
 9362W        W25496  12.663   8.206  12.975 -0.2942 -0.0290 -0.3384
 9363W        W25497   9.684  10.049  12.187 -0.1173  0.1037  0.1082
 9364W        W25498   4.476  12.786   1.464 -0.1128 -0.5973  0.0338
 9365W        W25499  16.928   8.551  10.833  0.0028 -0.0193  0.3065
 9366W        W25500  11.261   3.098   5.081  0.0173  0.0860  0.1448
 9367W        W25501   8.967   2.805  13.592  0.0193 -0.1612 -0.1118
 9368W        W25502  11.217  16.735   2.649  0.0822  0.0229 -0.1576
 9369W        W25503   8.269   3.302  16.469  0.1771 -0.0166 -0.2819
 9370W        W25504   2.220  14.423   2.356 -0.1942 -0.0185  0.0318
 9371W        W25505   8.110  10.526  15.940  0.0061  0.0684 -0.2462
 9372W        W25506  17.811  12.999   4.756  0.0084 -0.0526  0.1887
 9373W        W25507  15.484   4.955   4.734 -0.1614 -0.0645 -0.1637
 9374W        W25508   6.792  14.390   0.620  0.0606  0.1118 -0.0992
 9375W        W25509   7.068   5.015  15.615 -0.1385 -0.0613  0.1428
 9376W        W25510  11.300   5.425   5.769  0.1830 -0.0621 -0.1729
 9377W        W25511   6.784   8.676  11.842 -0.1780 -0.1881 -0.0689
 9378W        W25512   3.618  14.710  15.501  0.1240  0.0836  0.2280
 9379W        W25513   0.173  17.980  13.782  0.1355  0.1463 -0.0190
 9380W        W25514   7.058  10.456   3.170 -0.0127  0.0537 -0.0043
 9381W        W25515  17.978   2.746  13.930  0.1950  0.0737  0.0992
 9382W        W25516   2.512   7.140   3.748  0.1203  0.2237  0.0524
 9383W        W25517   9.693  15.712   4.896  0.0926 -0.1363 -0.0727
 9384W        W25518   3.868  16.786  15.178  0.1255  0.0060 -0.0338
 9385W        W25519   6.018  17.497   2.434 -0.1374  0.0263  0.2948
 9386W        W25520  17.290   3.573  15.576 -0.3062  0.2075  0.3184
 9387W        W25521  16.268   7.602  14.900  0.2684 -0.1585 -0.0851
 9388W        W25522   5.708  13.657   5.448  0.4028 -0.1157 -0.0491
 9389W        W25523   6.140   3.872  12.590  0.0219  0.1957 -0.1590
 9390W        W25524   7.563   2.873  12.435 -0.2351  0.2570 -0.1343
 9391W        W25525   4.743  12.164   4.932 -0.0405 -0.2756  0.2335
 9392W        W25526  10.956  13.912  15.908 -0.0370  0.4124 -0.1361
 9393W        W25527   6.700  14.441   3.083 -0.0479 -0.0434 -0.2319
 9394W        W25528   5.020   3.202   0.069  0.0951  0.3865 -0.2489
 9395W        W25529   6.592   5.974   2.414 -0.1145  0.0584  0.0901
 9396W        W25530   8.390  14.046   3.565  0.0123  0.3722  0.0688
 9397W        W25531  10.477  12.023  15.661 -0.0516  0.0001 -0.0291
 9398W        W25532   6.131  13.094  16.542  0.2792 -0.1302  0.3695
 9399W        W25533   8.486  17.184  14.999 -0.0426  0.2051  0.2371
 9400W        W25534  12.351   2.940   0.862  0.0191  0.1754  0.0595
 9401W        W25535  13.753  12.684  14.090  0.1802  0.1565  0.2731
 9402W        W25536  12.027   5.964   5.069 -0.0749 -0.1980  0.1334
 9403W        W25537   2.537  15.194   3.330 -0.0841  0.2240  0.2108
 9404W        W25538  10.306   3.676   5.411  0.0126 -0.0926  0.2347
 9405W        W25539  14.341   1.221  13.848  0.0739 -0.2269 -0.0275
 9406W        W25540  17.798  17.138   3.449  0.0435  0.0973 -0.2611
 9407W        W25541   8.586   1.078  13.739 -0.0065  0.0428 -0.1981
 9408W        W25542   2.772  15.097   1.950 -0.1362  0.3222 -0.2040
 9409W        W25543  14.263   6.190  12.800 -0.2886 -0.0971 -0.3033
 9410W        W25544  11.091  12.996  13.456  0.0472  0.0612 -0.0264
 9411W        W25545   5.260   5.476  11.814 -0.0388  0.0347  0.2076
 9412W        W25546   1.540  12.837  15.476  0.0660  0.1441 -0.0717
 9413W        W25547   6.506   7.234  11.202  0.2997  0.3676  0.2053
 9414W        W25548  15.323   5.559  14.149 -0.4177  0.2888  0.3479
 9415W        W25549  13.769  17.814   2.188  0.0686  0.1979 -0.0400
 9416W        W25550  11.487   7.521  12.913  0.2179  0.2205  0.0696
 9417W        W25551   0.431   6.979   3.871  0.0937 -0.0165 -0.1434
 9418W        W25552  10.632   7.994   1.334  0.2296  0.0380 -0.0884
 9419W        W25553   3.317  16.745   2.392  0.2413  0.1551 -0.1073
 9420W        W25554   3.105   6.750  13.580 -0.2136 -0.0320 -0.2705
 9421W        W25555  17.480   0.804   0.625  0.0038 -0.0889 -0.0127
 9422W        W25556  13.775   5.066  12.742  0.0006 -0.0638  0.0393
 9423W        W25557  12.935   8.893   1.798  0.0225 -0.1410  0.2506
 9424W        W25558   1.607  16.047   3.981  0.0002 -0.0552  0.0945
 9425W        W25559   6.376   0.383  12.936 -0.1319  0.1478 -0.0234
 9426W        W25560  16.646   0.844  15.554 -0.0285 -0.2917  0.1213
 9427W        W25561  17.724  16.142   2.809 -0.0478 -0.1338  0.0150
 9428W        W25562  11.226   8.252  15.239 -0.4785 -0.0876  0.0411
 9429W        W25563  10.848   1.395   4.907  0.3268 -0.1440  0.0414
 9430W        W25564  11.137   9.012   2.835 -0.1521  0.3100  0.2517
 9431W        W25565  16.023  16.825   5.092 -0.1494  0.2072  0.0111
 9432W        W25566  17.268   8.261  11.656  0.0110 -0.0441  0.3491
 9433W        W25567  16.186   8.619  15.850  0.2306  0.1203  0.0010
 9434W        W25568   3.629   3.622  16.306 -0.2604  0.0133  0.0969
 9435W        W25569  16.613   7.874  13.673  0.1231  0.0214 -0.2033
 9436W        W25570   9.115  17.661   5.308  0.1662 -0.1239  0.2936
 9437W        W25571  14.626  16.934   2.281  0.1486 -0.0619  0.0764
 9438W        W25572  15.629  14.997   6.079 -0.3865  0.0698  0.0263
 9439W        W25573  14.761   5.279   2.594 -0.0597 -0.2282  0.4220
 9440W        W25574  12.524   1.776   5.147 -0.0491 -0.0655  0.3283
 9441W        W25575  11.677   4.741  11.558  0.0730 -0.0097 -0.0860
 9442W        W25576   4.629   4.256   0.411  0.0876  0.2333  0.0226
 9443W        W25577   6.218  18.087  13.915 -0.0081 -0.0295 -0.1570
 9444W        W25578   4.117   6.857  11.171 -0.1721 -0.0155 -0.0131
 9445W        W25579   6.726   5.263   4.414  0.0313  0.1528  0.0242
 9446W        W25580   0.994  10.676  14.757  0.0698  0.1875 -0.0927
 9447W        W25581   8.157   8.807  13.086  0.2377  0.2564 -0.0176
 9448W        W25582  13.232   8.992  10.587 -0.2925  0.1094 -0.0015
 9449W        W25583   6.734  12.591  10.999 -0.0620 -0.3186 -0.0954
 9450W        W25584  12.169   2.019   1.163 -0.0814  0.0512 -0.0961
 9451W        W25585  17.484  14.474  13.729 -0.0485  0.1348  0.0775
 9452W        W25586   7.263  17.902   4.806  0.3020  0.0452  0.1109
 9453W        W25587  17.618   3.725   2.566 -0.0484 -0.0890 -0.0570
 9454W        W25588   5.309   9.126   1.534 -0.0138  0.0376  0.1528
 9455W        W25589  17.361   8.916   2.794  0.1002  0.2346  0.1739
 9456W        W25590  11.354   4.377  12.696  0.2440  0.0543 -0.0061
 9457W        W25591   3.748  13.788  16.139  0.0411 -0.5320  0.1799
 9458W        W25592  16.424   7.227  11.265  0.1343 -0.2513 -0.2786
 9459W        W25593   2.607   2.560   2.078  0.1649 -0.0029 -0.1212
 9460W        W25594  15.370  10.689  13.465 -0.1104  0.3169  0.0989
 9461W        W25595  11.042   6.165  15.167  0.1775  0.0722  0.1874
 9462W        W25596  10.496  11.134   5.281 -0.0048 -0.0095  0.1000
 9463W        W25597   2.848   1.812   0.817  0.1291 -0.0888  0.3302
 9464W        W25598   5.787   8.748  15.442  0.2493  0.0812 -0.1845
 9465W        W25599   3.534  17.868  13.945  0.0779  0.0433 -0.0877
 9466W        W25600   8.823   2.442   1.833 -0.0248  0.0484 -0.0384
 9467W        W25601  10.821  14.109   1.563 -0.1207  0.2253 -0.2090
 9468W        W25602   2.653   1.626  13.451 -0.1506  0.1374  0.2099
 9469W        W25603  11.821  14.839  13.277 -0.0053  0.1225  0.0447
 9470W        W25604   9.506  15.955  14.150 -0.0308  0.1977  0.0807
 9471W        W25605   2.180  14.681   6.269  0.0860 -0.0730  0.1622
 9472W        W25606   9.800   4.178   0.920 -0.2631 -0.1772  0.1599
 9473W        W25607   1.811   2.362  12.642 -0.1070 -0.2326 -0.0380
 9474W        W25608   7.426   5.477  13.531 -0.3531 -0.1070 -0.0760
 9475W        W25609  16.171   7.934  13.452 -0.1330  0.2038  0.3136
 9476W        W25610   3.385   9.617  12.811  0.0032  0.1216  0.0607
 9477W        W25611  11.921  16.239  10.788  0.2044 -0.0789 -0.1689
 9478W        W25612   0.713  14.843  12.459 -0.0504 -0.1501  0.0725
 9479W        W25613  16.773   0.074   0.890 -0.2206 -0.1655 -0.0609
 9480W        W25614   2.502  11.452   1.421 -0.1538  0.0949  0.3940
 9481W        W25615   8.346  10.181  13.878  0.2819  0.0712 -0.0762
 9482W        W25616   7.036   1.128  13.260  0.0163  0.1524 -0.0472
 9483W        W25617   6.214   8.456   3.158 -0.3459  0.1281  0.1133
 9484W        W25618  16.279   5.561   2.020 -0.4702  0.1188 -0.0554
 9485W        W25619  11.451   9.193   1.298  0.0183 -0.1244  0.1474
 9486W        W25620  14.915   7.170   3.871  0.1991  0.1754 -0.0727
 9487W        W25621  13.527  15.220   6.861  0.1209  0.0238  0.1671
 9488W        W25622   2.766  14.555   2.536 -0.1031 -0.3954 -0.2298
 9489W        W25623  15.435   2.980   2.225 -0.1088 -0.2206  0.0344
 9490W        W25624   1.917  10.493   3.672  0.1936  0.0489  0.1155
 9491W        W25625  13.070   4.424  12.733 -0.4846  0.1791  0.5059
 9492W        W25626  14.657   5.170  14.057  0.0012 -0.3244  0.2480
 9493W        W25627  13.764  11.845   1.854 -0.0494  0.1371 -0.1606
 9494W        W25628   9.001   4.990  15.179  0.0736  0.1346  0.1142
 9495W        W25629   0.741   4.157  15.202  0.0150 -0.1752 -0.1678
 9496W        W25630  16.539   2.397   3.312  0.1962  0.1958 -0.1598
 9497W        W25631   1.199   1.275  16.132  0.1917 -0.1865 -0.2674
 9498W        W25632   1.041   2.421  16.489  0.2503 -0.2980 -0.0435
 9499W        W25633   1.081  13.970  16.457  0.1400 -0.1153  0.1760
 9500W        W25634   4.845  17.666  15.194 -0.1136 -0.1203  0.3366
 9501W        W25635   4.209  11.839   3.604  0.0717 -0.0463 -0.0887
 9502W        W25636  12.174   6.805   3.507 -0.0821 -0.0146 -0.0267
 9503W        W25637   7.259   9.123   4.565  0.0503  0.1863  0.1213
 9504W        W25638   8.023  16.937   4.343 -0.1982 -0.0477  0.1811
 9505W        W25639   3.804  13.709  13.830 -0.0791  0.2075 -0.1505
 9506W        W25640   5.047  10.150   4.521  0.1516  0.2938  0.0480
 9507W        W25641   6.051   2.682   1.928 -0.2372  0.1880  0.0880
 9508W        W25642  10.010  16.151  15.397 -0.0772 -0.1322 -0.3223
 9509W        W25643  14.291  14.628   0.677  0.1830 -0.1587 -0.2371
 9510W        W25644  11.153  17.474   2.161 -0.2923  0.3439  0.1788
 9511W        W25645   3.056   9.974  15.041  0.0880 -0.2049 -0.1187
 9512W        W25646  16.524   9.109   0.637  0.1612  0.2192 -0.0161
 9513W        W25647  13.854  10.527  13.926  0.1390  0.0427  0.1157
 9514W        W25648   5.539  11.059   1.201  0.1164  0.1926 -0.3007
 9515W        W25649   2.341  10.829   2.939 -0.2128  0.0378 -0.0732
 9516W        W25650  17.835  16.679   3.658 -0.0801 -0.0981 -0.2648
 9517W        W25651  13.225   5.320   1.197  0.1400 -0.0137  0.1885
 9518W        W25652  15.170  13.692   5.025 -0.0505  0.0399  0.0251
 9519W        W25653   2.767   6.926   2.212 -0.1732  0.2042  0.0504
 9520W        W25654  13.842  11.245   3.099  0.0238  0.2036  0.1311
 9521W        W25655  13.564   3.088  15.348  0.0678 -0.1492 -0.1947
 9522W        W25656  13.042  13.933  12.341  0.1399 -0.1719 -0.1549
 9523W        W25657  16.483   4.825  15.010 -0.1127  0.2348  0.0804
 9524W        W25658   4.324   6.545  13.965  0.3421  0.1491  0.2481
 9525W        W25659  11.145  11.838  12.722  0.0869  0.1565 -0.2785
 9526W        W25660   1.872  16.406   2.798  0.1086 -0.0521 -0.1142
 9527W        W25661  17.708  17.205   1.303 -0.0673 -0.3872  0.2091
 9528W        W25662  10.156   6.882   4.587  0.1732  0.2050  0.0372
 9529W        W25663  14.643   8.210  11.926  0.0254  0.2430 -0.2051
 9530W        W25664   6.224  15.925   2.461  0.2545 -0.0902 -0.2772
 9531W        W25665   9.917   5.954   1.517 -0.2511 -0.1046  0.1310
 9532W        W25666   5.451   8.270   1.342 -0.0518 -0.1245 -0.4317
 9533W        W25667  12.074  10.967   1.607 -0.1668 -0.0803  0.3749
 9534W        W25668   1.869  17.966  14.886  0.2127 -0.0694  0.0382
 9535W        W25669   9.946   9.606   3.058 -0.0201 -0.0959  0.1996
 9536W        W25670   6.315   3.583  13.947 -0.0177  0.1265  0.0775
 9537W        W25671   4.195   1.707   1.521 -0.2118 -0.1968 -0.0617
 9538W        W25672   5.450   7.296  11.291  0.1646 -0.1088  0.0764
 9539W        W25673   1.886  17.175   2.406 -0.0428  0.3596 -0.1090
 9540W        W25674  11.598   4.675  15.201 -0.2108  0.2155 -0.1511
 9541W        W25675   4.775   4.059   3.160 -0.1276 -0.1664  0.1467
 9542W        W25676   8.531  13.620  11.693  0.2133 -0.3212  0.1290
 9543W        W25677   9.801   2.937   3.537  0.1201 -0.3816 -0.1071
 9544W        W25678  10.266  17.964  11.462 -0.0139 -0.0803  0.1628
 9545W        W25679   5.962   1.197   2.237 -0.2246  0.1107 -0.2345
 9546W        W25680  12.651  14.473   3.071 -0.0780 -0.3501  0.2357
 9547W        W25681  15.776  11.325  16.253  0.1932  0.0506 -0.3431
 9548W        W25682   2.687   4.910   2.191 -0.2086  0.2305 -0.1555
 9549W        W25683   1.834  14.903   4.397 -0.2250  0.3143  0.0099
 9550W        W25684   8.890   7.192   1.073 -0.1968 -0.1652 -0.2531
 9551W        W25685   6.751   9.337   1.592  0.3361 -0.2569 -0.1228
 9552W        W25686  16.295  13.111   1.133 -0.0262  0.0405 -0.2482
 9553W        W25687  16.862  12.023  13.903 -0.0716 -0.0647  0.1487
 9554W        W25688   0.435   9.463  12.833 -0.2107 -0.0878  0.0464
 9555W        W25689   7.331   4.527  12.272 -0.2115 -0.2047 -0.0010
 9556W        W25690  10.793  11.135   3.123 -0.2304  0.1797  0.1506
 9557W        W25691   4.290  13.247   2.255 -0.0563  0.0139 -0.5832
 9558W        W25692   8.213  18.054   0.918  0.2565 -0.1103  0.2948
 9559W        W25693   4.659  12.358  13.158  0.0645 -0.0312  0.2467
 9560W        W25694   0.484  13.454  13.904 -0.3818  0.0093 -0.0922
 9561W        W25695  16.198  13.146  16.505 -0.2994  0.0798  0.1398
 9562W        W25696  16.935   3.943  15.543  0.2856  0.0300 -0.0990
 9563W        W25697  11.427   1.974  14.898  0.1715  0.1321 -0.1579
 9564W        W25698   9.814  11.771  16.338  0.2502  0.1696  0.1026
 9565W        W25699  17.246   8.045   1.241  0.1499  0.3126 -0.0164
 9566W        W25700   4.640  17.623   5.851  0.1278  0.2803 -0.2400
 9567W        W25701  11.384   1.186   5.529  0.3519 -0.2471  0.1658
 9568W        W25702  12.645   8.309  10.658  0.1191  0.0013  0.0228
 9569W        W25703  13.469   9.473  11.520  0.4592 -0.1046 -0.0222
 9570W        W25704  13.366   6.001   2.343 -0.0641 -0.0370 -0.0425
 9571W        W25705   7.419   6.312   4.358  0.2154 -0.3484 -0.0226
 9572W        W25706  14.300   1.933   1.997  0.1980  0.1809 -0.1770
 9573W        W25707   7.905   5.032   2.140 -0.0482 -0.0126  0.0895
 9574W        W25708   5.997   5.698  10.899 -0.1043 -0.1429  0.0889
 9575W        W25709   0.484   2.246   4.255 -0.1512  0.4878  0.1790
 9576W        W25710  10.810   6.392   3.810  0.2078 -0.2221  0.0399
 9577W        W25711   3.087   8.284  12.768 -0.1173 -0.1483 -0.0130
 9578W        W25712   9.066   2.683  15.507  0.0056  0.1720  0.0860
 9579W        W25713  11.387  16.073  15.466 -0.0769 -0.1217  0.1894
 9580W        W25714  10.584   4.990  12.350 -0.2948  0.3140 -0.0336
 9581W        W25715  10.353   3.273   4.865 -0.2071  0.0937 -0.1943
 9582W        W25716   2.554  17.113   2.201  0.1191 -0.2531  0.0637
 9583W        W25717  16.751  14.010  11.671 -0.1413 -0.1660 -0.1152
 9584W        W25718   3.149   9.558  12.349  0.2803 -0.0892 -0.5202
 9585W        W25719   2.582  16.444   4.965 -0.1767 -0.0101 -0.0549
 9586W        W25720  17.100  10.970  15.758 -0.2217  0.3484  0.3901
 9587W        W25721  11.543   8.465  13.907 -0.3807  0.2246 -0.0602
 9588W        W25722  10.781  11.732   0.939 -0.1918 -0.2468  0.1584
 9589W        W25723  10.822   0.184   5.235 -0.1587  0.0235 -0.0132
 9590W        W25724  17.893   7.531   2.422  0.2810 -0.1727  0.1837
 9591W        W25725   0.027   6.044  15.995  0.2622  0.2029  0.1854
 9592W        W25726  17.261  10.887   2.425  0.0399  0.0641  0.2084
 9593W        W25727   3.530   0.814  14.059  0.0357  0.6391  0.1724
 9594W        W25728   6.410   7.995   1.749 -0.0525 -0.0490  0.1196
 9595W        W25729   7.767   1.525   3.182 -0.0853 -0.4633 -0.1694
 9596W        W25730   8.621  10.129  12.677 -0.1095  0.2760 -0.0715
 9597W        W25731  17.021   1.363   2.060 -0.0532 -0.3341  0.0952
 9598W        W25732  16.521  12.033   0.089  0.1447 -0.1285  0.1571
 9599W        W25733  12.393   6.182   4.613 -0.1120  0.0894  0.3275
 9600W        W25734  18.052   1.421   6.119  0.0875  0.1509 -0.0283
 9601W        W25735  11.718   0.828   2.251 -0.1129  0.3218 -0.2379
 9602W        W25736   5.034   3.495   3.757  0.0486 -0.1131  0.2504
 9603W        W25737  15.800  13.334  16.133  0.0797  0.1159  0.1634
 9604W        W25738  17.589  14.700   0.015  0.0834 -0.0584 -0.0998
 9605W        W25739   6.950  10.058   4.815  0.0040  0.0594 -0.2169
 9606W        W25740  13.775   7.945   1.262 -0.3198 -0.0238 -0.0056
 9607W        W25741  11.034   6.299   4.315 -0.5370  0.3029  0.3491
 9608W        W25742   6.940   4.315   2.534  0.0135 -0.1515 -0.2478
 9609W        W25743  14.376  17.504   3.289  0.2356 -0.1996 -0.1842
 9610W        W25744  15.976  17.822   4.811 -0.1516 -0.0917 -0.3297
 9611W        W25745  17.531   1.546  10.717  0.2112  0.0363 -0.2279
 9612W        W25746   8.604   2.616   4.963 -0.1637 -0.3789 -0.0148
 9613W        W25747  16.448  13.753  15.857  0.0256 -0.0212  0.2234
 9614W        W25748   2.681   6.184   4.075 -0.0164 -0.1290  0.0781
 9615W        W25749   8.982   8.429  16.470 -0.2863  0.1486  0.0003
 9616W        W25750   8.395   0.795   5.639 -0.3066  0.0324 -0.1297
 9617W        W25751   4.035   1.852   3.184  0.0221 -0.0503  0.2114
 9618W        W25752   3.891   9.428   4.015  0.2479  0.3622  0.4167
 9619W        W25753   4.521   1.886  15.631 -0.2187 -0.3431 -0.0632
 9620W        W25754   3.235  13.181  11.889 -0.1083 -0.1120 -0.1065
 9621W        W25755   9.045   1.532  16.313 -0.0084  0.3366 -0.0529
 9622W        W25756  14.871  16.755   1.403  0.0976  0.1342 -0.1616
 9623W        W25757  10.064  11.146  14.870  0.0650  0.0108 -0.1724
 9624W        W25758   8.421  12.653   3.189 -0.0244 -0.0640 -0.3660
 9625W        W25759  17.294   2.798   2.144 -0.2361  0.3389  0.0602
 9626W        W25760   1.079   2.744  12.211 -0.1775 -0.0747  0.1642
 9627W        W25761  14.155  10.834   2.810  0.0980 -0.2840 -0.1961
 9628W        W25762   9.397   5.768   4.914 -0.0647 -0.3728 -0.1195
 9629W        W25763   9.363  14.177   1.354 -0.2414 -0.0776 -0.2642
 9630W        W25764   5.749  16.872   5.876 -0.0037 -0.0388  0.3861
 9631W        W25765  10.871  13.153  13.875  0.1014  0.1984  0.2137
 9632W        W25766   6.141   1.045   4.760 -0.1441  0.4905 -0.0561
 9633W        W25767  16.273   7.746  14.327  0.0520  0.2213 -0.0959
 9634W        W25768   9.249  11.219   0.401 -0.1290  0.2965  0.0202
 9635W        W25769  16.573  14.779  14.223 -0.0215 -0.0529  0.1167
 9636W        W25770   2.065   5.061   1.938 -0.0583 -0.1405 -0.1688
 9637W        W25771   6.760   2.811  16.099  0.3114 -0.0854 -0.0908
 9638W        W25772   0.258   3.440   1.933 -0.1086 -0.1866 -0.0125
 9639W        W25773   4.023  14.951  11.239  0.2084 -0.0294 -0.1429
 9640W        W25774  12.606  11.458  15.413  0.0853 -0.1102 -0.3150
 9641W        W25775  16.028  13.019  14.658 -0.1160  0.0355 -0.3478
 9642W        W25776  16.320  11.211  11.285  0.0174 -0.2323  0.4273
 9643W        W25777  16.833  14.016   0.769  0.2427 -0.4340 -0.0457
 9644W        W25778  10.686  11.560  15.695  0.2525 -0.2759  0.0430
 9645W        W25779  11.560   9.112   5.005  0.1261 -0.3162 -0.1249
 9646W        W25780   9.546  15.018  11.275 -0.3016 -0.3130 -0.0556
 9647W        W25781   7.025  10.362   2.542 -0.0864 -0.0451  0.0939
 9648W        W25782  10.853  13.203  12.530 -0.2884 -0.2991  0.0619
 9649W        W25783   4.984   1.697  15.866  0.2019  0.0481 -0.3495
 9650W        W25784   8.604  12.914   2.348  0.0253  0.1036  0.0350
 9651W        W25785  11.917   9.320   0.967 -0.1378  0.0221 -0.1764
 9652W        W25786  12.538   5.004  13.332  0.1458  0.1513 -0.1665
 9653W        W25787  17.814  16.473  15.931 -0.0620 -0.2253  0.2800
 9654W        W25788  16.604  14.752  14.802  0.1575  0.1143 -0.1605
 9655W        W25789   2.521   7.798   2.114  0.1859 -0.1473  0.3251
 9656W        W25790  16.701  10.422  12.715  0.1239 -0.1262  0.1444
 9657W        W25791  17.826   5.792   3.780  0.0794  0.2168  0.0312
 9658W        W25792  14.864  11.058  15.864 -0.0060 -0.0743  0.0523
 9659W        W25793  16.258  12.709  12.466 -0.2315 -0.3716 -0.1356
 9660W        W25794   0.161  14.090   4.596 -0.2288 -0.1889  0.1028
 9661W        W25795   4.641   2.515  12.265  0.1367  0.2210  0.0825
 9662W        W25796   8.989   8.579  12.043  0.0696 -0.1378 -0.1208
 9663W        W25797   2.222  17.764   5.015 -0.0415 -0.1993  0.0324
 9664W        W25798  13.409  15.579   2.947  0.3134 -0.0952  0.0584
 9665W        W25799  14.968  15.816  16.501  0.1792 -0.0624 -0.1098
 9666W        W25800  16.435  17.073   4.039  0.0963  0.0600  0.1535
 9667W        W25801   4.265  17.264   5.380 -0.0985  0.2665  0.0176
 9668W        W25802   5.935   7.389  14.485  0.4177 -0.0288 -0.1436
 9669W        W25803   6.671   7.887   1.084  0.1056 -0.0803  0.1473
 9670W        W25804   6.196   2.101   3.922  0.0689  0.0738  0.3747
 9671W        W25805  12.269   3.964   0.030  0.2188  0.1260  0.1452
 9672W        W25806  11.062  14.681   5.789  0.0591  0.2997  0.1589
 9673W        W25807   8.529   1.524  16.434  0.1487 -0.0129  0.1017
 9674W        W25808  10.556   1.822   1.882 -0.0079 -0.0821 -0.0824
 9675W        W25809  16.544   4.050  16.351  0.2174  0.1863 -0.3671
 9676W        W25810  17.828   7.833  14.006 -0.0775 -0.0901  0.0254
 9677W        W25811  13.068   4.966   3.120 -0.1474 -0.0480 -0.3831
 9678W        W25812  10.984  10.274  10.859  0.1245 -0.1716  0.0238
 9679W        W25813  12.007  14.839   2.415  0.1468  0.2071  0.0468
 9680W        W25814  18.154   0.628   0.801 -0.1103 -0.2460  0.0452
 9681W        W25815   5.228   4.783   3.559  0.0511 -0.2511 -0.3281
 9682W        W25816   5.935   3.795  11.557 -0.0027  0.0486 -0.2159
 9683W        W25817  13.396  12.577  11.463 -0.2343 -0.0595  0.2666
 9684W        W25818   3.612   8.443   3.164 -0.3282  0.1156 -0.0477
 9685W        W25819   1.928  10.523   2.181  0.0734 -0.0778 -0.0429
 9686W        W25820  13.963  14.531  13.075  0.0189 -0.0196 -0.1567
 9687W        W25821  13.931   1.936  13.939  0.3211  0.0025 -0.0354
 9688W        W25822  16.744  12.532  16.482 -0.5107 -0.0182  0.2634
 9689W        W25823   2.724  17.976  13.773  0.2163 -0.0612  0.0396
 9690W        W25824   8.650  12.064   4.848  0.4052  0.3131 -0.0453
 9691W        W25825  17.715  13.152   2.063  0.2295  0.1395 -0.1325
 9692W        W25826  11.754  16.227   6.070 -0.2019 -0.0522  0.1660
 9693W        W25827   6.869   9.673   0.973 -0.2701 -0.2355 -0.1802
 9694W        W25828  11.235  15.598  11.657 -0.0647 -0.5226 -0.2877
 9695W        W25829   7.431  17.279  15.705  0.0979  0.1094  0.0585
 9696W        W25830   7.428  16.906  12.929  0.0311 -0.1482 -0.3202
 9697W        W25831  14.388   5.869   4.963  0.1005  0.0494 -0.0876
 9698W        W25832  14.891   2.616   1.686 -0.1280  0.2370  0.0638
 9699W        W25833  17.846  16.704   6.296  0.1200 -0.0155  0.1773
 9700W        W25834   8.173   6.566  15.719  0.0099  0.1886  0.1375
 9701W        W25835   5.317   2.795   5.209  0.2103  0.1527  0.1609
 9702W        W25836  16.038   8.936  14.826  0.1506 -0.1181  0.0532
 9703W        W25837   5.204   6.992  13.587  0.0842 -0.2933  0.1270
 9704W        W25838   6.712  10.990  13.984  0.0344 -0.0510 -0.3315
 9705W        W25839   6.673   5.200   5.077  0.1729 -0.1144 -0.0619
 9706W        W25840   2.183  15.736   2.502 -0.1596 -0.3252  0.0063
 9707W        W25841   5.655   7.763  13.352  0.3261 -0.0265 -0.1690
 9708W        W25842   6.681  12.174   0.964  0.2500 -0.0199 -0.0088
 9709W        W25843  15.643   1.105  14.244 -0.2328 -0.2314 -0.1917
 9710W        W25844   0.704  15.494   1.720  0.1269  0.0044 -0.0180
 9711W        W25845  10.149  11.119  13.919  0.3094 -0.0935  0.3062
 9712W        W25846  10.029  10.415  13.679 -0.0651  0.0151  0.1682
 9713W        W25847   4.995  16.165   4.181 -0.0338 -0.0842  0.2487
 9714W        W25848   2.260  11.018   4.060  0.0846  0.1040 -0.0432
 9715W        W25849  13.672  16.458  14.195 -0.0955  0.3028  0.2578
 9716W        W25850  11.926   4.945  12.665  0.1226  0.2003  0.1035
 9717W        W25851   0.125  13.613   0.548 -0.3687  0.1025  0.0170
 9718W        W25852  17.022   4.791   0.566  0.2855 -0.0569 -0.1962
 9719W        W25853   7.673   5.134  14.152 -0.3596  0.2343 -0.2617
 9720W        W25854  13.577  10.813  12.467  0.0554 -0.0063 -0.0547
 9721W        W25855  11.410   6.684   2.397  0.0328 -0.3995  0.2938
 9722W        W25856  11.150   0.222   2.150 -0.2909  0.2586  0.2273
 9723W        W25857   6.560  18.140   2.049 -0.3024  0.2694  0.0009
 9724W        W25858   3.501  14.983   2.339 -0.0217  0.2886  0.0041
 9725W        W25859   7.569  15.886   4.150 -0.2693 -0.2591 -0.1174
 9726W        W25860  15.736   5.109  16.327  0.2773 -0.1218  0.1031
 9727W        W25861  17.433  17.512  13.802 -0.1039 -0.2335 -0.4140
 9728W        W25862  11.756   5.324   2.902 -0.1874  0.1602 -0.2987
 9729W        W25863  13.929   4.219   3.332  0.1738 -0.1959 -0.0881
 9730W        W25864  13.638  12.232   0.544 -0.3824 -0.0659  0.2827
 9731W        W25865   2.263  13.770  12.200 -0.0357 -0.0067  0.3338
 9732W        W25866   6.455   7.111  14.643  0.0113 -0.1390 -0.2853
 9733W        W25867   2.257   2.741   5.377  0.0643 -0.1185  0.2314
 9734W        W25868  11.046  15.710  15.431  0.3110 -0.0685 -0.0128
 9735W        W25869   8.400   6.477   1.037  0.2082  0.0430 -0.0366
 9736W        W25870   3.324   1.025  15.742 -0.0557  0.1603 -0.0232
 9737W        W25871   0.798  12.369  13.500  0.1112 -0.2681 -0.5449
 9738W        W25872  17.667   5.292  15.881 -0.0546 -0.0060 -0.0045
 9739W        W25873   5.345   8.145  11.418 -0.2560 -0.2117  0.1006
 9740W        W25874  11.707   2.139  13.356  0.0186 -0.0636 -0.0902
 9741W        W25875   6.245   7.931   2.547  0.0010 -0.2225 -0.2279
 9742W        W25876  11.285  10.745  13.705 -0.3480  0.0744  0.1199
 9743W        W25877  13.206   7.050  11.527  0.1272  0.0233 -0.1754
 9744W        W25878   6.585  12.579  16.541 -0.0381  0.0524 -0.0721
 9745W        W25879  13.135  12.535  13.025 -0.0869  0.1033 -0.3529
 9746W        W25880  17.853  13.038  14.811  0.0522 -0.0806  0.0374
 9747W        W25881  15.182  10.250   4.477 -0.2913  0.0016 -0.0962
 9748W        W25882   9.651   0.875  11.905  0.1072 -0.0152  0.2619
 9749W        W25883  11.841   5.899   2.996 -0.0225 -0.0333 -0.0724
 9750W        W25884  12.993   6.469  14.712 -0.1118  0.0751 -0.3041
 9751W        W25885   9.081  10.100   2.052 -0.1789 -0.0891  0.1288
 9752W        W25886  13.995   6.350   4.829  0.3337  0.1156 -0.2817
 9753W        W25887   2.643  16.211   2.600  0.0399 -0.1228 -0.2824
 9754W        W25888   6.131  16.894   4.841 -0.0043  0.1523 -0.1251
 9755W        W25889  16.381  14.163   1.616 -0.0631 -0.1565 -0.0183
 9756W        W25890   3.214   6.168   2.047 -0.0736  0.1739 -0.3801
 9757W        W25891   0.274   2.821  14.036  0.0985 -0.2368  0.0964
 9758W        W25892  11.394   1.760   3.190  0.0252 -0.0911  0.0751
 9759W        W25893   0.247   7.741  12.341 -0.0917 -0.2400 -0.3626
 9760W        W25894   6.385  17.648   2.923 -0.0998 -0.0516  0.1607
 9761W        W25895   1.892   1.411   1.704 -0.0097  0.3310 -0.1441
 9762W        W25896  16.001   4.727   3.302 -0.3215  0.0892 -0.0658
 9763W        W25897  18.006  16.167  12.965 -0.1515 -0.1624 -0.0202
 9764W        W25898   8.677   7.501  10.973  0.5167 -0.0062 -0.0479
 9765W        W25899   4.996   4.589   1.160  0.0784  0.1757 -0.0682
 9766W        W25900  17.294   4.974   2.573 -0.1596 -0.1138 -0.1361
 9767W        W25901   0.548  13.248   1.706 -0.4881  0.0276 -0.3330
 9768W        W25902   6.522  15.490  16.311 -0.0533 -0.2257 -0.0069
 9769W        W25903  12.494  13.195  11.982 -0.1137 -0.1086  0.0552
 9770W        W25904  15.189  12.178  15.554 -0.0377  0.2290  0.1266
 9771W        W25905   1.094  11.431  15.448 -0.1318  0.3010 -0.2217
 9772W        W25906  14.657   1.356  12.975 -0.0612  0.0466 -0.0895
 9773W        W25907   5.861   9.842   0.682  0.0433 -0.0823 -0.0485
 9774W        W25908   3.448   4.983   5.210 -0.1820 -0.1381 -0.1437
 9775W        W25909   7.003   5.693   2.246  0.0534 -0.0151  0.1203
 9776W        W25910  17.048   7.252  12.028 -0.1527  0.0036  0.0904
 9777W        W25911  13.864  13.537  11.682 -0.1452 -0.2331 -0.0155
 9778W        W25912   1.554   4.404   0.940  0.3250  0.0989 -0.2118
 9779W        W25913   6.061  11.393   4.495 -0.1824  0.0998 -0.3250
 9780W        W25914   2.956  17.653  13.466 -0.0471  0.0523  0.1493
 9781W        W25915   2.649  14.659  10.915 -0.0204 -0.0712  0.2221
 9782W        W25916   2.806  12.830  13.980  0.0903  0.1880  0.0225
 9783W        W25917  15.852   0.512   0.617 -0.0221  0.2179  0.0044
 9784W        W25918   7.336  12.230  13.383 -0.0774  0.0404  0.1458
 9785W        W25919   8.735   8.639  15.205  0.0004  0.0047 -0.0770
 9786W        W25920   9.210   6.908  15.686 -0.2337 -0.2502 -0.1362
 9787W        W25921   6.173  10.907   3.373 -0.1060 -0.1623  0.0439
 9788W        W25922   9.989   3.141  11.854 -0.1854 -0.0620  0.3129
 9789W        W25923   2.906   1.367  15.468  0.0635  0.0628  0.0980
 9790W        W25924   7.715   5.656  14.080 -0.1223  0.1717  0.1160
 9791W        W25925   2.061   3.510  14.921 -0.0179  0.2918  0.1612
 9792W        W25926   3.603  11.442  12.000  0.0809  0.2289 -0.4677
 9793W        W25927   2.944   8.601   4.737 -0.1918 -0.1989 -0.0403
 9794W        W25928  10.182  12.229  14.173  0.4558  0.2036 -0.2666
 9795W        W25929   0.376  15.283  14.478  0.3683 -0.3376 -0.1115
 9796W        W25930   6.630   0.905   5.247  0.1225 -0.0049 -0.2465
 9797W        W25931  15.575   9.296  10.865 -0.1519  0.3257 -0.2133
 9798W        W25932   7.751   0.131  14.786  0.2061 -0.3180 -0.1402
 9799W        W25933   1.954  10.740  13.855 -0.0024 -0.0365  0.1920
 9800W        W25934  15.050   8.161  16.483  0.0276 -0.1050 -0.0096
 9801W        W25935   3.623  16.729  16.215  0.0725  0.1258 -0.1987
 9802W        W25936  17.642  16.544  12.193 -0.1438  0.2189  0.1401
 9803W        W25937   2.522   3.254   0.044  0.5289  0.0962 -0.2114
 9804W        W25938   5.966   6.145  10.754 -0.1712  0.5337 -0.1976
 9805W        W25939   7.910  12.767   4.292  0.0425  0.2240  0.1848
 9806W        W25940   2.273   5.317  15.438 -0.2849  0.2891  0.0727
 9807W        W25941   4.397   9.020  15.262  0.1006  0.0324  0.3793
 9808W        W25942   0.897   0.939  13.055  0.2760 -0.1332 -0.0288
 9809W        W25943   3.546   9.693   5.396  0.1951  0.0172  0.0760
 9810W        W25944  14.298  12.178   1.100  0.0489 -0.0795 -0.0396
 9811W        W25945   0.383   4.438  14.848 -0.0322 -0.0294  0.0039
 9812W        W25946  16.023  16.841   3.453  0.2817  0.1319 -0.1736
 9813W        W25947   2.371  16.229   1.108  0.0165  0.3071 -0.1714
 9814W        W25948  11.835   9.913  12.459 -0.1783  0.0813  0.2645
 9815W        W25949   7.326   3.734   3.015 -0.0123 -0.0511 -0.0200
 9816W        W25950  13.174  16.104   4.799 -0.4668  0.0060  0.1436
 9817W        W25951   9.320  14.823  15.132  0.0722  0.1564  0.0249
 9818W        W25952  13.981  12.058  15.255 -0.0640 -0.2147  0.0918
 9819W        W25953   4.084   6.100   2.025 -0.2511 -0.0527  0.1322
 9820W        W25954   1.502  14.117   2.522 -0.2644  0.4005  0.0006
 9821W        W25955  16.460   3.845  15.884 -0.3074 -0.2290  0.3636
 9822W        W25956  13.128   3.168   6.073  0.3820 -0.0495  0.0494
 9823W        W25957  14.558  10.882   1.191  0.2379 -0.1851  0.1166
 9824W        W25958  12.065   5.379  13.168  0.2077  0.3545 -0.3699
 9825W        W25959   5.682  15.013  12.885 -0.0417 -0.3441  0.1105
 9826W        W25960   9.185   0.784   4.392 -0.2502 -0.1962 -0.0667
 9827W        W25961   4.551  10.476  15.344  0.3923  0.3690 -0.0528
 9828W        W25962  10.201   6.784   3.662 -0.0450 -0.1624 -0.0246
 9829W        W25963   2.433   8.302  15.664 -0.1355  0.0595  0.0334
 9830W        W25964   5.656   5.257  12.103  0.2400 -0.3234  0.0228
 9831W        W25965  11.816   4.429  15.682  0.0665  0.1307  0.1619
 9832W        W25966  14.431   7.931  12.956  0.0275 -0.0477 -0.0292
 9833W        W25967   8.942   0.810   5.669  0.0275 -0.3130 -0.1731
 9834W        W25968  10.732  10.657  11.579 -0.1125 -0.0228 -0.1253
 9835W        W25969  16.791   9.224   5.110 -0.3098  0.1053 -0.1990
 9836W        W25970   4.437  10.846  12.112 -0.0947 -0.0061  0.0322
 9837W        W25971   5.644   5.068   5.232 -0.0753  0.1801 -0.1847
 9838W        W25972  15.515  13.322   5.141 -0.1333  0.0898 -0.2245
 9839W        W25973   7.736   9.043  13.688 -0.3230 -0.1531 -0.1392
 9840W        W25974  13.233   4.229   4.779  0.1400 -0.0196  0.1704
 9841W        W25975  17.135   3.946   3.464  0.0917  0.0178  0.0015
 9842W        W25976   0.966  14.228   3.535  0.1918 -0.0390  0.4578
 9843W        W25977   0.704   7.301  15.672  0.0703  0.1768 -0.0153
 9844W        W25978  15.839  10.084  12.274 -0.1120  0.0662  0.0186
 9845W        W25979  11.921  10.205  11.328  0.1021 -0.1132  0.1251
 9846W        W25980  12.142  10.334  14.974  0.0531  0.1422  0.0704
 9847W        W25981   6.080  12.037  11.009 -0.0603  0.3757  0.1926
 9848W        W25982  17.027   8.893  12.375  0.3627 -0.1169  0.0877
 9849W        W25983   8.165   9.347   2.514 -0.2407  0.3028 -0.0702
 9850W        W25984  13.236   5.045  14.926 -0.0360  0.1024 -0.1113
 9851W        W25985   4.003   8.240   4.060  0.2559 -0.3394  0.0756
 9852W        W25986   5.025  13.974   4.497 -0.1776  0.2032 -0.1722
 9853W        W25987   2.907  17.068  15.036 -0.0660  0.0363 -0.1532
 9854W        W25988  17.858   9.433   4.276 -0.1326  0.2335 -0.1341
 9855W        W25989  13.456   7.032   1.743 -0.1177  0.0106  0.0178
 9856W        W25990  13.270   9.901   5.105 -0.1544 -0.2068  0.1151
 9857W        W25991   9.944   0.657  15.668 -0.0699  0.3061 -0.1926
 9858W        W25992  16.831   0.433  14.535  0.0884 -0.2385 -0.2258
 9859W        W25993   5.103  16.573   3.407  0.0753 -0.0670  0.1404
 9860W        W25994   1.124   5.868   0.620 -0.2195  0.3476 -0.2952
 9861W        W25995   8.712   9.765  10.775  0.2193  0.0122  0.1392
 9862W        W25996   7.089  14.714   3.292 -0.0827  0.0638  0.3672
 9863W        W25997   7.913  10.302   3.833 -0.0964  0.1580  0.0371
 9864W        W25998   0.674   2.456   0.765 -0.1110 -0.1616  0.1623
 9865W        W25999  11.105   6.298  12.253  0.2946  0.0276  0.1306
 9866W        W26000   4.206   2.270   2.911  0.2471 -0.3597 -0.2535
 9867W        W26001  17.686  16.032  16.079  0.1382  0.1226  0.0547
 9868W        W26002  16.516   4.485   4.729  0.1357  0.0099  0.0899
 9869W        W26003  13.151  17.490   1.864  0.0821  0.1377  0.2651
 9870W        W26004   0.323   8.449   4.932  0.2462 -0.1285  0.1631
 9871W        W26005   1.157   9.063  11.690  0.3953  0.1256 -0.4219
 9872W        W26006  12.613   0.060  14.183  0.2281 -0.0172 -0.4007
 9873W        W26007   7.018   5.654  12.675  0.1172  0.2092 -0.2782
 9874W        W26008   0.293  15.776   3.582  0.2692 -0.3515 -0.1644
 9875W        W26009  12.997  14.444   5.212 -0.1314 -0.1643 -0.2917
 9876W        W26010  13.516   3.128   3.144 -0.2632  0.1779  0.0457
 9877W        W26011   6.514   9.929  12.001 -0.1876  0.0757  0.1051
 9878W        W26012   9.290   3.938   2.030  0.5908 -0.0219 -0.2241
 9879W        W26013   9.830  12.059   1.795  0.1508  0.1033 -0.1945
 9880W        W26014   2.276   9.951   2.986  0.0358  0.3092  0.3014
 9881W        W26015  12.430   3.701  13.961  0.1758 -0.2719  0.2086
 9882W        W26016  14.926  14.500   5.540 -0.1282  0.4628 -0.0398
 9883W        W26017   6.402  11.857   1.262 -0.2818 -0.0415 -0.0206
 9884W        W26018  10.125  16.490  13.181  0.1412  0.2641 -0.0119
 9885W        W26019   1.587   0.007   6.748  0.1542 -0.1098  0.2919
 9886W        W26020  14.551  12.234  13.964  0.4386  0.0850 -0.2108
 9887W        W26021   4.683   3.358   4.592 -0.0776  0.0806  0.1141
 9888W        W26022   0.528   1.251   4.040  0.0184  0.0305  0.0244
 9889W        W26023  17.172   7.340  13.401  0.0139  0.1009  0.2199
 9890W        W26024   0.155   0.466   4.196  0.0012 -0.1959  0.0274
 9891W        W26025  16.974   6.193   3.857  0.3550 -0.1980  0.0694
 9892W        W26026  12.454  16.544  11.909 -0.3301  0.1375 -0.2023
 9893W        W26027   1.455   4.337   1.394 -0.1018 -0.0186  0.0318
 9894W        W26028  15.967  12.388   1.831 -0.0204  0.1028  0.2954
 9895W        W26029  17.678  17.007  16.228  0.2792  0.0669  0.0901
 9896W        W26030   7.944   2.027  15.178  0.0891  0.1932 -0.1733
 9897W        W26031   7.243  13.427   5.367  0.0227 -0.4781 -0.0977
 9898W        W26032   4.112   4.447   0.312  0.0217  0.2776  0.0254
 9899W        W26033   8.033  18.153   6.050  0.0067  0.0370  0.2442
 9900W        W26034   6.964   9.205  15.285  0.2163  0.0989 -0.0127
 9901W        W26035   3.807   0.284  12.320  0.3865 -0.0909  0.0071
 9902W        W26036  12.396  11.841  13.177  0.0591  0.1050 -0.0384
 9903W        W26037  13.704   7.401  12.746  0.1082  0.0586  0.0928
 9904W        W26038   9.100   8.142   2.533 -0.1699 -0.2190 -0.0994
 9905W        W26039   4.241  11.541  13.105  0.0472 -0.2282 -0.1322
 9906W        W26040   9.785   9.269  14.808  0.1864  0.1209 -0.2492
 9907W        W26041   8.563   8.726  11.983 -0.1664 -0.0285  0.0969
 9908W        W26042  16.083   5.416   1.486 -0.0759 -0.1213 -0.2836
 9909W        W26043   8.862   5.734   1.479  0.0974  0.3437  0.2939
 9910W        W26044   8.712   0.858  13.122 -0.0811 -0.0965 -0.1471
 9911W        W26045   8.982  14.470   2.042 -0.0926 -0.1543  0.0016
 9912W        W26046   9.963  13.310   0.365  0.0594 -0.1277  0.1888
 9913W        W26047  14.625  11.748   3.571 -0.0344 -0.1888 -0.0517
 9914W        W26048   4.500   8.234   3.908  0.1356 -0.4534  0.0697
 9915W        W26049  14.760  17.456   0.138  0.1971 -0.2032  0.2618
 9916W        W26050   7.478  11.104  11.392  0.1699 -0.0997 -0.1128
 9917W        W26051   6.911   8.844   0.915  0.0884 -0.1392 -0.0133
 9918W        W26052   0.040   6.037  14.318 -0.1210 -0.3716 -0.0544
 9919W        W26053   1.309  10.382   3.801 -0.1150  0.1392 -0.2817
 9920W        W26054   0.058  10.966   3.041 -0.1027  0.0709  0.2266
 9921W        W26055   0.509   3.277  14.259  0.1137 -0.1398 -0.0080
 9922W        W26056  10.173   9.011  13.503  0.1206  0.2439  0.0070
 9923W        W26057   1.593  17.733  14.533 -0.0541 -0.1562 -0.1261
 9924W        W26058   5.725   5.511  15.012 -0.0138 -0.0573 -0.3021
 9925W        W26059  13.588  15.101  12.323 -0.0759  0.0355 -0.1957
 9926W        W26060  13.639  17.212  16.380  0.0242  0.0062  0.0006
 9927W        W26061   1.932   0.997  12.015 -0.0312  0.2894  0.1708
 9928W        W26062   1.425  15.669   0.072 -0.2191 -0.2609 -0.0081
 9929W        W26063   8.856   5.217  14.731 -0.1969 -0.0443 -0.2204
 9930W        W26064   3.012   3.066   3.979  0.0565 -0.1449  0.1774
 9931W        W26065   7.489  10.568  12.207 -0.2274 -0.0673 -0.4119
 9932W        W26066  12.302   1.449  15.023  0.1132  0.1283  0.0843
 9933W        W26067   5.407  11.193  12.533  0.0760 -0.1838 -0.2370
 9934W        W26068   9.642  17.716   1.172  0.0574 -0.3496 -0.3333
 9935W        W26069  12.800   1.576   4.006 -0.0751 -0.0437  0.0717
 9936W        W26070  10.655   9.423  12.870 -0.0356 -0.2053 -0.0983
 9937W        W26071   2.397   4.552   4.972 -0.0300 -0.0288  0.1048
 9938W        W26072   6.899  12.646  14.641  0.0042  0.1095  0.2389
 9939W        W26073  12.273   4.833   0.002  0.1348 -0.3386 -0.2345
 9940W        W26074   8.124   2.179  14.689  0.4749 -0.0703 -0.0858
 9941W        W26075   3.040   2.662  12.818  0.0132  0.1172 -0.4095
 9942W        W26076   1.786  16.036  13.321 -0.1485  0.0690  0.0516
 9943W        W26077  14.012  14.575  14.403 -0.1669 -0.0335  0.5174
 9944W        W26078   8.746   6.545   4.858 -0.2201 -0.0617 -0.3416
 9945W        W26079   4.753   6.237   4.060 -0.3992 -0.2351  0.0742
 9946W        W26080  17.233  11.859   4.659 -0.2171  0.2399  0.1378
 9947W        W26081   1.987  11.366   6.291  0.0240 -0.2527 -0.0821
 9948W        W26082   7.605   0.232   2.757  0.0364  0.1574  0.0577
 9949W        W26083  17.511  10.133  15.822 -0.0347 -0.0347 -0.1490
 9950W        W26084  10.676   0.448   4.403  0.0123  0.1457  0.1842
 9951W        W26085  12.158   8.853  14.595 -0.1499  0.2255  0.2772
 9952W        W26086  15.038   3.197   2.383  0.1322 -0.0867 -0.2097
 9953W        W26087  11.049   6.692  12.920  0.2429  0.0384  0.1968
 9954W        W26088  13.632  17.269  14.608  0.0218  0.1746  0.0304
 9955W        W26089   3.008   0.559  14.776 -0.1037 -0.0736 -0.0046
 9956W        W26090   0.996   1.487   5.962  0.1405 -0.0493 -0.0098
 9957W        W26091  14.298  11.928   1.923 -0.2747  0.1328 -0.0634
 9958W        W26092  12.889   5.262  13.005  0.1982  0.1476  0.1212
 9959W        W26093   5.029  11.017   1.167  0.5423 -0.0523 -0.1094
 9960W        W26094   0.355   5.722  14.517 -0.0959  0.2337 -0.0553
 9961W        W26095   8.632  13.854   5.699 -0.0862  0.0175 -0.4534
 9962W        W26096   8.172   3.614  15.017  0.2422 -0.0600  0.0087
 9963W        W26097  11.258  10.621  14.819 -0.1330  0.0048  0.2932
 9964W        W26098   5.457   8.947   4.086  0.2425 -0.2475  0.0749
 9965W        W26099   0.983   1.722  15.962  0.0651  0.2412 -0.0790
 9966W        W26100   9.794   0.542  11.537  0.2742 -0.3196 -0.0707
 9967W        W26101   8.231  12.832  11.148  0.1695 -0.0710 -0.1351
 9968W        W26102   9.040  15.207  16.432  0.0577  0.3503  0.0705
 9969W        W26103   4.675  12.589   4.134 -0.0880  0.1542  0.1711
 9970W        W26104   2.817   0.277  13.873  0.1316 -0.2348 -0.2210
 9971W        W26105   1.046   3.811  16.056  0.0127 -0.0386 -0.0014
 9972W        W26106  17.064   2.340   1.725 -0.0086  0.1141 -0.2017
 9973W        W26107   8.298   7.407  14.073 -0.1780  0.0527 -0.0169
 9974W        W26108   6.651   3.647   2.783 -0.0258 -0.0572 -0.0410
 9975W        W26109  10.304  14.120  11.788  0.0742  0.0568 -0.1315
 9976W        W26110   8.489   8.570   3.050 -0.2082  0.1089  0.0346
 9977W        W26111  14.856   3.590   0.846  0.2766  0.1427  0.3068
 9978W        W26112   0.549   7.680   0.372 -0.1750 -0.1821  0.0246
 9979W        W26113  15.589   6.886   0.964  0.2081 -0.3343 -0.0882
 9980W        W26114   8.791  11.714   2.952  0.3027  0.0755 -0.1662
 9981W        W26115  15.727   3.867   6.439 -0.0262 -0.1670 -0.2054
 9982W        W26116   0.192  11.347   2.128  0.2343  0.2327  0.0333
 9983W        W26117  10.802   1.739   3.789 -0.1695 -0.0827  0.1122
 9984W        W26118   9.332  10.038  14.185 -0.0578 -0.1508  0.0795
 9985W        W26119   9.428   1.895   4.050 -0.0384 -0.2667  0.1634
 9986W        W26120   6.897   2.963  11.876 -0.1055 -0.0106 -0.0901
 9987W        W26121   7.500  11.824   3.798  0.1059  0.1770 -0.1540
 9988W        W26122   0.804  16.382  16.463 -0.1402 -0.1410  0.0205
 9989W        W26123  10.675   6.579  11.406  0.0973  0.2582 -0.1342
 9990W        W26124  18.174  11.564   3.494  0.0152  0.2399  0.3199
 9991W        W26125  13.526   2.389   0.001  0.0884 -0.0205  0.1421
 9992W        W26126  16.768  10.800   2.586  0.0177  0.3809  0.3149
 9993W        W26127   0.201   7.883  14.636  0.4030 -0.2907 -0.3679
 9994W        W26128   3.069  11.793   5.181 -0.2121  0.3074 -0.1209
 9995W        W26129   3.819  10.118  12.901  0.0232 -0.0201  0.1446
 9996W        W26130  13.585  15.629  12.375 -0.1708  0.0442 -0.0482
 9997W        W26131  12.329  14.498  14.820 -0.2789 -0.1800  0.0392
 9998W        W26132  15.546  15.906  15.563 -0.1214 -0.1931 -0.1385
 9999W        W26133   7.980  17.804   2.042 -0.0627  0.0742 -0.1432
10000W        W26134   6.858   8.576  12.318 -0.1203 -0.0827  0.2621
10001W        W26135   7.399   1.548  14.416  0.4169 -0.0367  0.0907
10002W        W26136  15.548  17.734   0.397  0.2371 -0.1443  0.0916
10003W        W26137  14.046   8.915  11.034  0.3866 -0.0164  0.1601
10004W        W26138  11.878  14.070   5.840 -0.0414  0.3673 -0.1448
10005W        W26139   9.905   1.454   2.649 -0.2868  0.0252 -0.0456
10006W        W26140  16.532   8.836  15.558 -0.2097  0.3219 -0.0695
10007W        W26141  10.158   2.766   3.927 -0.0516  0.2193  0.0957
10008W        W26142  10.940   4.520   2.396  0.1953  0.2289  0.0071
10009W        W26143   5.027   4.722  12.916 -0.2500  0.1185 -0.0063
10010W        W26144   3.257   9.341   3.480 -0.0167  0.0854  0.2394
10011W        W26145  11.793   7.977  13.928  0.0071 -0.1001  0.0067
10012W        W26146  13.279   9.420  12.578  0.1727  0.1035 -0.0840
10013W        W26147   8.951   6.521   3.326 -0.0508  0.1135  0.0662
10014W        W26148   3.202   0.090  13.592 -0.0307 -0.1152  0.1835
10015W        W26149  15.237   1.490  14.426 -0.0246 -0.2774 -0.0085
10016W        W26150  15.947   0.770   6.308  0.1068  0.0602 -0.0844
10017W        W26151   9.139   9.700  10.519 -0.0859 -0.3044 -0.2264
10018W        W26152  14.729  11.632   2.741 -0.0901  0.1503 -0.0424
10019W        W26153  11.275  17.847   4.520 -0.1032  0.0994 -0.3496
10020W        W26154  12.063  18.020  12.789 -0.1842 -0.1075  0.0475
10021W        W26155   5.651   4.780   3.338 -0.0326  0.1041 -0.1722
10022W        W26156   1.203   6.684   3.386 -0.0910 -0.1016 -0.0886
10023W        W26157  14.813   7.260   0.158 -0.0339  0.0078 -0.1398
10024W        W26158   3.899   8.780   1.738 -0.1906 -0.0042 -0.2494
10025W        W26159   2.720   9.724  11.863 -0.1065 -0.0143 -0.0709
10026W        W26160   0.162   4.709   0.167 -0.0680  0.1161 -0.1582
10027W        W26161  18.032  17.321  16.464 -0.0900  0.2169 -0.0734
10028W        W26162  15.516  16.737  11.011  0.0029 -0.2185  0.0188
10029W        W26163   9.845   6.527  15.568 -0.2434 -0.0459 -0.1244
10030W        W26164   6.457  13.843   2.221 -0.0191 -0.2379  0.0014
10031W        W26165  16.008  15.960   6.112 -0.4568 -0.0739 -0.3419
10032W        W26166  11.115  12.283   1.058  0.1595  0.1163  0.1453
10033W        W26167  17.742   2.827   0.096  0.0280 -0.0225  0.1213
10034W        W26168   7.524   8.264   2.755  0.1008 -0.1446 -0.1460
10035W        W26169   8.404   7.071   2.053 -0.1665 -0.1039  0.0677
10036W        W26170   2.490  16.626  12.363 -0.1232 -0.2104  0.1814
10037W        W26171   4.064   4.949  11.932  0.0580  0.0104  0.0519
10038W        W26172   5.521  15.946   1.761 -0.1816  0.0777 -0.0432
10039W        W26173  14.231   4.227   4.795 -0.0859  0.0051  0.2632
10040W        W26174  16.374  11.258   3.331  0.1258  0.4087  0.0966
10041W        W26175   2.284  17.579  11.551  0.0482  0.0886  0.0776
10042W        W26176  15.745  15.513   4.564 -0.2613  0.0805 -0.0285
10043W        W26177  11.017   8.854  16.226 -0.3045  0.0796  0.0410
10044W        W26178   6.547   0.302  13.422  0.1500 -0.2145 -0.2958
10045W        W26179   0.525  17.879  15.032  0.2881  0.3157 -0.1613
10046W        W26180  16.154   5.826   3.384 -0.2053  0.0715  0.2534
10047W        W26181   7.735   5.578   3.455  0.0858 -0.0263 -0.0030
10048W        W26182  12.578   6.777  12.052  0.1551 -0.0414  0.1201
10049W        W26183  15.315  10.462  12.958 -0.3425 -0.1741  0.1585
10050W        W26184   7.645  12.615   2.928  0.3741 -0.0912 -0.5355
10051W        W26185  17.979   8.009   2.510 -0.0680 -0.2658  0.1067
10052W        W26186  14.461  13.214  15.145 -0.4131 -0.1411  0.1524
10053W        W26187   1.986   2.414   0.081  0.2658  0.1190 -0.1820
10054W        W26188   6.610   9.381  10.704 -0.1257  0.0561 -0.2352
10055W        W26189  11.858   6.822  16.454  0.1680 -0.3284 -0.1450
10056W        W26190   0.229  16.513   0.825  0.0396 -0.0075 -0.0094
10057W        W26191  17.336   9.553   3.492 -0.0322  0.1502 -0.2482
10058W        W26192  14.297   0.656  14.420 -0.4991 -0.1374 -0.0810
10059W        W26193  13.126   4.553   4.133  0.2272  0.0710  0.1635
10060W        W26194  11.975  12.690   0.478 -0.1786  0.0569  0.0640
10061W        W26195   2.379  10.168  12.694 -0.2437 -0.2858  0.2657
10062W        W26196   0.542  10.831  13.914 -0.2108  0.0197  0.1605
10063W        W26197  12.672   4.118   1.261 -0.1409  0.0916  0.1900
10064W        W26198   3.611  11.048  13.344  0.0714  0.2223 -0.0135
10065W        W26199  15.695  16.893  15.777 -0.0297  0.1200 -0.3138
10066W        W26200  10.446   8.977  14.340  0.1751  0.0928  0.2039
10067W        W26201   3.224   2.536  14.223  0.1623  0.0568  0.0867
10068W        W26202   6.288  16.250   2.052 -0.0383  0.1297  0.0659
10069W        W26203   3.966   2.466  15.626 -0.0156  0.2275  0.3538
10070W        W26204   4.725  10.593   0.459 -0.1094 -0.1323 -0.0429
10071W        W26205   7.996  13.431  13.875  0.0766 -0.2501 -0.5462
10072W        W26206   5.455  10.727  16.240 -0.0203  0.1068  0.0883
10073W        W26207   1.215  15.937  13.122 -0.3689  0.3233 -0.0222
10074W        W26208  14.059   9.009  13.926 -0.0336 -0.0007 -0.1684
10075W        W26209  17.900   4.286   4.988  0.1713  0.0235 -0.1363
10076W        W26210   3.065   0.586   2.788 -0.4439  0.1639 -0.0787
10077W        W26211   9.013   2.261   5.146  0.1696 -0.4658  0.2094
10078W        W26212   5.496  13.610  15.083  0.1355  0.1455  0.0622
10079W        W26213   5.734   5.190   2.233  0.0966 -0.0581 -0.4421
10080W        W26214  17.902   8.961   4.294  0.1588  0.0387 -0.1548
10081W        W26215  13.689  16.756   3.325 -0.1850 -0.0260 -0.3296
10082W        W26216  11.520  17.576   6.441 -0.3761 -0.0457  0.2270
10083W        W26217   9.744   6.144   1.950  0.2131  0.0541 -0.2025
10084W        W26218   8.534  10.740   2.580 -0.1382 -0.2741 -0.2512
10085W        W26219  13.818  10.714   3.213  0.0204 -0.0968  0.0802
10086W        W26220   0.973  12.524  14.341 -0.0998  0.1839  0.3789
10087W        W26221   1.122   1.299  11.782 -0.0490 -0.0913 -0.1730
10088W        W26222  17.037  13.837   2.122 -0.0687  0.0705  0.1833
10089W        W26223  14.820  17.711   0.664  0.1314  0.0754  0.3560
10090W        W26224   3.816   6.334  13.356  0.1486  0.1187  0.1976
10091W        W26225  15.321   0.346   2.977  0.1492 -0.0499  0.1706
10092W        W26226   9.069   2.815   5.123  0.1926  0.1445  0.1325
10093W        W26227  15.669   7.474  16.376  0.0393  0.1074 -0.1838
10094W        W26228   2.157  14.775  13.208 -0.1455 -0.1427 -0.0424
10095W        W26229  10.513   7.132  12.953 -0.2680 -0.3920 -0.2063
10096W        W26230   5.385   7.956   4.159 -0.1320 -0.0427  0.0944
10097W        W26231  14.225   0.880   3.890  0.0386  0.1304  0.0962
10098W        W26232   8.446   7.111   0.715 -0.0148  0.0709  0.1304
10099W        W26233   5.990  13.479   1.069 -0.1657 -0.0472  0.0090
10100W        W26234   4.650  11.447   1.923 -0.0338  0.0007 -0.1117
10101W        W26235   0.433   1.121  14.518  0.2452 -0.0138  0.0143
10102W        W26236   7.587   2.796   2.957  0.1821 -0.1064  0.0885
10103W        W26237  11.221  15.249  15.660 -0.0824  0.1251 -0.0585
10104W        W26238   7.839   9.923  13.656 -0.2441 -0.0544  0.0340
10105W        W26239   6.458   9.462   4.022  0.2556  0.0423 -0.0057
10106W        W26240   7.258   4.605   3.959 -0.2491 -0.0998 -0.1235
10107W        W26241   5.712  12.177  16.392 -0.0197 -0.0123 -0.0587
10108W        W26242  17.293  12.714   2.859  0.2957  0.2587 -0.1229
10109W        W26243   6.802  12.372  11.429  0.1376  0.0719 -0.2709
10110W        W26244   4.383  11.955  12.280 -0.0612  0.0867  0.0549
10111W        W26245  10.528   2.111   6.308  0.0558  0.0033 -0.1716
10112W        W26246   0.968  16.299   3.896 -0.2263 -0.2458  0.1709
10113W        W26247   7.259   2.895   2.550 -0.0177  0.1517  0.2572
10114W        W26248   5.355  10.615  14.552  0.1914  0.0153  0.0440
10115W        W26249   6.180   3.351  16.089 -0.2119 -0.1511 -0.0968
10116W        W26250  17.331  14.125  12.820 -0.4438 -0.2969  0.1616
10117W        W26251   9.722  10.162   0.399 -0.0808  0.0843 -0.1969
10118W        W26252  11.836  15.876   2.492  0.1420 -0.0914  0.2382
10119W        W26253   0.386   9.957  12.661 -0.1357  0.0432  0.1524
10120W        W26254   5.909   3.426   5.905 -0.0723  0.2389 -0.1333
10121W        W26255  15.770   7.558  12.443  0.0641 -0.0217 -0.4287
10122W        W26256  14.288   7.911  11.708 -0.0467 -0.1707  0.1794
10123W        W26257   7.174  10.581   4.131 -0.2053  0.1220 -0.0728
10124W        W26258   2.743  10.373   1.708  0.2909 -0.1431 -0.2739
10125W        W26259   2.071   5.770  12.932 -0.0978 -0.1090  0.1236
10126W        W26260   0.648  11.881  13.254 -0.2987 -0.0616  0.2545
10127W        W26261  10.371   4.687   5.592  0.2898 -0.0881 -0.0601
10128W        W26262  14.629  14.716   6.343  0.0536  0.4349  0.0311
10129W        W26263   1.462   6.733  14.966  0.0134 -0.1330 -0.2097
10130W        W26264  11.990   2.749   4.729  0.1037 -0.1550  0.0368
10131W        W26265   3.184   2.736  15.131 -0.0635 -0.0844 -0.1111
10132W        W26266   5.081   7.154  11.693  0.0826 -0.0398  0.0561
10133W        W26267   6.048  11.080   0.974  0.0609 -0.4060  0.0628
10134W        W26268   3.383  17.514   0.316 -0.1000 -0.3319  0.1600
10135W        W26269  10.929   5.306   3.156  0.0985 -0.0692  0.2853
10136W        W26270  13.056   6.415   4.037 -0.1729 -0.0498 -0.2534
10137W        W26271   8.108  14.660  10.951 -0.2517 -0.0327 -0.0221
10138W        W26272   6.659  15.324   0.915 -0.0382 -0.1520  0.0667
10139W        W26273  13.438   4.318   3.773  0.0865  0.2040 -0.1389
10140W        W26274  17.073  18.113  12.375  0.3322 -0.3052 -0.2953
10141W        W26275  16.053   1.731  12.231 -0.3879  0.1149 -0.0982
10142W        W26276   8.700  11.046  12.545  0.2221 -0.1045 -0.0480
10143W        W26277  10.094  16.103  10.644 -0.0306 -0.0873 -0.0323
10144W        W26278   9.294   0.379   0.391  0.0064 -0.1405 -0.1206
10145W        W26279  17.653  16.371   0.469  0.1084 -0.0148 -0.0362
10146W        W26280  17.242  13.959  16.311  0.1690 -0.1686 -0.1557
10147W        W26281  13.923  17.703  13.016  0.0918 -0.1532 -0.1610
10148W        W26282   7.719  14.652   2.075 -0.2370 -0.4568  0.1576
10149W        W26283   7.205  16.999   1.522 -0.4187  0.0154  0.0211
10150W        W26284  15.586  17.534  14.267 -0.4386 -0.1242 -0.5243
10151W        W26285  12.071   5.734  11.656  0.3894 -0.1495  0.1808
10152W        W26286  15.098   2.679  14.738  0.3194  0.2093 -0.0189
10153W        W26287  15.339  16.149   2.680 -0.4379 -0.1018 -0.1431
10154W        W26288   0.781   1.790   3.364  0.2775 -0.1031 -0.2590
10155W        W26289  14.480   5.450   3.498 -0.1711  0.1934 -0.3080
10156W        W26290   2.604   5.987  11.475 -0.1595 -0.0894  0.1493
10157W        W26291  17.150   8.708  14.575 -0.2530 -0.2411 -0.0322
10158W        W26292   1.787   4.260  12.065 -0.1404  0.1224 -0.1419
10159W        W26293   2.467   3.061   3.015  0.0739 -0.4506 -0.0518
10160W        W26294  10.601  10.131  15.774 -0.3135 -0.3587 -0.1436
10161W        W26295   9.642  14.126  12.726  0.1306  0.1588  0.1583
10162W        W26296   4.276  11.221  13.959  0.1404  0.1849 -0.0060
10163W        W26297   9.708   1.523  13.926  0.0892  0.1606  0.1125
10164W        W26298  11.854   9.976  11.934  0.1854  0.0795 -0.0054
10165W        W26299  14.914  18.064   5.640 -0.2042 -0.0400  0.0567
10166W        W26300  10.584   6.625   5.267 -0.0422 -0.1062 -0.2786
10167W        W26301   4.695   5.013  14.708 -0.0420 -0.1118 -0.2437
10168W        W26302   3.268   3.821   5.201  0.2417 -0.0882 -0.2574
10169W        W26303   6.088   9.260   0.735  0.1619 -0.1327  0.2598
10170W        W26304   6.002   9.051   5.384  0.0292  0.0147 -0.1355
10171W        W26305  13.007  17.838   1.548  0.6022  0.1871 -0.1808
10172W        W26306  11.426  15.220  14.770  0.1364 -0.1123 -0.0692
10173W        W26307   2.271   0.167  14.659  0.1756 -0.0412 -0.1981
10174W        W26308  18.054  17.350   2.281  0.1890 -0.0805 -0.1025
10175W        W26309   0.210  12.169  13.940  0.1477  0.1625  0.0645
10176W        W26310  11.739   0.881  14.941  0.0100 -0.0308 -0.0506
10177W        W26311   6.062  10.324  12.447 -0.0763 -0.1488 -0.5287
10178W        W26312  12.792   2.620  15.998 -0.3525  0.1925  0.0978
10179W        W26313   6.229  11.153   0.299 -0.1332  0.2172  0.1994
10180W        W26314   6.062   6.961  13.654  0.2375  0.1532  0.1233
10181W        W26315   9.444  14.348   3.263  0.2120  0.0895 -0.2719
10182W        W26316  12.848  14.152   0.650  0.1676  0.1099  0.1196
10183W        W26317   4.837   4.556   3.216  0.0934 -0.1856 -0.3350
10184W        W26318  13.626  15.577   0.307 -0.0333 -0.1367 -0.1937
10185W        W26319  17.583  15.534  12.341 -0.2984 -0.0645 -0.0267
10186W        W26320  15.711   0.577   3.941  0.2788 -0.0216  0.3221
10187W        W26321   9.881   3.123   4.815 -0.0137  0.1123 -0.0180
10188W        W26322  15.146   9.125   1.519 -0.1045 -0.0728  0.2106
10189W        W26323   3.141   1.312  12.813  0.1889  0.0240  0.2774
10190W        W26324   1.313  12.462   0.536  0.0591  0.0801  0.0175
10191W        W26325   5.527  12.102  13.769  0.0567  0.0299  0.0067
10192W        W26326   7.680  15.959   0.600  0.0518 -0.2120  0.1150
10193W        W26327   1.245  10.887   1.766  0.1236  0.2027 -0.2103
10194W        W26328   9.954   0.432  12.648  0.0778 -0.0836  0.1563
10195W        W26329   7.095   3.739   4.002  0.0917  0.0435 -0.0867
10196W        W26330   4.714   6.106  16.187 -0.1946  0.4150  0.2904
10197W        W26331  12.728  16.988   4.099  0.0337  0.1027 -0.0560
10198W        W26332   4.181  16.902   1.138  0.0439 -0.1851  0.2960
10199W        W26333  16.840  11.133   3.012  0.0371  0.2318  0.0770
10200W        W26334   4.767  16.394   3.086 -0.1382 -0.2309 -0.3165
10201W        W26335  16.949  12.218   0.276  0.0142 -0.0297  0.3044
10202W        W26336  15.044  16.039   4.566 -0.1658 -0.0175 -0.1904
10203W        W26337  12.190   0.259   0.202 -0.0328  0.0281  0.2019
10204W        W26338  13.125   4.376  12.163  0.1169 -0.0267  0.2082
10205W        W26339   6.544  13.590   2.605 -0.1825 -0.0621 -0.1995
10206W        W26340   0.542   6.030   4.953  0.2030 -0.2263  0.1694
10207W        W26341  15.041  17.817   5.217  0.1185  0.1773  0.0224
10208W        W26342   8.344   8.346  13.343  0.4712 -0.1816  0.1587
10209W        W26343   0.319   2.682   2.427  0.0938 -0.1400 -0.0570
10210W        W26344   0.137   7.764   3.565 -0.0005  0.0545 -0.1299
10211W        W26345   4.599  13.170   2.761 -0.0895  0.1011  0.0345
10212W        W26346  13.990  16.195  15.800 -0.3255 -0.1359 -0.2887
10213W        W26347   3.080   7.397   4.542  0.0700 -0.0201  0.3453
10214W        W26348  12.380   1.897  14.802 -0.0496  0.1103  0.0999
10215W        W26349   4.685   7.137   1.058  0.0165 -0.4758  0.2502
10216W        W26350  13.512   1.263  12.245  0.1804 -0.0657  0.2953
10217W        W26351   8.272   0.792   3.280  0.1063  0.0734  0.5028
10218W        W26352  14.268   4.418  14.661  0.1132  0.2242  0.0334
10219W        W26353   9.673   1.882  11.580  0.2378  0.0814  0.3589
10220W        W26354   6.798   0.304   1.612 -0.1065 -0.1350 -0.2926
10221W        W26355  13.720  15.138  14.098  0.2601  0.3039 -0.0550
10222W        W26356   2.461   5.465   0.054 -0.1600 -0.1443 -0.2049
10223W        W26357   3.518  17.228   2.651 -0.0066 -0.1132 -0.0339
10224W        W26358  14.845  10.635  14.851  0.0299 -0.0078  0.0517
10225W        W26359   4.173   2.827  15.288  0.0680 -0.0137  0.0584
10226W        W26360   3.695   3.115  16.410 -0.1836  0.0389 -0.2261
10227W        W26361  10.226   4.019   0.047  0.1823  0.1026  0.2506
10228W        W26362   9.874  12.271  16.415  0.0081  0.0709  0.0270
10229W        W26363  13.569  10.354  11.846  0.2235  0.0348  0.2356
10230W        W26364   2.595   3.423   3.869  0.2275  0.0979 -0.1065
10231W        W26365   4.328  13.552   3.418 -0.2538 -0.3134 -0.3080
10232W        W26366   2.546  15.919   3.420 -0.0516  0.2597 -0.0871
10233W        W26367   8.738  13.166  11.780  0.1318 -0.1887 -0.1360
10234W        W26368   0.682  14.784   5.251 -0.0366 -0.0806 -0.2545
10235W        W26369   7.344  17.223   2.027  0.0177  0.2411 -0.2524
10236W        W26370  15.375   2.751   1.810 -0.0983 -0.0657  0.1749
10237W        W26371   8.289  10.181   0.177 -0.1362 -0.5438 -0.1430
10238W        W26372   0.607   0.608  12.370 -0.0334 -0.2629  0.3636
10239W        W26373   4.705   3.957  14.316 -0.0301 -0.2277 -0.1376
10240W        W26374  16.317  11.431   0.543 -0.0416  0.2933 -0.0920
10241W        W26375   9.229  10.244   3.039 -0.1323  0.1864  0.0722
10242W        W26376   6.031   4.889  13.006  0.0890  0.0107  0.1333
10243W        W26377   1.356  11.519   2.501  0.0367 -0.0067  0.1972
10244W        W26378  10.593   3.904   1.097  0.1900  0.1214  0.0986
10245W        W26379   6.295  13.987   2.703 -0.2835 -0.0324 -0.1836
10246W        W26380  11.648   1.773  14.209  0.2054  0.1374  0.2580
10247W        W26381   9.022   6.274   0.297  0.0363  0.0799 -0.0420
10248W        W26382  17.429   7.544   2.731  0.1985  0.2036  0.1113
10249W        W26383   9.866  16.038   3.471 -0.4235 -0.1830  0.0775
10250W        W26384  17.159   3.844   1.177  0.2600 -0.0528  0.1074
10251W        W26385   4.820   3.598   1.400  0.0135  0.1597 -0.2567
10252W        W26386  12.428   6.759  11.409  0.1242  0.0210  0.0629
10253W        W26387  12.932  16.239  13.364  0.0584 -0.0229  0.3188
10254W        W26388   3.034  14.224   2.868  0.0514  0.2064 -0.0500
10255W        W26389  14.557   4.221  12.696 -0.1626  0.0970  0.0320
10256W        W26390   0.173   8.241   4.467  0.0846  0.0315 -0.0882
10257W        W26391   9.582  14.920   5.268 -0.2334 -0.1359  0.0723
10258W        W26392  13.439   4.637   0.688  0.2523 -0.0448  0.4919
10259W        W26393   1.899  15.587  13.097 -0.0800 -0.0636 -0.0759
10260W        W26394   5.880   2.074  15.370  0.1691  0.2804  0.1663
10261W        W26395  11.885  10.452  13.176 -0.0846 -0.4293  0.1242
10262W        W26396  16.093  14.383   5.211 -0.1366 -0.2069  0.0313
10263W        W26397   9.686  13.851  13.284  0.0220 -0.0196 -0.1427
10264W        W26398   6.287  17.445   0.067 -0.2163  0.0025 -0.1201
10265W        W26399   1.203  16.307   1.632 -0.2693  0.1390  0.1009
10266W        W26400  14.574  16.401  13.412  0.1058 -0.0533 -0.0847
10267W        W26401   0.046  13.044   3.704 -0.1002 -0.2761 -0.1811
10268W        W26402   5.827   0.780   2.599  0.0288 -0.2274  0.2951
10269W        W26403   3.915   4.249  13.168 -0.1277 -0.2806  0.1778
10270W        W26404   4.613   6.447   2.809 -0.1408  0.1400  0.0452
10271W        W26405   8.089  17.353   3.073 -0.4467 -0.1089  0.0092
10272W        W26406   4.671   4.431   5.250  0.0842 -0.0995  0.1982
10273W        W26407  11.565   3.259  12.378 -0.1074 -0.1295 -0.0327
10274W        W26408   5.859   0.101   3.632 -0.1831 -0.2584 -0.5991
10275W        W26409  14.218  11.614   2.275 -0.0737  0.0331  0.3515
10276W        W26410  18.108   8.812  13.157 -0.1726 -0.1231 -0.1195
10277W        W26411  16.398  16.702   2.832 -0.0949  0.1936 -0.2669
10278W        W26412   3.594   5.217   1.252 -0.0197  0.0156 -0.1546
10279W        W26413  12.793   7.881  14.276 -0.0445  0.2863 -0.0977
10280W        W26414  15.528  17.084  16.223  0.2815 -0.0621  0.0042
10281W        W26415  10.310  13.409   2.592 -0.2536 -0.2192 -0.1402
10282W        W26416  12.167   1.907   4.759 -0.2375 -0.3060 -0.2262
10283W        W26417  12.662  10.321  15.663  0.1358 -0.0408 -0.2689
10284W        W26418  14.172  12.517   1.893  0.1411 -0.0331 -0.1908
10285W        W26419  17.720   9.855   3.385 -0.1411 -0.1401 -0.1068
10286W        W26420   6.640  11.400  15.668 -0.1646  0.3254 -0.3286
10287W        W26421  13.508  13.211   6.276  0.2195 -0.2187 -0.0070
10288W        W26422   9.704  17.353   1.869  0.0286  0.3198  0.2427
10289W        W26423  14.155   4.106   5.641 -0.0896 -0.0579 -0.2617
10290W        W26424  14.009   4.643   4.525 -0.0459  0.0084 -0.1239
10291W        W26425   6.830   6.674  12.650 -0.0847  0.0070 -0.1846
10292W        W26426  16.773  11.676   0.354  0.1777  0.2021 -0.0996
10293W        W26427  14.628  12.696   3.821  0.0519  0.0051 -0.3059
10294W        W26428   1.332  15.875   2.455 -0.1702 -0.1271  0.2061
10295W        W26429  17.799  14.977   2.957 -0.0563 -0.3350  0.0401
10296W        W26430  10.521  13.932   5.258  0.1491 -0.1392  0.1598
10297W        W26431  14.438  10.408  12.625 -0.0450 -0.0508 -0.0875
10298W        W26432   9.651  11.184  13.398 -0.0224 -0.0542 -0.1837
10299W        W26433   7.404   5.547  13.038  0.1979  0.3938  0.0202
10300W        W26434   5.059   6.481   1.286  0.0182 -0.1682 -0.1699
10301W        W26435  12.523   8.344  16.330  0.0469 -0.4741 -0.0867
10302W        W26436  12.365   9.925  11.266 -0.1493  0.0763 -0.0475
10303W        W26437   8.315  15.914  14.732 -0.4044  0.0634 -0.1504
10304W        W26438  10.231   8.049   1.826  0.5471  0.0381  0.0566
10305W        W26439   2.444   0.048   2.093 -0.0221  0.0651 -0.2445
10306W        W26440   0.688   7.759  15.359  0.0939  0.0374 -0.3434
10307W        W26441  17.883  15.346   5.195 -0.1227 -0.1172  0.3579
10308W        W26442   0.548  12.289  15.055 -0.4213 -0.2453  0.1067
10309W        W26443  16.599   2.569  12.047 -0.1400 -0.1009 -0.1722
10310W        W26444  10.694   1.735   0.668  0.2999 -0.1993  0.1064
10311W        W26445  10.926  12.509   4.167  0.0968 -0.1615 -0.1557
10312W        W26446  14.974  12.246   6.244 -0.1419  0.0144 -0.0454
10313W        W26447   4.288   7.526  12.071 -0.1099 -0.2528 -0.0687
10314W        W26448   7.401  17.688  11.644 -0.1283  0.0850 -0.1801
10315W        W26449  11.165   6.939   3.264 -0.2305 -0.0170  0.1297
10316W        W26450  18.090   7.055   3.788  0.1922 -0.1930  0.0996
10317W        W26451  14.116   4.639   2.384  0.0644 -0.1738  0.0449
10318W        W26452   4.572   2.674  16.108 -0.0841 -0.0525 -0.0111
10319W        W26453  13.146  17.862  12.477 -0.0304  0.2225  0.1437
10320W        W26454   1.696  14.802   0.668  0.1833  0.1374  0.0543
10321W        W26455  12.633  12.264   2.489  0.0916 -0.0999 -0.3585
10322W        W26456  12.751   2.166   0.315  0.1394  0.2118  0.1891
10323W        W26457   7.378   2.400   2.727  0.0035 -0.0474  0.0036
10324W        W26458  10.805   5.344   4.468 -0.2121 -0.1341  0.0515
10325W        W26459   8.115  10.618  12.956  0.1300  0.3728  0.2074
10326W        W26460   4.167   8.685   3.217  0.1844 -0.2491 -0.2873
10327W        W26461   0.960   3.983   2.168 -0.0385 -0.4811  0.2273
10328W        W26462   6.491  17.530  13.735 -0.2083 -0.0274  0.1002
10329W        W26463  16.220   1.217   0.007 -0.1789 -0.2252 -0.1575
10330W        W26464   4.142  14.042  14.193  0.0159 -0.0087 -0.0168
10331W        W26465   3.055  10.887  11.232 -0.0354  0.0229 -0.2079
10332W        W26466   5.685   8.662   3.126 -0.2064  0.0383 -0.0575
10333W        W26467  10.060   1.454  11.629 -0.1496 -0.2154 -0.2055
10334W        W26468   6.845   5.283   0.671 -0.1205 -0.0836  0.3265
10335W        W26469   3.684   7.210   2.861 -0.0643 -0.0689  0.0502
10336W        W26470   3.596   3.419   2.872 -0.0847  0.0533 -0.3954
10337W        W26471   7.736   1.703   4.670  0.2603 -0.0762 -0.2603
10338W        W26472   2.555  16.574   2.032 -0.0934  0.0282 -0.1669
10339W        W26473  13.637  13.483  16.361  0.1932  0.1379 -0.2228
10340W        W26474   3.744   0.834  12.464  0.0819 -0.3132  0.0696
10341W        W26475   0.068  13.703  15.259 -0.1935  0.2729  0.0886
10342W        W26476  11.850   4.169   2.432 -0.1683  0.2216  0.2201
10343W        W26477   9.202   4.185  12.099  0.2740 -0.1589  0.3195
10344W        W26478   9.051  17.250   0.821 -0.2365 -0.1010 -0.0723
10345W        W26479  14.649   8.051  12.438 -0.0455 -0.0246  0.1024
10346W        W26480   5.322  14.274  13.068 -0.2894 -0.1819 -0.4234
10347W        W26481  18.014   8.336   4.862  0.1152  0.3213 -0.0563
10348W        W26482   2.037   9.013  12.886  0.0786 -0.1799 -0.3194
10349W        W26483   2.122  16.033   3.628 -0.2107 -0.1712  0.0666
10350W        W26484  17.701  14.011   3.530  0.2231  0.0352  0.0038
10351W        W26485   8.234   0.736   6.160  0.2292  0.0646  0.0988
10352W        W26486  16.456   0.769  16.521 -0.0631  0.0425 -0.1074
10353W        W26487   6.226  15.326   0.164  0.2512 -0.0481 -0.1005
10354W        W26488  11.944  16.337   2.897  0.2020  0.1325  0.0341
10355W        W26489   1.933   4.942  12.456  0.1127 -0.0553 -0.1349
10356W        W26490   0.426  14.742   1.913  0.0101 -0.3070  0.1514
10357W        W26491  16.689   9.309   3.362 -0.1619  0.1973 -0.0181
10358W        W26492  10.228   2.781  11.177  0.0339  0.0579  0.3986
10359W        W26493   4.228   6.472  16.390  0.0536 -0.1534 -0.2809
10360W        W26494  15.683  14.469   1.965 -0.2442  0.2574 -0.2335
10361W        W26495  16.003   1.492  14.368 -0.3115  0.2017 -0.1039
10362W        W26496   4.963   5.287   5.878  0.1635 -0.0948 -0.0834
10363W        W26497   8.412   5.565   1.357  0.3066 -0.1458 -0.0287
10364W        W26498  10.507  16.878   1.996 -0.1067 -0.1021 -0.0537
10365W        W26499  13.848   5.602   1.665 -0.2146  0.3893 -0.0520
10366W        W26500  17.275   8.016   4.626  0.2681  0.2301 -0.1905
10367W        W26501  17.119  14.872  13.630  0.2332 -0.0430  0.1908
10368W        W26502  16.500  15.212  12.139 -0.1125 -0.1248 -0.1547
10369W        W26503  13.890   6.967  15.322  0.1745  0.1525 -0.1517
10370W        W26504  17.710  14.731   1.045  0.0617  0.0151 -0.1499
10371W        W26505   8.432   3.995   2.559 -0.1087 -0.4032  0.1998
10372W        W26506  10.630  16.113   0.140  0.1802 -0.0364 -0.0275
10373W        W26507  17.419   2.787  14.974 -0.0302 -0.0928  0.1511
10374W        W26508   7.963   6.580   1.233 -0.1255  0.3496  0.0128
10375W        W26509  10.406  17.069   2.491 -0.2149  0.1968  0.1919
10376W        W26510  12.894   2.424   4.515 -0.2109  0.0332 -0.0983
10377W        W26511  17.935  14.114   5.146  0.2377  0.1965 -0.1937
10378W        W26512  10.745   7.484  15.231  0.0014 -0.2831 -0.1486
10379W        W26513   5.739  12.910   0.809 -0.5096  0.1132 -0.4718
10380W        W26514  15.807   8.508   5.667  0.4209 -0.2283 -0.2266
10381W        W26515  13.756   6.213  15.746 -0.2608  0.1297 -0.1255
10382W        W26516   3.848   4.875   3.583 -0.0619  0.2025  0.0400
10383W        W26517   5.668  13.471   2.448 -0.1927  0.1249 -0.0277
10384W        W26518  10.665   5.468  13.041 -0.1401  0.0285  0.2370
10385W        W26519   0.481   0.597  12.941  0.0297  0.3856  0.1808
10386W        W26520   1.068   5.190  12.344 -0.1847 -0.2504 -0.0122
10387W        W26521   7.890   5.431  13.285  0.1282  0.1026 -0.1980
10388W        W26522   7.014  12.896   4.758  0.0002 -0.1413 -0.1548
10389W        W26523  10.905   6.340   0.191 -0.0878 -0.1628 -0.2432
10390W        W26524  14.838   0.676  11.318  0.0354  0.0385 -0.0562
10391W        W26525   9.848  15.495  14.915  0.2153 -0.0190  0.1264
10392W        W26526   2.853   4.103  14.445 -0.0406  0.1109  0.2547
10393W        W26527  14.997  10.818  14.381  0.3122  0.0807  0.3373
10394W        W26528  16.509  15.675  13.634 -0.0257 -0.2878  0.0658
10395W        W26529   8.779  16.413   0.318 -0.0048 -0.1387  0.2140
10396W        W26530  18.020  11.137  13.173  0.1071  0.2940  0.0584
10397W        W26531  12.523   8.037  15.155  0.0289  0.1503  0.0243
10398W        W26532  12.222  17.915  13.218  0.0057 -0.4227  0.1099
10399W        W26533   4.843  11.038   2.175 -0.1819 -0.0687 -0.2024
10400W        W26534   1.504   2.044  12.869 -0.2861 -0.1060  0.2186
10401W        W26535  13.952  13.048  13.028 -0.1300 -0.0468 -0.4040
10402W        W26536   6.618  13.882  12.528 -0.1365  0.2116  0.0875
10403W        W26537   4.404  17.257  16.474  0.0756 -0.1633 -0.1597
10404W        W26538   4.810   5.889  12.376  0.2633 -0.0980 -0.0374
10405W        W26539   1.907   9.055   0.757 -0.0885  0.1221 -0.3917
10406W        W26540   4.326  13.460  11.495  0.1494  0.0316  0.0656
10407W        W26541   7.895  14.623  12.901  0.1646  0.0771  0.1523
10408W        W26542  18.119  17.001   6.748 -0.1288  0.1496 -0.0933
10409W        W26543   8.810   1.537   4.833  0.0145  0.2753 -0.0515
10410W        W26544   5.051  13.713  14.633  0.0476 -0.3333  0.0451
10411W        W26545  18.115  11.897   0.545 -0.4029  0.3131  0.1064
10412W        W26546   7.054  12.522   5.543 -0.0052  0.2457  0.2596
10413W        W26547  12.192   7.449  15.935  0.0861  0.0404 -0.2953
10414W        W26548   7.725   4.535  15.964 -0.0231  0.0056  0.0155
10415W        W26549   6.409   4.506  16.021 -0.0073 -0.0863  0.0088
10416W        W26550  16.277  18.050   2.082  0.0939 -0.0299 -0.1302
10417W        W26551   7.290   8.233   5.283  0.3279  0.1398  0.1451
10418W        W26552   2.895   0.514   5.909  0.2020 -0.2970  0.0098
10419W        W26553   6.914   3.864   0.792  0.1023  0.2280 -0.0619
10420W        W26554  12.473  17.020   5.924 -0.0611 -0.0431 -0.1073
10421W        W26555   1.098   8.048   3.361  0.3050  0.1433  0.0008
10422W        W26556   9.249  17.284  14.374  0.4004  0.0681  0.1497
10423W        W26557  13.073   7.419  16.135  0.1760 -0.0406  0.1191
10424W        W26558  16.241  15.846  16.394  0.0041 -0.2306  0.0432
10425W        W26559  15.106   9.190   5.553  0.3299  0.1410 -0.0134
10426W        W26560  13.478  10.255  13.674  0.0975 -0.0198 -0.0102
10427W        W26561  14.546  17.268   0.702 -0.4073 -0.2113  0.2773
10428W        W26562  17.939  13.276   1.031 -0.1366 -0.0044  0.1062
10429W        W26563   3.588   0.800   6.183  0.2139  0.1104 -0.1977
10430W        W26564  15.706   5.118  11.046 -0.0035  0.0480 -0.2435
10431W        W26565  11.035   8.856  15.052  0.0709  0.2331  0.0724
10432W        W26566  14.854  16.847   0.921 -0.2563  0.3015 -0.1688
10433W        W26567   1.281  16.376   2.175  0.3473 -0.3103 -0.2438
10434W        W26568   8.029   3.750  12.795 -0.1845  0.4050 -0.3094
10435W        W26569   8.749   8.586   0.404  0.0129 -0.2470 -0.4512
10436W        W26570  15.989   1.305   6.445  0.1268  0.4880 -0.3090
10437W        W26571   7.093   9.630   2.229 -0.3783 -0.1901  0.4713
10438W        W26572  14.040   5.518   3.628  0.0954 -0.2959 -0.2034
10439W        W26573   9.960   7.739  10.411 -0.0847  0.4302  0.0930
10440W        W26574   7.779  16.549   2.655 -0.3966  0.0553  0.2056
10441W        W26575   6.415  18.028   5.936 -0.2625 -0.2267 -0.2047
10442W        W26576  10.342  13.829   1.944  0.3715 -0.3315  0.0103
10443W        W26577  14.296   5.116  15.347 -0.1501  0.0148 -0.1368
10444W        W26578  17.937   2.760   4.210  0.1976 -0.1846 -0.1459
10445W        W26579   2.294  17.101   0.871 -0.0413  0.1271 -0.1492
10446W        W26580   5.968  14.187  14.362 -0.0085 -0.1039 -0.0445
10447W        W26581   8.211   3.561  11.896 -0.0298  0.1205  0.1158
10448W        W26582   1.448   6.916  13.863 -0.3901 -0.0433  0.0501
10449W        W26583   0.638  12.914  14.338  0.1608  0.0613 -0.0295
10450W        W26584  14.269  14.675  15.603  0.0724  0.2659 -0.1390
10451W        W26585   1.963   9.237   5.961 -0.0174 -0.0584 -0.3933
10452W        W26586   2.635  15.225  13.855  0.1318 -0.0149 -0.1175
10453W        W26587   8.270   1.440  13.590 -0.0918 -0.0971 -0.0681
10454W        W26588   6.350   1.158  15.627  0.1897 -0.0366 -0.0228
10455W        W26589  11.360  10.996   4.411 -0.0195 -0.1009 -0.1616
10456W        W26590   3.900  13.263   3.461  0.1031 -0.0739 -0.3475
10457W        W26591   4.832  12.658   4.732 -0.2924 -0.0790  0.2494
10458W        W26592  14.913  10.008   3.691 -0.3050  0.0270  0.0367
10459W        W26593   4.440   3.253  13.796 -0.0213 -0.1293 -0.0728
10460W        W26594  15.277   6.535   0.793  0.0991 -0.2839  0.0223
10461W        W26595   7.066   2.914  15.551  0.3142  0.1838 -0.0708
10462W        W26596   6.523   5.192  13.822  0.4909  0.1928  0.0167
10463W        W26597   3.118   9.136  16.075  0.4037 -0.0465  0.0267
10464W        W26598   0.534  10.526   4.213 -0.0844 -0.1756 -0.1674
10465W        W26599  15.881  12.477  14.244  0.3011 -0.0939  0.0672
10466W        W26600   6.350   5.355   0.700  0.2126 -0.0831 -0.0156
10467W        W26601   2.526   2.057  14.874 -0.0361 -0.1437 -0.2188
10468W        W26602   3.052   6.413   5.002  0.4697 -0.0848 -0.0145
10469W        W26603  13.611  10.089  12.230 -0.3227 -0.0114  0.2913
10470W        W26604   2.060  11.538  13.106  0.1971  0.3022  0.2779
10471W        W26605   3.702   7.795  15.349 -0.1459  0.2490 -0.2722
10472W        W26606   0.739  16.507   6.234 -0.1568 -0.2014  0.1723
10473W        W26607   9.718  17.737  16.171 -0.2824  0.0785  0.1090
10474W        W26608   2.308  15.900   0.757  0.3444 -0.0529 -0.0203
10475W        W26609  17.362   9.252   4.884 -0.2336  0.0839  0.0991
10476W        W26610   9.220   6.187   4.695  0.0572  0.1776  0.1720
10477W        W26611  13.782  16.513  11.770 -0.1376  0.0503  0.0797
10478W        W26612  17.740   1.766  13.494 -0.0919  0.1274  0.1040
10479W        W26613  13.068   5.502  10.005  0.1887  0.0787 -0.0289
10480W        W26614  12.571  14.652   2.501  0.0277  0.0504  0.1289
10481W        W26615  11.984   6.076   4.120  0.0505  0.0816 -0.2885
10482W        W26616   8.418   5.614  13.868  0.2610  0.1020  0.3292
10483W        W26617  14.652   7.784  10.750  0.0214 -0.2373  0.0724
10484W        W26618   5.745  15.789  13.233  0.2135 -0.2044  0.1069
10485W        W26619  15.154  10.670  15.972  0.0726 -0.2647 -0.1160
10486W        W26620  17.727   9.264  15.998 -0.0405 -0.1216 -0.0537
10487W        W26621   5.276   2.785  16.464  0.1007  0.1269 -0.0292
10488W        W26622   1.424  15.895   1.870  0.3677  0.2338  0.0242
10489W        W26623  16.619  14.502   5.478 -0.2907 -0.1000  0.2004
10490W        W26624   5.214   8.050   1.704 -0.2566  0.1142 -0.5311
10491W        W26625  15.293   2.402   0.125 -0.1186  0.0069 -0.1688
10492W        W26626   4.332   0.527  12.832  0.0760  0.1142  0.0019
10493W        W26627   8.743  13.138  15.040  0.0679  0.1189  0.1339
10494W        W26628  13.643   0.163   2.726  0.2479 -0.2582 -0.0853
10495W        W26629  15.150   0.930  15.685  0.1059 -0.0475 -0.3378
10496W        W26630  13.852   3.996   6.119  0.1274 -0.3553  0.1237
10497W        W26631   3.883  18.143  14.106 -0.3800  0.1785  0.0515
10498W        W26632   4.207   1.639   5.268 -0.2454 -0.3943 -0.1601
10499W        W26633  15.617   1.918  15.277 -0.2070  0.0440 -0.1792
10500W        W26634   2.285  10.504  15.359  0.3073 -0.0579 -0.1674
10501W        W26635   0.954  17.890  15.868 -0.1357  0.0040 -0.2260
10502W        W26636   7.249   0.287  11.720 -0.1202 -0.1721  0.0444
10503W        W26637   6.251  12.328  10.182 -0.0035 -0.0479 -0.3920
10504W        W26638  14.824   0.654  12.748 -0.0021  0.0687 -0.1413
10505W        W26639  11.315  17.800  16.124  0.0327  0.0641 -0.0891
10506W        W26640  13.291  17.659   2.304  0.0931  0.1829  0.1921
10507W        W26641  13.672   7.698  13.700  0.1105  0.0649 -0.0231
10508W        W26642  17.585   3.925  15.271  0.0560  0.2243 -0.3164
10509W        W26643   8.920   9.643   2.206  0.0089  0.1363  0.0871
10510W        W26644  15.695  17.082   2.427  0.1652 -0.0880 -0.1907
10511W        W26645   4.223  10.431  10.626 -0.1253  0.0053 -0.0200
10512W        W26646  15.611   6.474  16.464 -0.1567  0.1434 -0.0395
10513W        W26647  13.651   9.889   0.075  0.0595 -0.1071  0.1141
10514W        W26648   3.615  12.645   4.872  0.2761  0.1418 -0.3020
10515W        W26649   9.378  16.018   1.192 -0.0586 -0.2234  0.2042
10516W        W26650  11.931   5.006  15.393  0.0807  0.1711 -0.1674
10517W        W26651  13.059   0.615  13.812  0.1404 -0.1741 -0.2120
10518W        W26652   7.407   4.625   0.794 -0.1057  0.0267 -0.0566
10519W        W26653   7.497  16.837   5.825  0.3436  0.2037  0.2932
10520W        W26654   3.695  12.471  12.471  0.2371  0.0038 -0.1170
10521W        W26655   3.679  12.423   1.730  0.0167  0.1007 -0.1390
10522W        W26656  16.801  10.648  16.038 -0.0564 -0.2859  0.2501
10523W        W26657   5.345   8.969  16.260  0.2238 -0.1128 -0.1618
10524W        W26658   3.485   1.108   4.390  0.0190  0.3428  0.2534
10525W        W26659   4.023  11.617   1.033  0.1244  0.2885 -0.1431
10526W        W26660  14.749   3.959  16.161 -0.1928 -0.0285  0.0442
10527W        W26661   0.861   4.322   3.466 -0.1023 -0.1157  0.1373
10528W        W26662  14.336   4.929   1.372  0.0698  0.1584 -0.0004
10529W        W26663   7.291  10.601   2.150  0.2610  0.0874 -0.1916
10530W        W26664  16.992  14.762  16.518 -0.1408 -0.0262 -0.0016
10531W        W26665   2.765  11.751   4.161 -0.0217 -0.1242  0.2276
10532W        W26666  11.855  17.250  16.368 -0.1517  0.0637  0.0367
10533W        W26667   1.966  15.827  16.476  0.1289 -0.0984 -0.0282
10534W        W26668   7.864  14.631   4.631 -0.4813  0.3276 -0.3149
10535W        W26669  10.883   7.578  11.265 -0.0344 -0.1579 -0.1592
10536W        W26670   0.268   0.556   1.609  0.5337 -0.2195 -0.2722
10537W        W26671  11.430   7.321   1.745  0.0546  0.0470  0.1503
10538W        W26672  13.340  13.217  15.474 -0.2511 -0.2264 -0.0026
10539W        W26673  13.503  13.487   4.003  0.2281  0.0249  0.0159
10540W        W26674  12.033   0.855   5.241  0.1037  0.0230 -0.1659
10541W        W26675   4.495   7.296   0.193  0.0863  0.0183  0.3184
10542W        W26676  15.032  17.888  14.472  0.2992  0.2158  0.0422
10543W        W26677  17.028   5.236   2.097  0.2128 -0.1383  0.1654
10544W        W26678  16.901  16.767   2.980  0.0020 -0.2194 -0.0927
10545W        W26679  10.232  10.564  11.613 -0.0821 -0.2747 -0.0721
10546W        W26680  18.057   1.497  12.106 -0.1633 -0.1040 -0.0991
10547W        W26681   9.568   4.548   4.755 -0.0182  0.1339 -0.0156
10548W        W26682   0.464   5.671   0.334  0.2114  0.0633 -0.0166
10549W        W26683   6.229   5.587   5.784 -0.0392 -0.1253 -0.0527
10550W        W26684  14.452  16.922   6.257 -0.2661  0.0751 -0.1106
10551W        W26685   6.333  13.069  14.716 -0.3173 -0.0463  0.1102
10552W        W26686   7.338   3.428  13.849 -0.0921 -0.4145  0.0298
10553W        W26687   4.972   2.470  16.344  0.0887 -0.1374 -0.0872
10554W        W26688   2.433   3.645   0.507 -0.2433  0.1170  0.2588
10555W        W26689  12.048   5.526  12.572  0.0887 -0.2091  0.0538
10556W        W26690   4.667   3.988  12.419  0.0033 -0.0394  0.1511
10557W        W26691  16.718   5.569  12.245 -0.0148 -0.0544  0.0133
10558W        W26692   2.755   5.818   0.788  0.2491 -0.3287  0.0017
10559W        W26693   2.553   6.687   3.482  0.0876 -0.4383 -0.1191
10560W        W26694   0.130   9.209  10.733 -0.1671 -0.1889  0.1938
10561W        W26695   5.930   7.465   0.564 -0.0593  0.1849  0.0498
10562W        W26696  10.496   9.278  13.763  0.1697 -0.0700 -0.0156
10563W        W26697  11.641   9.583  14.709 -0.1661  0.2679  0.0767
10564W        W26698  15.682  17.318   0.643  0.0147  0.1917  0.1967
10565W        W26699  13.791   5.473  11.551  0.2132 -0.0524 -0.1562
10566W        W26700  15.758   7.692  10.442 -0.0537  0.2168  0.0260
10567W        W26701  14.594  15.222  14.334  0.1465  0.2497  0.0464
10568W        W26702   3.050   1.337  12.161  0.4599 -0.2519 -0.1295
10569W        W26703   3.093  12.509  13.287 -0.1995 -0.0420  0.0685
10570W        W26704  10.153   8.512  14.774  0.0293  0.0011 -0.1409
10571W        W26705   6.668   2.411   1.626  0.2099 -0.0432  0.1942
10572W        W26706  16.977   7.278  11.519  0.0062 -0.2638 -0.1445
10573W        W26707  10.794   7.423  12.570 -0.0208 -0.5661  0.2235
10574W        W26708   7.393   1.521   4.969 -0.0049  0.1331 -0.2536
10575W        W26709   1.143  14.624  12.389  0.0791 -0.0632  0.1031
10576W        W26710  12.914  14.732   3.373  0.2078  0.0859  0.0286
10577W        W26711   9.732  12.933   3.493 -0.0815  0.0997 -0.0061
10578W        W26712  11.270  17.256  13.114 -0.0255  0.1171 -0.1319
10579W        W26713  13.030  13.177   3.808  0.0911 -0.2276 -0.0116
10580W        W26714   6.294  15.585   1.023 -0.0191 -0.1291 -0.1380
10581W        W26715  12.924  10.818   5.411 -0.1536 -0.3103 -0.3782
10582W        W26716   8.776   7.473   0.686  0.0415 -0.1231 -0.1093
10583W        W26717   7.106   9.284   1.259 -0.0317  0.0040  0.3013
10584W        W26718   3.682   3.606  15.443 -0.0679 -0.1668  0.0032
10585W        W26719   2.793   5.470  13.913 -0.0553 -0.3175  0.0236
10586W        W26720   4.382   5.746  16.216  0.1658  0.2799  0.1485
10587W        W26721   2.613  14.701   3.513  0.1762 -0.1768 -0.0264
10588W        W26722  13.444   7.171  13.614  0.1062  0.0686 -0.0296
10589W        W26723  12.405   1.662   4.367 -0.0783  0.1215 -0.0316
10590W        W26724   7.778   5.943   2.425 -0.1405  0.3135  0.1527
10591W        W26725   1.411   4.000  12.193  0.2887 -0.2077 -0.2166
10592W        W26726  13.538  12.580   3.085  0.2607  0.3735  0.1197
10593W        W26727   1.933   9.409   1.640 -0.1218 -0.0141 -0.2704
10594W        W26728   0.808   9.710   4.206 -0.1376 -0.0323  0.1185
10595W        W26729  14.205   7.533  10.816  0.0887 -0.0069  0.2912
10596W        W26730   9.316   4.136   5.316  0.0092  0.4835  0.1153
10597W        W26731  13.612  14.958   5.602  0.3776 -0.0985  0.3473
10598W        W26732   4.506   7.971  14.181 -0.0653 -0.1443  0.0261
10599W        W26733   0.688   2.653  13.519  0.1699 -0.0937 -0.1987
10600W        W26734  13.400  13.474  11.748  0.0663  0.2481  0.2097
10601W        W26735  14.230   8.690  15.790 -0.2719 -0.0252  0.2897
10602W        W26736   6.586   0.286  15.574 -0.2123 -0.1289 -0.0697
10603W        W26737   3.366   4.859   1.694  0.0700  0.2189 -0.0198
10604W        W26738  18.163   2.134  11.648 -0.0566 -0.1229  0.3196
10605W        W26739   7.173   8.298  14.197  0.2217 -0.0605  0.1816
10606W        W26740  14.914   1.030   4.381  0.0920  0.1376 -0.0684
10607W        W26741   8.696  17.221   1.756  0.2796  0.0612  0.3209
10608W        W26742   6.453   5.327   3.047 -0.1093  0.0870 -0.0559
10609W        W26743  17.677  15.009   2.444 -0.0283 -0.2705 -0.3679
10610W        W26744  17.038  16.503  12.331  0.0794 -0.1533  0.2815
10611W        W26745   6.589   5.405   2.008  0.3120 -0.0429  0.3073
10612W        W26746   8.415  12.598   1.909  0.0281  0.0678 -0.0984
10613W        W26747   5.558   0.323   0.485  0.3292 -0.0044 -0.1667
10614W        W26748  14.338   4.698   4.888 -0.2008  0.3273 -0.1406
10615W        W26749   3.319  16.196  16.274  0.2428 -0.1961  0.0096
10616W        W26750   1.656   6.997   3.341  0.0140  0.1366  0.3215
10617W        W26751   2.999   9.092   2.621 -0.2783  0.0840  0.1623
10618W        W26752   5.060  10.100   0.949 -0.1538 -0.0247  0.0331
10619W        W26753   0.000  15.087   4.757 -0.1909  0.2218  0.2352
10620W        W26754   3.408   4.920   4.308 -0.3277 -0.2814  0.0730
10621W        W26755   6.655  13.514  14.245 -0.0716 -0.1234 -0.3113
10622W        W26756  14.254   5.815   3.172 -0.1384  0.1396  0.0407
10623W        W26757  12.345  10.945   4.747  0.0030 -0.0992  0.0040
10624W        W26758  17.922  16.694  13.151 -0.0933  0.2342  0.1801
10625W        W26759  13.063   5.037   4.328 -0.1352  0.2556 -0.0851
10626W        W26760   5.163  17.361  12.497  0.0636 -0.0189  0.5152
10627W        W26761   8.159   8.203  14.776 -0.1629  0.1971 -0.2252
10628W        W26762  18.069   5.487  16.194  0.0382 -0.1412 -0.0429
10629W        W26763   1.695  15.601   3.752  0.0726 -0.0968 -0.2179
10630W        W26764   5.930  16.426  11.699  0.0216  0.0145 -0.0056
10631W        W26765  10.884  10.229   5.100  0.0083 -0.1464  0.1830
10632W        W26766   7.764   8.279  11.510  0.1514  0.2601  0.2131
10633W        W26767   7.650   7.401   5.711  0.1409  0.1114 -0.1386
10634W        W26768   3.702   9.901   2.290  0.0749  0.3324 -0.1538
10635W        W26769   3.863   0.453   2.801  0.0297 -0.0985 -0.3971
10636W        W26770   4.371  10.195  11.077 -0.0250  0.0420 -0.2544
10637W        W26771   3.596  14.097   0.048  0.0817  0.5413  0.1754
10638W        W26772   7.223  10.045  15.685 -0.1222  0.0499  0.0283
10639W        W26773  15.724  15.560   6.216 -0.0464  0.1137  0.2280
10640W        W26774   9.941   7.456   9.978  0.1803  0.1258  0.2357
10641W        W26775  16.863   4.152  12.427 -0.0690  0.0000  0.1018
10642W        W26776   7.566  16.642   1.445  0.0095 -0.1056 -0.1892
10643W        W26777   2.393   5.624  14.087  0.1193  0.3258  0.3875
10644W        W26778   5.433  16.352   3.702 -0.1511 -0.4016  0.3139
10645W        W26779   5.536   0.494   3.873 -0.3740 -0.2315 -0.1789
10646W        W26780   2.167   4.358  15.156  0.2465  0.1370 -0.2767
10647W        W26781   3.182  17.885   4.700 -0.1149 -0.0886 -0.1294
10648W        W26782  17.917   5.530   1.573 -0.0500  0.1363 -0.2089
10649W        W26783  12.099  15.875  15.853  0.1352  0.0099 -0.0671
10650W        W26784  13.227   9.857  13.418  0.3609 -0.1606 -0.0940
10651W        W26785   2.309  12.485   4.640  0.1431  0.0797 -0.0819
10652W        W26786   5.545   2.435  15.158 -0.3578  0.0404  0.2351
10653W        W26787   9.694  16.379   3.138  0.2121  0.2062  0.1475
10654W        W26788   6.219  18.097   1.638 -0.0019 -0.1602 -0.2199
10655W        W26789   1.843  11.073   2.201 -0.0101  0.0335 -0.0855
10656W        W26790   1.665   6.226   2.480 -0.0694  0.0906  0.0569
10657W        W26791  11.862   8.924  11.172  0.0492  0.2015 -0.4333
10658W        W26792   0.086   1.177  16.036 -0.0582  0.1822  0.2297
10659W        W26793   3.605   6.210   2.496 -0.1243 -0.4066 -0.1101
10660W        W26794  17.615  17.944  14.860  0.1308 -0.0794  0.0735
10661W        W26795  17.066   7.353   3.030 -0.0649  0.1308  0.2423
10662W        W26796   0.318  16.809   1.797 -0.1243  0.2340  0.1909
10663W        W26797  12.192  15.842   2.108 -0.4431  0.0175  0.0064
10664W        W26798  18.070  17.567   5.617  0.1849 -0.1308 -0.0437
10665W        W26799  12.722   4.468  13.668 -0.0132 -0.1303  0.1583
10666W        W26800  11.707   2.355   2.490 -0.0143 -0.4037  0.0131
10667W        W26801   7.311   8.337  12.130 -0.1926 -0.4388 -0.0701
10668W        W26802  10.570  18.027  15.320  0.1353  0.1203  0.0496
10669W        W26803  16.159   7.720   3.876 -0.1765 -0.0161  0.3428
10670W        W26804   8.273  11.033   0.052 -0.4350  0.1064  0.1889
10671W        W26805  14.292   7.837   2.660  0.4676 -0.3512  0.2315
10672W        W26806   1.064   8.950  14.275 -0.0662  0.3768 -0.1906
10673W        W26807   2.902  11.973   4.599 -0.0296  0.2290 -0.4165
10674W        W26808   9.261  16.362   0.378 -0.0156 -0.2135 -0.1132
10675W        W26809  11.272  15.154   5.082  0.0202  0.1672  0.1992
10676W        W26810  13.464   7.460   1.456 -0.1558 -0.0902 -0.0279
10677W        W26811   9.293   3.463   0.467 -0.1917 -0.2108 -0.0007
10678W        W26812  14.425  18.093   0.678  0.1474 -0.3018  0.1180
10679W        W26813   7.386   7.010  10.785 -0.1199  0.2595 -0.1522
10680W        W26814   1.597   7.096  12.416 -0.2193  0.1224  0.2568
10681W        W26815   1.365  10.724   2.895  0.2235 -0.1222  0.0260
10682W        W26816   9.486   0.325  13.546  0.0873  0.0162  0.0577
10683W        W26817  16.638   5.838   5.385 -0.0289 -0.0947 -0.1037
10684W        W26818  14.433   4.205  13.200  0.0498  0.2001 -0.1935
10685W        W26819   9.760   6.107  14.851  0.0084  0.1708 -0.1604
10686W        W26820  18.032  13.035   3.144  0.0048 -0.3266 -0.1293
10687W        W26821  10.558   4.752   3.640  0.1009  0.2080  0.3557
10688W        W26822   1.082  13.028  14.218 -0.1126  0.0258 -0.1443
10689W        W26823   9.493   3.411  10.384 -0.1132 -0.2000 -0.1476
10690W        W26824   1.774  16.396  12.602  0.2324 -0.1377 -0.4691
10691W        W26825  17.087   7.900   0.429 -0.0640 -0.2851  0.3089
10692W        W26826   4.695   1.552  10.724 -0.0187  0.2279  0.0482
10693W        W26827  16.670  11.407  13.460  0.0043  0.3051  0.0461
10694W        W26828  13.047  13.250   3.216  0.0685  0.1604  0.0200
10695W        W26829   2.830  13.683   0.522  0.0093 -0.2452 -0.1334
10696W        W26830  12.513   6.321  11.884 -0.3478 -0.0201  0.2536
10697W        W26831   1.276  12.299   2.678  0.3400 -0.2059 -0.3388
10698W        W26832  12.025  14.890  16.349 -0.3458  0.0615  0.0112
10699W        W26833  13.485   9.067   1.638  0.1424 -0.4384 -0.1036
10700W        W26834  11.675   8.021   4.489  0.1111  0.0310 -0.3111
10701W        W26835  13.136   1.013  14.502  0.0593  0.0845  0.1059
10702W        W26836  18.105  12.950  11.699 -0.1069 -0.1177 -0.0353
10703W        W26837  17.364  10.007  14.749 -0.3400  0.1282  0.0655
10704W        W26838  12.595   2.478  13.649  0.1421  0.1781 -0.0797
10705W        W26839   8.238   7.590   0.744  0.0126  0.0643 -0.1118
10706W        W26840   6.579   9.475  15.488  0.1513 -0.0950  0.1949
10707W        W26841  17.349   9.071   4.375 -0.0426  0.2114 -0.0867
10708W        W26842   6.193   4.760   2.922  0.0531 -0.0806 -0.0634
10709W        W26843   4.043   6.582   3.733 -0.3240 -0.1013  0.1532
10710W        W26844   9.309  11.823  12.445 -0.1731 -0.1669 -0.1792
10711W        W26845   3.433  16.205   3.932 -0.1070 -0.1232  0.0670
10712W        W26846  12.474   0.811  13.831 -0.0985  0.0772 -0.2256
10713W        W26847   3.228   1.523   2.483 -0.3101 -0.1408 -0.0807
10714W        W26848  10.714   5.286   2.723  0.1624  0.1477 -0.3018
10715W        W26849   2.000   5.661  13.687 -0.2886 -0.0528 -0.3069
10716W        W26850   1.764   2.367   2.159 -0.1068 -0.0407  0.1740
10717W        W26851   7.422   9.294   4.168  0.2080 -0.1108 -0.0672
10718W        W26852  15.460  10.719   3.237 -0.2695  0.2671 -0.0601
10719W        W26853   3.439   9.528   1.911 -0.1779 -0.0047  0.0887
10720W        W26854   7.784   2.344   2.041  0.0516  0.0862 -0.0715
10721W        W26855   4.040   3.341  15.100  0.0201 -0.2899  0.2255
10722W        W26856  15.787  14.890   2.196 -0.0231  0.0948  0.2849
10723W        W26857   5.814  14.127  12.098 -0.1482 -0.0699 -0.2081
10724W        W26858  13.122  11.982   0.621  0.2790 -0.0767 -0.4329
10725W        W26859   8.430   7.022  13.620 -0.0488  0.0850 -0.4125
10726W        W26860  14.285   1.779  15.772 -0.0617 -0.2186 -0.0574
10727W        W26861   4.414  12.477  14.965 -0.1369  0.3910 -0.2091
10728W        W26862   1.025  18.086  13.298 -0.0247  0.3505  0.1064
10729W        W26863   3.771   3.911  13.484 -0.1913 -0.0995  0.0224
10730W        W26864   8.756   5.264   1.212 -0.2760 -0.1596 -0.1729
10731W        W26865   5.130   6.007   1.131  0.2211 -0.1017  0.0080
10732W        W26866   6.470   4.715  11.633 -0.0344 -0.3461 -0.0711
10733W        W26867  12.954  11.436  12.172 -0.0871 -0.2932  0.2096
10734W        W26868   8.935  17.158   5.538  0.2462  0.1000 -0.0273
10735W        W26869   6.277  10.853  11.790 -0.0527 -0.1746 -0.0966
10736W        W26870   8.734   4.480   0.271 -0.1399  0.2746 -0.0700
10737W        W26871   1.868  14.078   4.020  0.0760  0.2511 -0.0230
10738W        W26872  15.754  12.308   2.963 -0.0208  0.4375 -0.1502
10739W        W26873   9.421   0.596   1.525 -0.2868 -0.0424  0.1420
10740W        W26874   7.357  10.475   4.607 -0.2714  0.0860  0.1411
10741W        W26875   3.231   2.151  12.883 -0.1742  0.0148  0.0811
10742W        W26876  14.547   8.716   1.016  0.1190 -0.2929 -0.1691
10743W        W26877   2.726   3.477   3.321 -0.2175  0.2480 -0.2412
10744W        W26878   8.568   2.891   1.633  0.0299  0.2127  0.0212
10745W        W26879  16.379   8.328  12.521  0.2111 -0.0552  0.1332
10746W        W26880  15.129  11.698  14.523 -0.1646 -0.0334  0.0920
10747W        W26881  12.351   3.157   1.301  0.0875  0.0137  0.1007
10748W        W26882   0.412   6.670   4.438  0.1376  0.1237 -0.1118
10749W        W26883   2.555   1.848  14.395 -0.0163 -0.0976 -0.1510
10750W        W26884   3.727  10.434   3.794 -0.3526 -0.0429  0.2913
10751W        W26885  16.361  13.469  13.983  0.1998  0.1218 -0.0337
10752W        W26886  10.351   4.639   5.092  0.2650 -0.3101 -0.0623
10753W        W26887   6.112   5.831  10.319 -0.0470 -0.0520 -0.2117
10754W        W26888   5.289   6.609  16.340 -0.2512  0.0654 -0.2801
10755W        W26889  15.472  11.952   5.401 -0.1271  0.1356  0.1264
10756W        W26890  12.043  13.783   2.288 -0.1284  0.0806  0.0325
10757W        W26891   0.976   4.244   1.043 -0.2261 -0.3419 -0.1973
10758W        W26892  13.691  15.311  11.870 -0.1104  0.0630 -0.1900
10759W        W26893   3.466   9.243  12.042  0.2601 -0.2788  0.1057
10760W        W26894   8.388   8.719  14.330 -0.0061 -0.2471 -0.0018
10761W        W26895  14.462   0.826   0.344  0.1218  0.0397 -0.0141
10762W        W26896  14.301  12.217   0.033  0.1983  0.0109  0.0545
10763W        W26897   6.662   6.091  13.076  0.1529 -0.3310  0.0966
10764W        W26898  10.645  14.437  12.590 -0.1099  0.1811 -0.0156
10765W        W26899   7.967  11.854  11.606  0.0698 -0.0367  0.2407
10766W        W26900  17.225  13.995   5.727  0.1692  0.0988  0.1913
10767W        W26901  11.617   3.464   5.210  0.1611  0.0845  0.1304
10768W        W26902  14.716   1.439   6.553  0.0367  0.0947 -0.3226
10769W        W26903   4.033  17.843   1.438 -0.3459  0.1737  0.0122
10770W        W26904   8.553   2.558  16.471  0.0869  0.0104 -0.0378
10771W        W26905   0.412  14.936  13.475  0.1597  0.0429  0.1594
10772W        W26906  17.342  13.450  13.277  0.0689 -0.0668 -0.1595
10773W        W26907   7.557  10.206  11.893  0.0210  0.0250  0.0505
10774W        W26908   4.530  11.901  13.381  0.1672  0.0973 -0.1423
10775W        W26909   5.131  10.432  15.441 -0.1209  0.1978 -0.2942
10776W        W26910   3.897   7.493   5.026 -0.0575  0.2262 -0.0410
10777W        W26911  12.013   0.326   0.963  0.0553  0.0387 -0.0406
10778W        W26912   5.637   8.451   1.905  0.0764  0.0288  0.0174
10779W        W26913   0.315  11.179   3.643  0.0806 -0.2786  0.1891
10780W        W26914   7.792  17.386  12.446 -0.1250  0.2729 -0.0681
10781W        W26915  13.004   3.614   6.259 -0.3931 -0.4146 -0.0248
10782W        W26916  14.799  12.968   0.426  0.0975  0.2491  0.1321
10783W        W26917   2.328   4.856   1.508  0.1267  0.0307  0.2214
10784W        W26918   2.967   3.128   5.666 -0.0662 -0.0370 -0.2374
10785W        W26919   6.549   8.684   2.794 -0.3028  0.3161  0.4562
10786W        W26920  11.594   5.998  12.872 -0.4254 -0.0862 -0.0021
10787W        W26921  16.928   5.014  14.922 -0.0204 -0.2560 -0.1051
10788W        W26922  12.075  13.178   0.664  0.0344 -0.0268  0.2492
10789W        W26923   6.866  12.433   4.935 -0.0035  0.4609 -0.1349
10790W        W26924  14.125   2.925  15.259 -0.1330  0.0562 -0.2139
10791W        W26925  15.388   3.136  15.942 -0.3587 -0.1954 -0.2055
10792W        W26926  18.092  14.673   4.411 -0.0049  0.0897 -0.4015
10793W        W26927   0.539  13.969   4.179 -0.0974  0.2361 -0.5952
10794W        W26928   5.363   0.190   5.683  0.1451 -0.0616 -0.1666
10795W        W26929   2.320  12.969  15.358  0.0423  0.1504  0.1446
10796W        W26930  13.200  16.712  15.208 -0.1122  0.0710 -0.1901
10797W        W26931  13.758   0.931   6.100 -0.0288 -0.2728 -0.1483
10798W        W26932   9.059   5.198   5.499  0.2250 -0.0413  0.0154
10799W        W26933   8.670   4.520   5.290 -0.1448  0.1923  0.0432
10800W        W26934   8.286  15.450   5.291  0.0319  0.0028  0.1165
10801W        W26935   1.591  13.517   6.199  0.2599  0.1054 -0.5211
10802W        W26936  17.221  13.877  15.524 -0.0906 -0.2289  0.1722
10803W        W26937  18.160  17.626  12.090  0.2682  0.0027  0.0720
10804W        W26938  12.202  15.773  14.422  0.0276  0.3727 -0.2528
10805W        W26939   7.682  11.085   1.497 -0.1611 -0.2620  0.0609
10806W        W26940   6.491   3.605  12.817  0.1878  0.0337 -0.0262
10807W        W26941   8.437   6.548  16.202  0.0653 -0.0507  0.1534
10808W        W26942  17.365   5.811   3.902 -0.1712 -0.3337 -0.2601
10809W        W26943  14.460   3.819   0.614 -0.0527 -0.1565 -0.0510
10810W        W26944  16.410   2.869  13.427 -0.1406  0.1272  0.1783
10811W        W26945   8.789  11.849   3.465  0.0018  0.1015  0.1916
10812W        W26946  14.096  10.195  13.048 -0.1235  0.0606 -0.1466
10813W        W26947   7.815   6.659  11.361  0.1513  0.2075  0.0725
10814W        W26948  17.850   2.671  12.411 -0.1571 -0.2739 -0.2187
10815W        W26949  14.075   7.708   5.082 -0.3591 -0.0813  0.0551
10816W        W26950   2.965   9.399   5.193  0.2384  0.3555 -0.0526
10817W        W26951  14.934   5.999  12.456  0.0463  0.0516 -0.1746
10818W        W26952   7.392  13.509   4.357  0.3826  0.0165 -0.0632
10819W        W26953   6.955   7.983  12.266 -0.0237 -0.2213  0.0637
10820W        W26954   2.168   1.174  15.926  0.0314  0.0396 -0.0492
10821W        W26955  12.806  13.593  12.087 -0.1859  0.2337  0.2578
10822W        W26956  10.771   6.984  13.369 -0.2595  0.2626 -0.0950
10823W        W26957   9.087   5.882  12.386  0.0831 -0.0090 -0.2349
10824W        W26958   9.824  12.399  14.634  0.1122 -0.0509 -0.0765
10825W        W26959   0.941   0.119   1.032 -0.0567  0.2507 -0.1629
10826W        W26960   1.504   2.059   3.006 -0.2110 -0.1303  0.0777
10827W        W26961  14.522  16.489  11.407 -0.1447  0.1241  0.1476
10828W        W26962  17.589   7.505  13.627 -0.1876  0.0314  0.0592
10829W        W26963  15.367   7.440   5.192  0.2235  0.0238  0.2364
10830W        W26964   3.240  14.519   5.260  0.1285 -0.0673  0.0975
10831W        W26965  10.991  16.159  15.756 -0.0015 -0.0619  0.0002
10832W        W26966  17.987  13.095   5.704  0.2025  0.1322  0.0100
10833W        W26967   8.485   4.784  14.840 -0.0865 -0.0177 -0.0512
10834W        W26968  15.348   2.384  14.313 -0.1762  0.1452 -0.0389
10835W        W26969   4.254   1.887  15.248  0.1719  0.1174 -0.1965
10836W        W26970   0.035   8.127  13.615  0.1844 -0.2768 -0.2712
10837W        W26971   0.102   9.621  14.460  0.1772 -0.0717 -0.2156
10838W        W26972   6.427  11.049   2.846  0.1467 -0.2747 -0.0291
10839W        W26973   9.945  10.551   3.228 -0.2056 -0.2741  0.1378
10840W        W26974   1.940  13.003  16.188 -0.0497  0.0252 -0.0302
10841W        W26975   5.547  13.338  14.085 -0.1306  0.2486  0.0886
10842W        W26976  11.801   7.705   2.530  0.1412  0.0037 -0.1197
10843W        W26977   3.178   4.071   4.742 -0.3912  0.1822  0.0714
10844W        W26978  15.436   2.414  15.339  0.0160  0.1682 -0.2520
10845W        W26979   8.049  15.715   4.065  0.0217 -0.0395 -0.1031
10846W        W26980   2.418   3.115   2.207 -0.1895 -0.2588  0.1640
10847W        W26981  13.143   7.851  15.642  0.1503 -0.2894 -0.1570
10848W        W26982  13.795  13.349   2.495  0.2405 -0.0955  0.0452
10849W        W26983  10.104  15.163   4.256 -0.1357  0.1322 -0.2496
10850W        W26984   5.498   2.329   3.486  0.1995  0.0578 -0.1967
10851W        W26985   0.050   8.792   4.608  0.0223  0.1149 -0.0250
10852W        W26986   8.459  13.024   2.845  0.2267 -0.2389  0.1529
10853W        W26987  12.889   7.806  12.743 -0.0367 -0.2136 -0.0372
10854W        W26988   0.243  12.173   2.298 -0.0247  0.0029  0.1105
10855W        W26989  16.614  17.106   0.688 -0.0157 -0.1759  0.1412
10856W        W26990   4.176   8.011   5.042 -0.0638  0.2595  0.0574
10857W        W26991   7.979  14.991  12.617 -0.0406 -0.0973 -0.2297
10858W        W26992   0.710   7.867  11.329  0.1482  0.0794 -0.2843
10859W        W26993  11.761   5.574   2.414 -0.0817  0.0745  0.1708
10860W        W26994   9.434  17.189   1.191  0.1774  0.0050  0.2130
10861W        W26995  13.786   4.282  15.860  0.0063  0.3175 -0.0125
10862W        W26996  17.589  17.795  15.696  0.1325  0.2597 -0.0474
10863W        W26997   0.582   5.074   0.712  0.1698 -0.0110 -0.0731
10864W        W26998  16.174   6.271  16.419  0.4359 -0.0488  0.2132
10865W        W26999  15.312   0.140   4.112  0.1249 -0.2705 -0.0728
10866W        W27000  17.560   8.213  16.269  0.1123 -0.2756 -0.3525
10867W        W27001  12.698  14.394  13.750  0.0820  0.5967 -0.1075
10868W        W27002  15.008   2.529  11.851  0.2340 -0.1238  0.3955
10869W        W27003  15.677   1.755   0.879  0.2490  0.0995  0.1780
10870W        W27004   3.766   8.946   4.154 -0.0668 -0.1279 -0.0359
10871W        W27005   7.990   6.750  13.416 -0.1774  0.1788  0.0120
10872W        W27006  13.351  12.349   6.595  0.0168 -0.0426  0.2648
10873W        W27007  17.258   7.009   2.727  0.2155  0.2314  0.0619
10874W        W27008   3.233  12.276  12.271  0.0043  0.3135  0.0594
10875W        W27009  10.628   5.984   4.059  0.0842 -0.1505 -0.0273
10876W        W27010  15.316  16.975   1.212 -0.1598  0.1857 -0.3200
10877W        W27011   6.632   4.286  11.501 -0.1720 -0.3472  0.0897
10878W        W27012  17.367  13.178   4.868 -0.2491  0.4135 -0.1176
10879W        W27013   6.119  14.341  15.898  0.3663  0.0840  0.0336
10880W        W27014  13.837  12.571   4.683  0.1820  0.1045 -0.0017
10881W        W27015  16.860   5.606   0.897 -0.0524  0.0861  0.1039
10882W        W27016   4.266  17.828  12.931  0.1097 -0.4286 -0.3767
10883W        W27017   9.705  11.299  13.951 -0.0077 -0.0738  0.0574
10884W        W27018   3.595  14.225  14.285  0.0669 -0.0877  0.2628
10885W        W27019   8.853   2.286   4.663 -0.0136  0.1917  0.1443
10886W        W27020   7.095   9.486  10.836  0.1166 -0.1749 -0.0115
10887W        W27021  15.569   4.370  14.428 -0.0204 -0.1331 -0.1449
10888W        W27022   9.342   9.408   1.404 -0.3709 -0.2888 -0.0147
10889W        W27023  16.562   4.885  13.002 -0.2437  0.1742 -0.2622
10890W        W27024  12.213   5.759  13.618  0.1960  0.4389 -0.0439
10891W        W27025   0.538  16.875  12.236  0.1150  0.1305  0.3508
10892W        W27026   4.970  11.023  12.071  0.0244 -0.2593  0.1150
10893W        W27027  11.467  10.640   1.760  0.0658  0.0576  0.1730
10894W        W27028   4.607  17.027   5.101 -0.2614 -0.1436 -0.0743
10895W        W27029   6.685   0.155   5.271  0.2022 -0.4794 -0.0757
10896W        W27030   2.015   7.729   5.060 -0.1482  0.0366  0.3202
10897W        W27031   3.423   8.596   5.806  0.0825  0.1893 -0.1983
10898W        W27032   3.454  14.995   4.426 -0.0885 -0.0428 -0.0924
10899W        W27033  12.220  10.619  10.684  0.0289  0.1140  0.1398
10900W        W27034  14.320   6.143  13.820 -0.2911 -0.3199 -0.0776
10901W        W27035  15.445   1.887  16.209  0.0594 -0.1006  0.0758
10902W        W27036   2.664  13.809   3.060 -0.2142  0.1094 -0.1461
10903W        W27037   1.609   6.078  11.057  0.3275 -0.0059 -0.0749
10904W        W27038  15.058  10.223  16.237  0.1682 -0.1139 -0.0358
10905W        W27039  12.629   0.986   5.260  0.1174  0.0082 -0.0480
10906W        W27040   5.249   3.886  14.943 -0.0372  0.0856  0.3327
10907W        W27041   2.446  15.966  14.414  0.0345 -0.1774  0.1376
10908W        W27042  13.467   0.782   4.244  0.2150  0.0429 -0.0610
10909W        W27043   6.180  13.253  14.219 -0.0057 -0.0730  0.4382
10910W        W27044   7.817   9.598  14.082 -0.0205 -0.2915  0.0143
10911W        W27045  11.072  10.518   1.408  0.0510  0.2376  0.2457
10912W        W27046  14.387   4.152  13.703 -0.0169 -0.3928 -0.2424
10913W        W27047  14.557   0.248  14.640  0.3280  0.2518 -0.1549
10914W        W27048  11.000   4.850  12.036  0.0913 -0.0054  0.0809
10915W        W27049   6.502   2.722  14.132 -0.1467 -0.1202  0.2858
10916W        W27050   0.074   8.453  11.566  0.1438  0.1919  0.2364
10917W        W27051  12.529   7.565  16.508  0.1544 -0.4144  0.1083
10918W        W27052   5.192  17.371   4.054 -0.0163  0.3496  0.0781
10919W        W27053   6.308  17.155  11.236  0.1135 -0.0196  0.0262
10920W        W27054   5.088   9.605   3.463 -0.2061  0.1883 -0.0109
10921W        W27055   4.431  17.077  15.914 -0.3875  0.1444  0.1978
10922W        W27056   6.813   6.494  14.698 -0.2046 -0.0600  0.1747
10923W        W27057  12.564  10.439  14.643  0.0328  0.0566 -0.3369
10924W        W27058  11.418  12.882  14.204 -0.1527 -0.0319 -0.0855
10925W        W27059  15.968   6.730   2.895 -0.3040  0.0528  0.1323
10926W        W27060   3.796  15.167   5.431 -0.3039 -0.0637  0.0368
10927W        W27061   0.788   8.450  13.585  0.0694  0.3448 -0.0516
10928W        W27062  10.945  10.677  12.028  0.4780 -0.0658  0.1137
10929W        W27063  15.514   9.847   1.461  0.0835  0.0055  0.1251
10930W        W27064   0.195  17.546   0.868 -0.0497  0.0014  0.0061
10931W        W27065   0.971   1.554   2.061 -0.1477 -0.3811 -0.1356
10932W        W27066  12.468   7.524   2.482  0.2107 -0.3820 -0.0981
10933W        W27067   1.448   9.175  13.624 -0.2687 -0.0992  0.0588
10934W        W27068  16.284  11.305  15.655 -0.1301 -0.2767 -0.1219
10935W        W27069  14.927   0.123   3.827  0.1272  0.0951  0.2604
10936W        W27070   4.485   5.735   4.807  0.2676 -0.0783  0.0086
10937W        W27071   1.578  14.775  13.105  0.0237  0.1812  0.1614
10938W        W27072  14.028   2.088  14.924  0.0961  0.0086  0.1316
10939W        W27073   5.541  12.964   3.322 -0.1155  0.6836 -0.1086
10940W        W27074  15.399   1.384   5.751  0.1736 -0.0358 -0.1146
10941W        W27075  16.505   5.480   3.330  0.1554 -0.0837  0.4307
10942W        W27076  10.641   9.696  13.416  0.2819 -0.2631  0.0638
10943W        W27077   7.734   4.040   3.671 -0.1844  0.3272 -0.2107
10944W        W27078   6.915   5.869  15.263  0.0264  0.0241 -0.1570
10945W        W27079   7.566  17.705   3.527  0.2585 -0.3220 -0.2816
10946W        W27080  17.968  11.232  13.689 -0.1635 -0.1761 -0.1148
10947W        W27081  12.385   2.390  15.868  0.2274 -0.1929 -0.0317
10948W        W27082   6.603  10.785   1.190  0.0254 -0.3433  0.4930
10949W        W27083  12.775   2.388   5.019 -0.0780 -0.0482 -0.2451
10950W        W27084   3.222  17.188  13.096 -0.2155 -0.3483 -0.2738
10951W        W27085   9.538  13.558  15.943  0.0914  0.3117 -0.0787
10952W        W27086   9.053   3.937  14.901 -0.0565  0.0769 -0.1566
10953W        W27087  17.721  16.717  15.419  0.0470  0.2396  0.1160
10954W        W27088   6.414   8.780  16.262  0.0969 -0.0319  0.1296
10955W        W27089   7.289   7.628   0.018 -0.1480  0.1068  0.2804
10956W        W27090   6.941   2.212   2.029  0.2023  0.0557  0.1261
10957W        W27091  15.222  17.965   2.130 -0.3457  0.0075  0.0304
10958W        W27092   3.775   0.923  15.462 -0.1005  0.0730  0.1558
10959W        W27093  13.968   3.829  15.537  0.1396  0.0795 -0.0719
10960W        W27094  14.507   9.287  12.006  0.0925 -0.2945 -0.0105
10961W        W27095  17.739  10.303   5.588  0.1152 -0.0108 -0.3036
10962W        W27096   0.511   5.141   5.052  0.0526 -0.0855 -0.0489
10963W        W27097   4.606  14.476   0.918 -0.3042 -0.2523 -0.2665
10964W        W27098  10.633  11.501  11.444 -0.1788 -0.2678  0.2462
10965W        W27099   1.229   6.237   5.307 -0.1284  0.1497 -0.1243
10966W        W27100  16.558   3.345   3.188 -0.1594 -0.3274 -0.0359
10967W        W27101   8.979  11.553  11.255  0.0245 -0.1877  0.3256
10968W        W27102   9.381  10.444   4.871  0.0921  0.0475  0.0057
10969W        W27103  10.529  11.511   2.340 -0.1582 -0.1925 -0.1026
10970W        W27104   1.353  15.064   0.447  0.1503  0.0544 -0.0160
10971W        W27105  10.492  11.900   3.588 -0.0041  0.0919  0.0098
10972W        W27106   2.915   0.039  12.315 -0.0829  0.0323 -0.3265
10973W        W27107  11.364  13.669   2.830 -0.0619 -0.2544 -0.4492
10974W        W27108  10.650  16.602   0.470  0.0443  0.2195 -0.1791
10975W        W27109   3.392  17.889   0.857 -0.4757  0.1479 -0.2327
10976W        W27110   8.183  13.859   1.622  0.1757 -0.0098 -0.2754
10977W        W27111   5.199  14.399   2.314  0.2210 -0.2099 -0.2642
10978W        W27112   4.257  10.453  14.924  0.1483 -0.1283 -0.1273
10979W        W27113   8.151   2.070   5.421  0.1427 -0.0429  0.0111
10980W        W27114   7.815  14.357  16.277 -0.0016  0.0794 -0.1607
10981W        W27115   1.618  12.182   1.941  0.2102  0.0597 -0.1891
10982W        W27116   5.470  11.409  14.185 -0.0003  0.0036 -0.0594
10983W        W27117  11.259   2.269   1.601 -0.5043  0.0987 -0.1652
10984W        W27118   6.971   2.937  12.962  0.0625  0.0946  0.0110
10985W        W27119   9.282  16.730   1.246  0.0240 -0.1017 -0.1235
10986W        W27120  11.220   8.218  13.451 -0.0371  0.1297 -0.0007
10987W        W27121  17.916   6.486  16.192  0.2892  0.1220  0.0843
10988W        W27122   9.188   0.458   3.612 -0.2345 -0.0421 -0.0117
10989W        W27123   1.571   4.535   4.636  0.3867  0.0447 -0.0670
10990W        W27124   5.826  15.094   2.574  0.0541 -0.1532  0.0615
10991W        W27125   8.395  10.710   1.776  0.1487  0.3127  0.2941
10992W        W27126   9.177  10.979   4.819  0.0524 -0.1721  0.1383
10993W        W27127  14.605  13.388  16.310  0.0620 -0.0430  0.2437
10994W        W27128   7.097  12.433  15.724 -0.2390  0.0759  0.0432
10995W        W27129  15.371  12.255   4.361  0.0470  0.0905  0.2529
10996W        W27130   1.924  12.583  15.188  0.0025 -0.0274  0.0298
10997W        W27131   7.910  11.244   1.028 -0.0081  0.1025  0.4064
10998W        W27132  12.432   6.178  16.412 -0.2430 -0.2337 -0.1078
10999W        W27133  14.359  17.807   4.754 -0.0908 -0.0088  0.1235
11000W        W27134   5.885   0.992   3.810  0.0732 -0.2565  0.0909
11001W        W27135   3.237  13.214  12.407  0.1757  0.1428  0.3066
11002W        W27136   3.998   2.549   0.573  0.1213 -0.1157  0.0252
11003W        W27137   0.637   1.735  15.551  0.0301  0.1190 -0.3094
11004W        W27138   0.212  12.022   3.851 -0.1659 -0.1241 -0.0687
11005W        W27139   3.895   5.036  15.886 -0.0508  0.0177 -0.2683
11006W        W27140   7.379  12.588  14.448  0.1583  0.0818  0.1153
11007W        W27141  10.071   2.682   3.136 -0.1338  0.0691  0.1506
11008W        W27142  17.446   0.417  15.299 -0.1853 -0.0901 -0.0923
11009W        W27143   3.208   3.855   2.337  0.2308 -0.1894  0.0159
11010W        W27144   6.877  11.629  15.227 -0.0623  0.2330 -0.0014
11011W        W27145   8.524   7.562   2.067 -0.0094 -0.1116  0.0261
11012W        W27146   8.146  14.312   0.931  0.2503 -0.3450 -0.3573
11013W        W27147   9.391  12.224  14.529  0.1675  0.0309 -0.1116
11014W        W27148   1.130  10.483   5.358 -0.0834  0.1022 -0.0260
11015W        W27149   5.683   5.864   3.514  0.1837  0.2779  0.1251
11016W        W27150   7.772   7.344  10.875  0.0396 -0.0245  0.1690
11017W        W27151   7.740   9.060  12.273 -0.0169  0.0731 -0.1041
11018W        W27152   9.579   1.938   1.778 -0.1580 -0.1042 -0.1784
11019W        W27153  16.249   0.616   3.843  0.2921  0.0158  0.0594
11020W        W27154  10.001  15.640   1.151  0.2793  0.1380  0.0558
11021W        W27155  18.129   1.035  14.510  0.1437  0.0512 -0.1852
11022W        W27156   3.727  15.500   6.317 -0.0272  0.2415  0.1018
11023W        W27157  12.199   7.188  11.951  0.0026 -0.1001  0.1640
11024W        W27158  12.286  14.563   5.255 -0.0859 -0.1902  0.2963
11025W        W27159  12.264  13.110  12.787  0.0918  0.0103  0.2689
11026W        W27160  14.310   8.856  15.344  0.3465  0.2548  0.3271
11027W        W27161  14.434   6.333   5.152  0.1128 -0.0596 -0.0878
11028W        W27162   2.821   4.784   1.729  0.0293 -0.3882  0.1086
11029W        W27163  15.013   7.488   0.536 -0.1374 -0.2288 -0.0922
11030W        W27164  13.641   2.869  15.810  0.1131 -0.0579  0.2100
11031W        W27165  10.484  16.144   1.807 -0.0887 -0.3995 -0.0164
11032W        W27166   0.975   1.811   2.476  0.0276  0.3761 -0.0510
11033W        W27167   7.450   1.181   5.337 -0.1114 -0.1751  0.0270
11034W        W27168   5.696   8.201  16.056 -0.1500  0.1544 -0.3288
11035W        W27169   3.813  13.272   5.573 -0.2367 -0.0271  0.0451
11036W        W27170   9.877   9.753   0.717  0.1745 -0.0872  0.2996
11037W        W27171  15.963   4.126   3.007 -0.1731 -0.0503  0.0801
11038W        W27172  14.270   1.823   0.481  0.0293 -0.0663  0.0421
11039W        W27173   9.681   0.596   4.325 -0.0810 -0.0251 -0.0521
11040W        W27174   0.447   8.286   5.404 -0.0751 -0.1607  0.3438
11041W        W27175   4.008   7.407   5.641  0.2889 -0.0769 -0.3474
11042W        W27176   3.313   4.723  11.713 -0.0313 -0.1010  0.2422
11043W        W27177  16.107   8.043   3.486  0.1047 -0.0306 -0.3199
11044W        W27178   1.927   4.569   1.192  0.0076 -0.1877  0.2027
11045W        W27179  12.711  11.684  12.841  0.3201 -0.1980 -0.2294
11046W        W27180   3.039   9.448   1.611  0.1066  0.0439 -0.0197
11047W        W27181  14.473  11.346   0.676 -0.0651  0.1689  0.1194
11048W        W27182   2.298   3.164   1.117 -0.0883  0.0711 -0.1473
11049W        W27183   9.302  17.720  12.302 -0.0407 -0.1490  0.3607
11050W        W27184  10.650  15.500   5.690  0.0671  0.0677 -0.1624
11051W        W27185   6.258   8.323   0.347  0.2620 -0.1093 -0.2231
11052W        W27186  10.263  11.452   0.685 -0.0829 -0.0613 -0.3114
11053W        W27187   0.091   6.718  12.511 -0.2411 -0.0016 -0.0715
11054W        W27188   2.202   2.573   2.451  0.1456  0.0391 -0.1312
11055W        W27189   6.548  15.829  13.962 -0.2271 -0.1072 -0.1140
11056W        W27190  10.299   0.209  12.919 -0.1500  0.0914  0.0820
11057W        W27191  17.696  13.783  14.149  0.0725 -0.0564 -0.1075
11058W        W27192  10.783   3.835   5.583 -0.0255 -0.0998 -0.1678
11059W        W27193  12.854   9.281  15.572  0.0630 -0.1709  0.1776
11060W        W27194   8.095  16.010   1.905 -0.1201  0.1311 -0.1291
11061W        W27195  10.028   7.232  15.841 -0.2278  0.2634 -0.0627
11062W        W27196   8.458  12.789   5.414 -0.0548 -0.0472  0.1195
11063W        W27197  10.781   7.749   2.933  0.0730 -0.0838  0.1323
11064W        W27198   0.138  11.340   4.810 -0.3569 -0.2949  0.2453
11065W        W27199   3.581  11.049   1.736 -0.1457  0.0006  0.2022
11066W        W27200  14.523   0.480   1.536 -0.2462 -0.1111  0.4346
11067W        W27201   0.582  10.711   3.742  0.2765  0.1187  0.2837
11068W        W27202   6.409  14.472  10.864 -0.3322  0.0704  0.2713
11069W        W27203   8.196   4.553  11.822 -0.2010  0.2214  0.1266
11070W        W27204   2.597   1.096   5.003 -0.5263  0.0377  0.0291
11071W        W27205   4.756   2.138  14.303  0.2181 -0.1847  0.0053
11072W        W27206  16.751  13.597   4.383 -0.1081  0.0076  0.1185
11073W        W27207   9.263   9.533  12.137 -0.2776  0.1183  0.1844
11074W        W27208  14.201   9.286  14.568 -0.1553 -0.2369 -0.0923
11075W        W27209   1.892   7.798   4.521  0.0150  0.1428 -0.1038
11076W        W27210   5.974  16.668   3.799 -0.3411 -0.1986 -0.2096
11077W        W27211  11.658  17.883  12.506 -0.0831  0.0504 -0.2526
11078W        W27212   7.998   6.862  16.072  0.4419  0.2263 -0.2176
11079W        W27213  13.363   6.446   5.380  0.1368 -0.0434  0.5899
11080W        W27214  17.370   2.614   0.707  0.2231  0.1459 -0.1513
11081W        W27215  17.398   8.823   2.315  0.1992 -0.0761  0.0992
11082W        W27216   8.754   1.701  15.299 -0.0360  0.0169  0.2786
11083W        W27217   4.740  17.646   3.923 -0.0801  0.1539 -0.0219
11084W        W27218   4.800   0.387  13.873  0.3347 -0.2351 -0.1205
11085W        W27219  14.941   8.308   2.540 -0.1829  0.0877  0.1571
11086W        W27220  16.856   0.392  12.217  0.1838  0.0453  0.0672
11087W        W27221  13.403   8.248  15.881 -0.1623  0.0619  0.0774
11088W        W27222   2.631   9.852   3.334  0.1193  0.2570 -0.0304
11089W        W27223   3.770   0.663   1.076 -0.0009  0.1440 -0.4376
11090W        W27224  16.993   9.624  12.018  0.2608  0.1026  0.1297
11091W        W27225   5.888   5.275  16.518 -0.2139  0.1033 -0.0144
11092W        W27226  12.938   0.237   3.705  0.0701 -0.0346  0.0754
11093W        W27227   5.457  10.965  12.056 -0.1271 -0.0153  0.1797
11094W        W27228  13.400   0.905  12.594 -0.1637 -0.1488  0.2660
11095W        W27229   1.951   1.313   2.242  0.0295 -0.1593 -0.2087
11096W        W27230   9.079   3.282   5.403  0.1508  0.0782 -0.1313
11097W        W27231  13.252   1.932  12.667  0.1008  0.0197  0.0856
11098W        W27232   3.628  16.568  14.340  0.2143  0.0749 -0.1258
11099W        W27233  17.851  11.801  14.054 -0.2936  0.1067 -0.1649
11100W        W27234   1.335  15.309  11.834  0.0539  0.0714  0.0826
11101W        W27235  13.835  10.040   4.079 -0.1314  0.0182 -0.1046
11102W        W27236   2.826   7.695  10.961  0.1706 -0.0008 -0.0964
11103W        W27237   7.426   7.400   1.227 -0.0907  0.2706  0.4643
11104W        W27238  14.515  10.350  13.845 -0.0035 -0.3721  0.0774
11105W        W27239  16.653   9.902  11.299  0.0501 -0.1457  0.3443
11106W        W27240  13.538   4.958   1.113 -0.0827  0.2668 -0.1439
11107W        W27241   1.107  14.298   0.277 -0.0954  0.1198 -0.2653
11108W        W27242  15.221   9.791  16.428  0.3026 -0.0919 -0.2757
11109W        W27243  11.526  18.143  14.335 -0.0772  0.0124  0.0460
11110W        W27244  16.421   9.814   3.448 -0.0205  0.1340 -0.4380
11111W        W27245   6.506   9.662  14.232  0.4351 -0.0145  0.0689
11112W        W27246  11.932  10.431   0.075  0.0677  0.1903  0.1294
11113W        W27247  11.814   7.734  15.344 -0.0429 -0.1796 -0.0150
11114W        W27248   5.914   9.231   0.249  0.1185 -0.0220 -0.3586
11115W        W27249  12.580  15.432  15.093  0.0862  0.0472  0.1761
11116W        W27250  10.089  17.343  13.295  0.0175 -0.0293 -0.2227
11117W        W27251   2.368  11.281   0.946  0.3087  0.1260  0.0198
11118W        W27252  10.878   5.062  15.741  0.0151 -0.0149 -0.1247
11119W        W27253  14.935   2.090   0.969 -0.1333 -0.0943  0.0383
11120W        W27254  15.014   8.509  13.559 -0.1378 -0.0682 -0.2366
11121W        W27255  14.390   2.116   3.028 -0.0808  0.3784 -0.0898
11122W        W27256  11.412   1.114   4.114  0.0685  0.0073 -0.2833
11123W        W27257  10.655  14.464  13.458 -0.2801 -0.1991 -0.1387
11124W        W27258   6.076   0.330   1.357 -0.2430 -0.0287 -0.4890
11125W        W27259   4.401   8.564   2.730  0.1349  0.0921 -0.3713
11126W        W27260  17.568  16.998   5.934 -0.1456  0.0735  0.3042
11127W        W27261  13.501  10.682  11.047  0.0551 -0.0130 -0.1127
11128W        W27262  10.551   6.759  15.978  0.1625 -0.3385  0.0342
11129W        W27263  16.052  14.518   1.457 -0.1460 -0.0066  0.1566
11130W        W27264  14.247  17.318  13.533 -0.0776  0.2593  0.3101
11131W        W27265  14.840  12.690   5.535  0.0974 -0.1674 -0.0653
11132W        W27266   3.446   9.967  14.159 -0.0300 -0.3903  0.0930
11133W        W27267  12.513   5.880  14.030  0.0341 -0.0073 -0.0073
11134W        W27268   3.308   9.798   1.322  0.0922 -0.1514 -0.2861
11135W        W27269  11.599   9.957   0.074 -0.0743 -0.1301  0.1240
11136W        W27270   9.437  11.441  12.986 -0.0435  0.1815 -0.1148
11137W        W27271   5.830   8.551   4.459  0.1412  0.0226 -0.3426
11138W        W27272   0.696  15.687  11.843 -0.3133 -0.0399 -0.0431
11139W        W27273  10.770   1.531  14.412 -0.1312 -0.3053  0.1758
11140W        W27274  11.463   6.329   3.831 -0.2119 -0.1636  0.1872
11141W        W27275  16.166   0.237  12.849  0.1637  0.0407 -0.0324
11142W        W27276   9.260  12.533  11.848 -0.0000 -0.0718  0.1682
11143W        W27277   2.579   5.337   4.951 -0.3006  0.0724  0.0382
11144W        W27278  11.811  12.102   5.179 -0.0725  0.1244  0.0107
11145W        W27279   5.897  12.720   1.721  0.2372 -0.0664  0.1437
11146W        W27280   3.188  11.061   4.535 -0.0197 -0.1734  0.1603
11147W        W27281  11.037  14.718  12.450  0.3274 -0.2796 -0.3026
11148W        W27282  12.887  12.539   5.006 -0.0666 -0.0653  0.2336
11149W        W27283  14.279   9.443   2.054 -0.0334 -0.0406  0.1722
11150W        W27284   0.042   9.394  16.262  0.0268  0.0304 -0.0382
11151W        W27285   4.860  14.330   4.886 -0.0339 -0.0745  0.2987
11152W        W27286   6.117   4.858   1.364 -0.2163 -0.0370 -0.0684
11153W        W27287  17.858   7.397  16.430 -0.2732 -0.1267  0.1087
11154W        W27288   0.430  11.076  11.914  0.0992 -0.1969 -0.2059
11155W        W27289   5.273   6.050  15.480  0.3662 -0.2424  0.1478
11156W        W27290  15.522   5.082  13.875 -0.1681  0.2480  0.1264
11157W        W27291  13.683  11.340   1.521 -0.1312  0.1495  0.3211
11158W        W27292   5.826  13.040   2.085  0.0755  0.0634  0.1910
11159W        W27293  14.667  14.054  13.345 -0.0592  0.1025  0.0413
11160W        W27294   0.072   4.507  15.250 -0.2610 -0.0599 -0.2319
11161W        W27295   6.735  12.724  12.226  0.0919 -0.0046  0.1354
11162W        W27296   9.892   4.394  12.667 -0.1496 -0.3663  0.4293
11163W        W27297  14.348  15.856  14.132  0.0082 -0.2151 -0.0591
11164W        W27298  15.896   6.157  12.845  0.1550 -0.0017  0.0526
11165W        W27299   3.301   8.881   3.958  0.0265 -0.2179 -0.2366
11166W        W27300   1.842  16.500  14.394 -0.1373 -0.0631  0.0593
11167W        W27301   4.704  14.072  16.461  0.1086  0.1344 -0.0500
11168W        W27302  12.452   3.883  15.116  0.0228  0.2054 -0.4546
11169W        W27303   8.016  12.521   0.314  0.2111 -0.0504 -0.1867
11170W        W27304  12.388   6.690   0.797 -0.2291 -0.1366  0.1779
11171W        W27305  10.565  13.685   4.288  0.0008  0.0416  0.1807
11172W        W27306  11.642  16.840  15.494 -0.1667 -0.3188 -0.0823
11173W        W27307  11.397  15.384   3.808 -0.0298 -0.1208  0.0652
11174W        W27308  11.379  13.234  13.828 -0.0736  0.2935  0.0153
11175W        W27309   4.183   8.990   2.811  0.0852 -0.0529  0.1589
11176W        W27310  17.867   3.565  11.585 -0.0386 -0.2322 -0.0839
11177W        W27311  13.481  15.881   0.705 -0.0733  0.1488  0.0638
11178W        W27312   8.229   1.527   2.969 -0.3334  0.0025  0.0414
11179W        W27313   0.903  16.753   2.363  0.0546  0.0442 -0.1458
11180W        W27314   5.748   7.044  14.027 -0.0825  0.2329  0.0352
11181W        W27315   8.509   8.526  11.063 -0.0219 -0.2378  0.2893
11182W        W27316   0.110   1.926   4.421  0.1082  0.4562  0.1585
11183W        W27317  12.374  13.343  15.820 -0.1040  0.1778 -0.0190
11184W        W27318  13.447   2.135  13.919 -0.2295  0.0347  0.0946
11185W        W27319   8.167   5.995  12.668  0.0268  0.0611 -0.0594
11186W        W27320  15.467   4.362  13.006 -0.0312  0.2840 -0.2282
11187W        W27321  16.129  15.638   0.924  0.2200  0.0563 -0.0392
11188W        W27322  10.359  11.938  12.387  0.0909  0.0063 -0.0140
11189W        W27323   9.891   0.276  14.624  0.2415  0.0000 -0.0802
11190W        W27324   8.902   6.393  13.218  0.1393 -0.1246 -0.1854
11191W        W27325  15.020   7.643  14.938  0.3966 -0.1065  0.1228
11192W        W27326   4.485  12.152  11.796  0.0112  0.1427  0.1152
11193W        W27327   9.039   6.156  11.484  0.0109  0.0927  0.1855
11194W        W27328  16.033  12.364   0.596  0.1900 -0.0606 -0.1140
11195W        W27329  17.187  15.682  12.732 -0.0467 -0.0386  0.0626
11196W        W27330  16.304  10.080  12.492 -0.2993  0.1147 -0.0311
11197W        W27331  12.764  13.327   0.200 -0.0360  0.0956 -0.0790
11198W        W27332   7.573  17.846   5.160 -0.2499  0.5861 -0.1760
11199W        W27333   5.959   6.987   1.404 -0.0433  0.0973 -0.1132
11200W        W27334   8.565   6.795   3.239  0.0150  0.3737 -0.2622
11201W        W27335  17.797   0.082  14.497 -0.1184  0.0428  0.0392
11202W        W27336  17.173  11.900   6.221 -0.3856 -0.0523 -0.0864
11203W        W27337  16.782  16.794  11.940 -0.1240 -0.0311  0.0663
11204W        W27338  10.424  11.902   3.076  0.4041 -0.1006  0.1135
11205W        W27339  11.143   7.894  14.838  0.2389  0.1644  0.1653
11206W        W27340   9.973   8.757  11.207  0.4377 -0.2851 -0.1510
11207W        W27341   7.289  11.525   2.598 -0.0443 -0.1206  0.1679
11208W        W27342  17.077   3.687   1.636  0.1758 -0.0026 -0.2477
11209W        W27343  12.609  14.342  16.046 -0.3802 -0.2869 -0.0159
11210W        W27344   6.919  13.811   4.434  0.1487  0.1649  0.0692
11211W        W27345   0.437   9.464  13.773 -0.2004 -0.1733 -0.4701
11212W        W27346   8.531   3.905  15.264 -0.1035 -0.3041 -0.1230
11213W        W27347  16.748   8.676   1.579 -0.1485 -0.2915 -0.0432
11214W        W27348  17.478  12.390  13.029  0.1585 -0.0549 -0.3324
11215W        W27349  15.692   8.581  15.171  0.1585  0.3719  0.0732
11216W        W27350  10.564   8.984   1.581  0.0227 -0.1092 -0.0899
11217W        W27351   4.557   1.774   5.614  0.2696  0.0436 -0.0387
11218W        W27352  11.858   3.344   3.515 -0.0951  0.3379 -0.0341
11219W        W27353   5.502   4.944  14.214  0.0393 -0.3975  0.0330
11220W        W27354   2.018   2.573   0.608  0.0913 -0.2143  0.1617
11221W        W27355   1.141   3.253  13.626 -0.0734 -0.0253 -0.1130
11222W        W27356  16.579  12.146  14.786  0.1521 -0.2050 -0.0834
11223W        W27357  17.065   0.242   3.927  0.0839 -0.0341  0.3562
11224W        W27358  13.362  10.753  13.805 -0.2289  0.1324  0.1831
11225W        W27359   9.122  16.386  11.535 -0.1741 -0.2116 -0.1144
11226W        W27360  16.985   9.080  15.436 -0.2124 -0.1180  0.0922
11227W        W27361   8.703  14.621  14.606  0.0427  0.2379 -0.2751
11228W        W27362  13.780  10.678  13.430 -0.0038 -0.0548 -0.0916
11229W        W27363   4.074   0.284  16.031 -0.0135  0.2661 -0.3612
11230W        W27364   2.582   2.216   5.180  0.0512 -0.2249  0.2591
11231W        W27365   9.231  16.545  14.934  0.2025 -0.0500  0.2604
11232W        W27366  10.485   5.614   3.116 -0.1287  0.1263 -0.0797
11233W        W27367   8.174  13.960   0.555 -0.1241 -0.1297 -0.0280
11234W        W27368   7.485  16.047   5.123  0.1169 -0.1834  0.2438
11235W        W27369   8.178   4.275   1.158 -0.1390  0.1917 -0.2193
11236W        W27370   7.546  15.199   4.953  0.1746  0.1016  0.2108
11237W        W27371  16.605  11.675   0.908 -0.1874  0.1257 -0.1404
11238W        W27372  17.141   1.945   5.166  0.2562  0.4114 -0.1625
11239W        W27373   1.760   6.122  12.782 -0.1347  0.1982  0.1452
11240W        W27374  11.313  12.176  14.052 -0.0503 -0.0302 -0.0961
11241W        W27375   5.375   0.909   1.570  0.0814 -0.1045  0.2029
11242W        W27376   5.756   1.129   0.902 -0.0439  0.0408  0.2683
11243W        W27377  16.118   8.335   4.431  0.0711  0.1037  0.2462
11244W        W27378  16.287   3.686   3.653 -0.0376  0.1343  0.3002
11245W        W27379  17.079  12.022  11.905  0.2392  0.0169 -0.1724
11246W        W27380  11.171   6.453   3.419  0.0426 -0.1080 -0.1730
11247W        W27381  18.116   1.119   0.914 -0.1324 -0.0373  0.1082
11248W        W27382   8.599  10.443  11.177 -0.0670  0.0611  0.0281
11249W        W27383   0.012  12.056   3.396 -0.0325 -0.0203 -0.0078
11250W        W27384   2.216  18.041   1.674  0.2045 -0.1042 -0.1819
11251W        W27385   1.937   9.375   4.921 -0.0564 -0.0630  0.0679
11252W        W27386  16.033   0.285   6.074 -0.1549 -0.0380  0.0378
11253W        W27387  17.542   8.458  13.845 -0.2361  0.0569 -0.1838
11254W        W27388  10.407  16.149   4.275 -0.4318  0.1578 -0.0232
11255W        W27389  10.500   6.632   0.402  0.0072  0.1337  0.2329
11256W        W27390   4.420  12.752  12.917  0.0100  0.0296  0.0046
11257W        W27391   4.382   8.234  12.419 -0.2535  0.0158 -0.4334
11258W        W27392   5.508   4.634   1.176 -0.2116  0.3575  0.0296
11259W        W27393   8.835  10.852  15.157  0.3341 -0.0997  0.0586
11260W        W27394  11.047  17.500  11.880 -0.1170 -0.0591  0.0828
11261W        W27395   5.408   5.434   0.825  0.0101  0.2509 -0.2589
11262W        W27396   7.716  14.806   5.140 -0.0292  0.2327 -0.1210
11263W        W27397  13.871  11.035   2.458  0.3182  0.0206  0.0946
11264W        W27398   8.650  15.472   2.885 -0.0125  0.1198  0.0133
11265W        W27399  14.866   5.998   5.105 -0.0710 -0.1703  0.0003
11266W        W27400  14.146  13.260   2.032  0.1998  0.1624 -0.0731
11267W        W27401  11.943   4.730   2.343  0.1404 -0.1559 -0.0062
11268W        W27402  11.333  11.899   1.388  0.1461 -0.2150 -0.0953
11269W        W27403  13.059   8.691  14.286  0.1308 -0.4854 -0.0935
11270W        W27404   9.843   5.162  13.902  0.1197  0.0263  0.0234
11271W        W27405  14.888   0.002   0.977 -0.1162 -0.2571  0.1550
11272W        W27406  16.160  13.534  14.393  0.0726 -0.1068  0.0165
11273W        W27407  15.119  16.547   3.061  0.0116  0.4549  0.0884
11274W        W27408  10.960  17.937   1.465  0.0737  0.1059 -0.3246
11275W        W27409   7.027  15.378   2.154 -0.0355 -0.0747  0.0765
11276W        W27410   7.903   6.143  15.553 -0.0935  0.3254 -0.1553
11277W        W27411   3.616  10.121   5.159  0.0584 -0.0205  0.1765
11278W        W27412   2.743  14.239   4.256  0.0028  0.1624  0.2819
11279W        W27413   0.011   7.521  15.951  0.0690 -0.2433 -0.1074
11280W        W27414   3.576  13.038  15.052  0.0652  0.2082 -0.4493
11281W        W27415  17.053  17.081  14.309  0.2388  0.2885  0.0989
11282W        W27416   0.941   5.822   0.096 -0.0251  0.2967  0.2281
11283W        W27417   6.147   7.924  12.811  0.3733 -0.0567  0.0560
11284W        W27418   9.536  15.196  16.263 -0.1178 -0.0403  0.1447
11285W        W27419  14.280  16.358  14.213 -0.1799 -0.1225 -0.0212
11286W        W27420   8.151   1.606  14.090  0.1304  0.0748  0.0323
11287W        W27421   7.817  12.488   3.823  0.0444  0.1003  0.2700
11288W        W27422   6.278  12.723   2.885  0.0813  0.0372  0.2902
11289W        W27423  15.070  15.954   2.188  0.1486 -0.1684  0.0407
11290W        W27424  10.347   6.691  11.833  0.1327 -0.0031 -0.3500
11291W        W27425   9.944   4.463  16.424 -0.2090  0.0642  0.0106
11292W        W27426   9.397   4.993  12.256 -0.1761  0.0639  0.0508
11293W        W27427   1.066   3.788   0.663  0.2487  0.0838  0.0698
11294W        W27428   4.228  10.758  15.978  0.1384 -0.0005  0.1732
11295W        W27429   5.137   2.145   6.222 -0.1281  0.2300  0.1547
11296W        W27430  17.634  14.600   1.496 -0.2159 -0.2986 -0.1395
11297W        W27431  15.048   4.104  11.761  0.1563 -0.1731 -0.0545
11298W        W27432   5.157  11.708  13.718  0.2334 -0.1529 -0.2057
11299W        W27433   4.122  15.897   1.336 -0.0867 -0.0730  0.1792
11300W        W27434   8.405   5.415  15.689  0.0232 -0.0816 -0.2575
11301W        W27435   9.798   0.015   3.700 -0.3703 -0.2128  0.0656
11302W        W27436   5.041  13.581  16.467 -0.1875  0.1109  0.2885
11303W        W27437  14.090   8.100   3.079  0.2097  0.3721  0.1521
11304W        W27438  13.324  15.994   6.398  0.0475 -0.0398  0.1939
11305W        W27439   4.978   4.187   0.070 -0.1565 -0.0254 -0.2785
11306W        W27440   2.849   7.908   3.522  0.0325 -0.2134  0.1812
11307W        W27441  11.749  14.681   3.210 -0.0054  0.4414 -0.0042
11308W        W27442  12.357  12.356   5.089  0.0470  0.1304 -0.1834
11309W        W27443   5.652   5.807  12.329  0.3995 -0.3808  0.1314
11310W        W27444  16.409   3.737   4.193 -0.2572  0.2091  0.0452
11311W        W27445   2.595  12.697  13.485  0.0989  0.1408  0.0304
11312W        W27446   7.936  11.609  16.391  0.0099  0.0014  0.3688
11313W        W27447   6.533   1.399   4.902  0.0198 -0.0149 -0.0694
11314W        W27448   4.489   1.793  16.181 -0.0727 -0.2634 -0.1736
11315W        W27449  12.144   3.605   1.638  0.1533  0.0700  0.1418
11316W        W27450   7.605  17.214   3.252 -0.0498 -0.0799  0.0865
11317W        W27451   0.405  15.527  13.476 -0.0632  0.0018 -0.0821
11318W        W27452  11.851  10.667  16.115  0.0530  0.0143 -0.0838
11319W        W27453   4.342   6.548  11.683  0.0292 -0.0310  0.1526
11320W        W27454  14.146   8.834  13.474 -0.3044  0.0320  0.0212
11321W        W27455  10.044  12.312   4.828  0.3657 -0.0911 -0.0917
11322W        W27456  11.884  17.832   0.633  0.1763  0.1559 -0.1166
11323W        W27457  14.547   4.891   3.639 -0.0793  0.0443 -0.1509
11324W        W27458   9.893   6.844  14.205  0.2928  0.2887 -0.0698
11325W        W27459  10.915   5.698   1.666 -0.1444 -0.2630 -0.2203
11326W        W27460  17.382  16.602   5.615 -0.4131  0.0552 -0.0543
11327W        W27461   8.374   9.711   4.256  0.1130  0.5456 -0.1316
11328W        W27462  11.681  16.055   3.440  0.1123 -0.0618 -0.1863
11329W        W27463  14.145   7.453  13.087  0.1027  0.1013  0.3502
11330W        W27464  16.817   3.001   2.505 -0.2318  0.0729 -0.2449
11331W        W27465  10.043   5.944   6.179 -0.2439  0.0275  0.0180
11332W        W27466  12.254  11.879  13.695  0.1332  0.4098 -0.1656
11333W        W27467   5.194  10.686   2.693 -0.1256 -0.0522  0.0983
11334W        W27468   1.158  14.666   0.661  0.1067  0.1996  0.0479
11335W        W27469  16.363   2.330  13.501 -0.0897 -0.3128  0.0736
11336W        W27470   9.799  15.287  12.387  0.0842 -0.3088  0.0285
11337W        W27471  14.088   3.035  14.129  0.0587  0.0750 -0.3590
11338W        W27472   9.295  10.037  15.541 -0.1747  0.1904  0.1014
11339W        W27473   6.376  16.394   1.563  0.1179 -0.1498  0.2034
11340W        W27474   9.932  15.713  14.039  0.1628 -0.2808 -0.1386
11341W        W27475  10.642  15.335   2.245  0.0242  0.0708 -0.0480
11342W        W27476   8.007  13.660  12.617 -0.0466 -0.2056 -0.0683
11343W        W27477   2.573   9.735  12.900 -0.0048 -0.2059 -0.1593
11344W        W27478   1.799  11.184  14.834 -0.0047 -0.3080 -0.0391
11345W        W27479   5.029  15.780  14.374  0.1091  0.0185 -0.3044
11346W        W27480  12.412  15.494   3.637  0.1091 -0.1802  0.0438
11347W        W27481   3.163   5.973   2.680  0.0133 -0.1032  0.0051
11348W        W27482  10.681  15.805   2.097  0.1012 -0.2323 -0.0354
11349W        W27483  12.482   2.146  16.381  0.0498 -0.1178 -0.0537
11350W        W27484  11.185   3.270  16.256 -0.3274 -0.1299 -0.0714
11351W        W27485  15.597  16.020   1.807  0.2010  0.3499  0.2189
11352W        W27486  14.005  15.411   1.189 -0.4997 -0.1565 -0.0174
11353W        W27487  12.514  10.331  13.729  0.1863 -0.1134  0.1066
11354W        W27488   2.006   7.317   1.567  0.1039  0.1090  0.0878
11355W        W27489  11.209  17.926   2.443 -0.1876  0.2030 -0.1931
11356W        W27490   5.904  12.621   5.749  0.1146 -0.1655  0.0301
11357W        W27491  12.878   8.345   1.722 -0.1325 -0.0345 -0.3947
11358W        W27492  10.742   2.420  14.200  0.3713 -0.1020 -0.1986
11359W        W27493   9.108   2.049  14.895  0.3756  0.1985  0.1357
11360W        W27494  14.240  10.879  14.469  0.0715 -0.0873  0.0370
11361W        W27495  17.143   5.886  11.872  0.2717 -0.0002  0.0312
11362W        W27496  11.395  13.604   5.627 -0.1385  0.1326 -0.1915
11363W        W27497   3.323   6.309   1.587 -0.0571 -0.0411 -0.1084
11364W        W27498  14.075  13.586  12.956  0.2359 -0.1584  0.5246
11365W        W27499  11.736  16.467   0.850  0.2575 -0.0331 -0.1356
11366W        W27500   5.962   1.269   5.766  0.0341 -0.0784  0.0496
11367W        W27501  12.541   2.359   1.935  0.2400  0.0514 -0.1179
11368W        W27502  12.514  17.113   0.043 -0.1680  0.0623 -0.5497
11369W        W27503   0.026  14.503   5.877  0.0634 -0.4191 -0.2881
11370W        W27504  12.835   8.303  14.039 -0.2488  0.1562  0.3635
11371W        W27505   7.016  17.435  15.980 -0.0199  0.0501  0.2396
11372W        W27506   1.120  17.685   1.776  0.0041 -0.0847 -0.0322
11373W        W27507   8.564   5.525   5.376  0.1791 -0.1023 -0.0802
11374W        W27508   7.976   3.218  15.302  0.4451 -0.1245  0.1756
11375W        W27509   5.491   0.683  15.352 -0.0871  0.0234  0.1503
11376W        W27510  15.842   5.826  13.905 -0.1289  0.2557  0.2461
11377W        W27511   2.933  10.611   1.258  0.1017 -0.3065  0.2754
11378W        W27512   8.285   5.806   3.611  0.0614 -0.2842  0.0152
11379W        W27513  10.778   1.264   0.688 -0.2525 -0.1338  0.3803
11380W        W27514   5.533  13.510   1.923 -0.0424  0.2937 -0.0562
11381W        W27515   2.670  12.225  15.802  0.0999  0.2996 -0.0661
11382W        W27516   5.256  17.618   0.576  0.1475  0.1149 -0.0521
11383W        W27517   4.825  14.039   5.549  0.1695 -0.2070  0.4667
11384W        W27518  11.936  10.737   0.883 -0.1638 -0.3083  0.2495
11385W        W27519  15.617   0.258  14.713  0.0856  0.1326 -0.1775
11386W        W27520   6.537  11.234   4.290 -0.0486  0.3564 -0.2092
11387W        W27521   5.733   8.353  15.016 -0.0270 -0.1427 -0.2306
11388W        W27522  16.056   5.334   3.172  0.3368 -0.0124 -0.1915
11389W        W27523   2.101   3.732   3.848  0.0005  0.2100 -0.0590
11390W        W27524   5.980  17.877  14.625 -0.2097 -0.0885 -0.3319
11391W        W27525  14.262  14.059   3.663 -0.1890 -0.2279  0.1144
11392W        W27526   3.193  16.945   1.005  0.4442 -0.0615 -0.0665
11393W        W27527   1.246   0.596   2.173 -0.1430 -0.0243 -0.3226
11394W        W27528   8.216  10.929   1.370 -0.1429  0.1592  0.1021
11395W        W27529   2.529  16.806  14.275 -0.1072 -0.1044 -0.0903
11396W        W27530   5.156  16.437  12.745 -0.1453  0.0570  0.0141
11397W        W27531  14.503  12.926   2.168  0.2696  0.2097 -0.0847
11398W        W27532  11.537  10.191   1.361 -0.0683  0.2201 -0.2519
11399W        W27533   6.655   5.240  12.478  0.3618 -0.0263  0.0267
11400W        W27534  14.850  15.049   2.359 -0.0981  0.1172 -0.1514
11401W        W27535   3.096   1.465  13.253  0.3337 -0.3316  0.0568
11402W        W27536  16.043  14.770  13.730 -0.0519  0.1513 -0.2058
11403W        W27537  15.888  14.507   3.745 -0.0189 -0.1277 -0.1149
11404W        W27538   5.716   2.572   1.387  0.0278  0.1945  0.2112
11405W        W27539  17.405   6.961   1.782  0.1225  0.0121 -0.2227
11406W        W27540   0.813  12.387   1.373  0.3464 -0.1690  0.0716
11407W        W27541  11.535  11.393  16.363 -0.0703  0.0476  0.3412
11408W        W27542   0.060  10.610   3.498  0.0592 -0.2106 -0.3213
11409W        W27543   5.207   5.746   2.780  0.0011 -0.1666 -0.0924
11410W        W27544  11.936   9.249   1.490 -0.0496 -0.2827 -0.2026
11411W        W27545  12.474  12.820   4.796  0.0244  0.0033 -0.0534
11412W        W27546   4.822   8.280   0.560  0.4548  0.2161  0.0769
11413W        W27547  16.170   9.466   3.117  0.0296 -0.1081  0.1736
11414W        W27548   2.061   1.590  16.272  0.1980 -0.0489  0.1416
11415W        W27549  16.084  13.811   2.475  0.2978  0.0458 -0.2177
11416W        W27550  11.004   9.866   2.695  0.1033 -0.0367 -0.1172
11417W        W27551   3.779   2.893   5.565 -0.0135  0.1762 -0.0792
11418W        W27552   6.587  14.156  11.585 -0.1718 -0.0091 -0.3257
11419W        W27553  17.094   6.944  16.449 -0.0861  0.1289  0.1747
11420W        W27554   6.237   9.188  15.806 -0.2794 -0.2316 -0.1213
11421W        W27555  11.826  13.588  16.289  0.1551 -0.2559  0.0437
11422W        W27556  13.124   9.778   5.549  0.0668  0.0431 -0.0296
11423W        W27557  15.719   7.057   4.357 -0.0524  0.3701 -0.0686
11424W        W27558  18.074  14.396  16.043 -0.1643  0.3349  0.3611
11425W        W27559  12.765  12.239  13.107  0.1594 -0.1612  0.0907
11426W        W27560  12.183   1.916  12.827 -0.1647 -0.0901  0.0458
11427W        W27561   1.411   5.765   5.446 -0.2237  0.0064  0.0472
11428W        W27562   2.360   7.684   4.713 -0.3353 -0.0524 -0.3741
11429W        W27563  15.129   3.716  16.496  0.1303  0.0280 -0.4073
11430W        W27564  11.283  12.117   2.386  0.1898  0.0140 -0.0230
11431W        W27565   6.168   9.503  16.337  0.1737  0.0540  0.0303
11432W        W27566   9.837  11.973  14.895  0.3817  0.0622 -0.0489
11433W        W27567   3.320  13.035  15.517  0.0724  0.1082  0.0087
11434W        W27568   9.820   7.586  14.398  0.0827 -0.3224  0.0212
11435W        W27569  10.567   0.686   0.823  0.1827  0.1822 -0.0780
11436W        W27570  15.515  17.230  11.926 -0.2596  0.1310  0.0733
11437W        W27571  17.561  12.264  12.189  0.0944 -0.4360 -0.0703
11438W        W27572  10.624   3.759  14.226  0.0701  0.1444 -0.2721
11439W        W27573  11.308   7.559  16.074  0.0717 -0.0238  0.0026
11440W        W27574  10.143   4.622   3.316 -0.2072  0.0899  0.0063
11441W        W27575   4.571   8.904  10.766  0.0498 -0.0739  0.4867
11442W        W27576  10.290   2.443  15.118 -0.2598 -0.0801 -0.0907
11443W        W27577   0.748   9.111   0.080 -0.0706  0.2997  0.0836
11444W        W27578   8.375  17.657  11.568  0.0680 -0.0887 -0.2113
11445W        W27579   6.314   8.258  11.095 -0.1838  0.3125  0.0929
11446W        W27580  11.557  12.863   5.278 -0.3447 -0.0114  0.1139
11447W        W27581  13.049  10.129   4.224  0.2786  0.3022  0.1286
11448W        W27582   9.964   7.502   2.542 -0.1016  0.0228  0.0966
11449W        W27583  17.682   7.158  10.950 -0.1972  0.2298  0.0798
11450W        W27584   1.653   1.435  12.444 -0.3731  0.0903  0.6453
11451W        W27585  15.878   9.120  15.209 -0.2471  0.2167 -0.1639
11452W        W27586  15.472  14.530   6.396  0.1153 -0.3444 -0.2557
11453W        W27587   0.357  14.209   2.821 -0.1509  0.1369 -0.1738
11454W        W27588  15.913  15.255   1.768 -0.1621  0.0812 -0.2131
11455W        W27589   8.671  10.119   4.309  0.1982 -0.2415 -0.2725
11456W        W27590   6.839   8.276   3.300  0.0047 -0.0506 -0.0641
11457W        W27591  15.228   6.362  11.614 -0.1916  0.0052  0.3792
11458W        W27592   4.834   9.570  12.277  0.1871  0.0284  0.0852
11459W        W27593  11.483   2.913  16.066  0.1571 -0.2096  0.1927
11460W        W27594  17.280   7.690  14.382 -0.1107  0.4907  0.1420
11461W        W27595  13.209   5.542  11.811  0.1810 -0.1697 -0.0063
11462W        W27596  16.222  14.070   5.933 -0.1772 -0.3349 -0.0458
11463W        W27597   8.672   8.130   2.173  0.0371  0.2852  0.4973
11464W        W27598  11.899   2.278  15.553  0.1191 -0.1347  0.0509
11465W        W27599   1.438  16.313   2.663 -0.1781  0.1959 -0.0394
11466W        W27600   9.147  16.815  14.120  0.2560 -0.1764 -0.1257
11467W        W27601  15.259  13.737   2.295 -0.2724 -0.0729 -0.0839
11468W        W27602  11.116  15.805   3.831  0.2470 -0.1982 -0.0052
11469W        W27603  14.452   4.935  14.905  0.1383 -0.2142 -0.1873
11470W        W27604  13.218  14.459   5.640  0.0626  0.1705  0.0612
11471W        W27605   2.064   3.397  14.449 -0.0901  0.0153  0.0429
11472W        W27606  12.571   9.701   3.444 -0.0253  0.5248  0.1965
11473W        W27607  13.645   0.094  13.436  0.2064  0.0383  0.0494
11474W        W27608   8.558  15.275   2.406 -0.3322 -0.2262 -0.1447
11475W        W27609   5.095   2.635  15.179  0.0252 -0.1062 -0.1387
11476W        W27610  12.840   1.539   0.166 -0.1427 -0.3951  0.2112
11477W        W27611  11.973   2.759  13.336 -0.1177  0.0566  0.2098
11478W        W27612   5.366   5.376  16.434 -0.3627  0.3469 -0.2624
11479W        W27613   6.522  14.113   3.674  0.1487 -0.0648  0.3191
11480W        W27614   5.889   1.408   5.230 -0.2705  0.1951 -0.2019
11481W        W27615   1.176   7.541  12.414  0.1386  0.2422 -0.0527
11482W        W27616   7.507  13.283   0.408 -0.0887  0.1698  0.2083
11483W        W27617   0.925   0.316  12.956 -0.3427  0.2395  0.2075
11484W        W27618   2.692  17.196  13.333  0.1858  0.2153 -0.2353
11485W        W27619   0.476   4.668   5.117 -0.1198  0.1965  0.3242
11486W        W27620  16.155  16.864   5.836 -0.1262  0.0377  0.1663
11487W        W27621  17.411   1.423   5.429 -0.0634 -0.1956  0.0409
11488W        W27622  15.745  11.713   1.068 -0.1830  0.1579  0.1868
11489W        W27623   5.164  17.843   1.548  0.0944  0.0689 -0.0662
11490W        W27624  13.341   5.619   6.081 -0.2783  0.1117  0.2847
11491W        W27625   5.922  14.660  14.576 -0.5362  0.1396  0.0161
11492W        W27626  12.775   2.069  12.295 -0.2569 -0.5145  0.0311
11493W        W27627   7.845   0.749   5.850 -0.2381 -0.3195 -0.0434
11494W        W27628   3.740   1.218   3.097 -0.1345  0.3966 -0.1103
11495W        W27629   8.856  14.515  15.083  0.3230  0.2633  0.3350
11496W        W27630  15.206   9.014   0.447 -0.0861  0.4533 -0.1847
11497W        W27631   1.004  14.945  14.957 -0.0505  0.0941  0.0313
11498W        W27632  17.119   0.888   3.608 -0.0371 -0.0202  0.0468
11499W        W27633   6.845   7.192  15.933 -0.2869  0.1818  0.0641
11500W        W27634   3.671   4.055   5.094 -0.0894  0.0717  0.0289
11501W        W27635  10.249  16.469   0.959 -0.1993 -0.0810  0.3229
11502W        W27636   0.033   1.883  13.732 -0.1155 -0.0024 -0.2840
11503W        W27637   2.559   2.633   1.557 -0.0471 -0.0388  0.1117
11504W        W27638   4.768   0.334  15.712 -0.1894 -0.1781 -0.1554
11505W        W27639  10.777   1.801  12.292 -0.2724  0.0113  0.0193
11506W        W27640  14.865   8.730   5.655  0.1507 -0.1106 -0.2153
11507W        W27641   8.202  16.014   3.591  0.1782 -0.2796  0.2975
11508W        W27642   6.389   2.252   0.229  0.2066 -0.1038 -0.2577
11509W        W27643   3.957   4.010   4.136  0.0569  0.0104 -0.0072
11510W        W27644  11.452  17.153   2.449  0.2969 -0.0211 -0.1053
11511W        W27645   5.249   2.598   1.458  0.3053 -0.1970  0.3042
11512W        W27646   3.069  15.263  12.409  0.2752 -0.1776  0.2479
11513W        W27647  17.632   9.486   5.201 -0.1727 -0.1964 -0.2430
11514W        W27648  13.085  14.425  11.964 -0.1903 -0.3171  0.0934
11515W        W27649   2.004   8.944  15.149  0.0425  0.2468 -0.1268
11516W        W27650  17.738  14.932   3.894 -0.2388  0.0354 -0.1438
11517W        W27651  12.952   7.505   0.234 -0.0705 -0.0778 -0.2489
11518W        W27652   8.143  15.674  15.147 -0.0626  0.1008  0.0604
11519W        W27653  16.921  17.018   3.938 -0.0492  0.1057  0.0021
11520W        W27654  13.468  11.322  13.829  0.0414 -0.0319 -0.0965
11521W        W27655   1.636  12.006   2.428  0.0125 -0.3039 -0.1819
11522W        W27656   4.754   0.469   5.133  0.1263 -0.3870  0.1736
11523W        W27657  13.150   9.545  10.282 -0.2224 -0.1192  0.0155
11524W        W27658  10.540   1.210  11.765  0.1730  0.0536  0.1918
11525W        W27659  14.182   3.796   5.232 -0.0020 -0.1710 -0.1916
11526W        W27660   1.656   4.565  15.051 -0.0351  0.1130  0.2417
11527W        W27661  11.335   7.796   3.681 -0.4200  0.3146  0.0716
11528W        W27662   0.417  16.268  16.051  0.3236  0.1099  0.1900
11529W        W27663   9.185  17.712  15.520  0.1232 -0.1784  0.2762
11530W        W27664   4.230  13.619   0.493  0.0415  0.1178 -0.0615
11531W        W27665   0.336   1.518  12.292 -0.1684 -0.1424 -0.1916
11532W        W27666  14.902   6.308   1.178 -0.3967 -0.0531 -0.0919
11533W        W27667   2.063   8.356   4.379  0.1920  0.0595  0.0840
11534W        W27668   9.320   5.913  16.529 -0.0531  0.0685 -0.3352
11535W        W27669   2.855   4.055   0.228 -0.0764  0.1027  0.2533
11536W        W27670   2.773  10.488  15.306 -0.2727 -0.1932  0.3291
11537W        W27671  14.700  13.367  11.985  0.1767  0.1691 -0.0048
11538W        W27672  15.606   7.776   1.723  0.0823  0.3663 -0.0156
11539W        W27673   2.453   4.534   3.317 -0.1479 -0.1001  0.0004
11540W        W27674  16.908  10.613   5.816  0.2149  0.0028  0.0653
11541W        W27675  11.327  16.833  14.762 -0.0745 -0.3565  0.0890
11542W        W27676  16.296   4.051  12.303  0.0356  0.2092 -0.0597
11543W        W27677  17.546   4.006   0.219  0.1382 -0.1660  0.1213
11544W        W27678   6.537   7.871  10.563  0.2070  0.0227 -0.1262
11545W        W27679   9.402   4.164   3.793  0.0906  0.3564  0.1248
11546W        W27680   6.547  14.605  15.884 -0.1248 -0.0453 -0.1071
11547W        W27681  10.102   9.634  12.190 -0.2803  0.1613  0.1169
11548W        W27682   5.426  15.752   5.943 -0.1945  0.0221 -0.0516
11549W        W27683   7.261  16.244  11.887  0.0332 -0.0951  0.1007
11550W        W27684  13.729   9.599   1.472  0.0176 -0.0387 -0.3189
11551W        W27685  13.431   5.832  12.819  0.0488 -0.1998  0.0575
11552W        W27686   9.181   4.431   4.993 -0.3794  0.0965  0.0219
11553W        W27687   4.860   3.193  14.799 -0.0143  0.4994 -0.1831
11554W        W27688  17.542  16.302   2.199  0.0065 -0.0424  0.2345
11555W        W27689  11.212   3.892  16.290 -0.1879  0.1359 -0.4168
11556W        W27690  12.419   4.426   1.680  0.3086 -0.1810  0.2679
11557W        W27691  17.554   5.488  14.554  0.1988 -0.0001 -0.0704
11558W        W27692   0.381   2.081  13.077  0.2223  0.0503  0.4500
11559W        W27693  15.490   4.784   3.852 -0.2900 -0.0264  0.1212
11560W        W27694   1.670  14.941   1.149  0.1814  0.1105  0.0107
11561W        W27695   6.118   9.030  14.680  0.2495  0.0610 -0.0754
11562W        W27696  15.021  16.183  12.718 -0.0699 -0.4026  0.0688
11563W        W27697   0.043   8.492  15.280 -0.2601 -0.0365  0.1510
11564W        W27698  14.205   1.592   3.244 -0.1861  0.1377  0.0638
11565W        W27699   8.847   9.084  14.412 -0.1137 -0.0644  0.3237
11566W        W27700   4.077  10.894  14.974  0.2011  0.0083 -0.3596
11567W        W27701   9.668   9.645  15.084 -0.1177 -0.0701 -0.1098
11568W        W27702   7.455  10.021  13.372  0.1253  0.1184  0.1575
11569W        W27703  14.341  15.223   2.165  0.0237  0.2370  0.1238
11570W        W27704  17.988   5.035  10.349  0.0637  0.0312 -0.0610
11571W        W27705  16.756  10.044  15.427  0.4594  0.0958 -0.2351
11572W        W27706   9.382  16.655   2.501  0.0284 -0.1346 -0.3966
11573W        W27707  17.159   0.045  14.401 -0.2664  0.2695 -0.1129
11574W        W27708   2.029   9.684  12.054  0.0838  0.0538 -0.3131
11575W        W27709   4.826   8.709  13.973 -0.0206  0.1454  0.2746
11576W        W27710  11.665   3.743   3.694 -0.3268  0.0549 -0.1858
11577W        W27711   7.585  13.513  14.390 -0.0302 -0.2722  0.2733
11578W        W27712  15.569   5.702   1.354 -0.0363 -0.0858  0.0636
11579W        W27713  11.225  17.854   6.106 -0.0959 -0.2682 -0.0795
11580W        W27714  16.806   9.695   3.095 -0.2495  0.1578 -0.2280
11581W        W27715   8.629   8.822  12.542 -0.2529 -0.1481 -0.2622
11582W        W27716  13.014  14.280   2.292 -0.0869 -0.3524 -0.0313
11583W        W27717   9.666  15.458   0.211 -0.0124  0.1071 -0.1174
11584W        W27718   1.331   3.624  15.526 -0.2161 -0.1709 -0.0109
11585W        W27719   8.145   2.778  15.444 -0.1475  0.2147 -0.0751
11586W        W27720  10.814  11.312  14.968  0.0247  0.3717  0.0200
11587W        W27721   2.318  10.518  14.431 -0.1263  0.2055 -0.1339
11588W        W27722  16.195  16.989   4.464 -0.0112 -0.1558  0.0247
11589W        W27723   4.030  14.924  12.118 -0.1481 -0.1358 -0.1711
11590W        W27724  14.021  13.587  15.458 -0.1643  0.0454 -0.2262
11591W        W27725  14.402   9.486  10.917 -0.0454 -0.0096  0.2042
11592W        W27726   1.417  16.867  12.383 -0.0754  0.0839  0.0687
11593W        W27727   2.465   7.934   2.563 -0.1288 -0.3462  0.0421
11594W        W27728  16.500  14.527   1.927 -0.3137  0.2044 -0.0961
11595W        W27729   8.802   5.956   3.549  0.3244  0.2492 -0.0014
11596W        W27730   4.629   6.085   3.240  0.0920 -0.1785 -0.1005
11597W        W27731  13.506   2.696   2.812  0.0891  0.0689 -0.0137
11598W        W27732  13.908  17.424  10.587 -0.1272 -0.1181 -0.1167
11599W        W27733  11.259  15.953  13.119  0.2763 -0.1446  0.0171
11600W        W27734   0.595   1.808   1.142  0.2980 -0.0868  0.1320
11601W        W27735   5.464   6.818  11.533 -0.1149  0.1217 -0.3087
11602W        W27736   7.672   7.371  14.763  0.2515 -0.0764  0.0256
11603W        W27737  16.142   6.346   1.614  0.1194  0.1337 -0.2910
11604W        W27738   3.791   6.836  14.613 -0.0353 -0.0583  0.1871
11605W        W27739   8.164  10.594   2.174  0.2019  0.1410 -0.0044
11606W        W27740   5.893  11.528   1.262  0.0829  0.0804  0.1631
11607W        W27741  11.337   9.323   0.373  0.1149 -0.0527  0.2511
11608W        W27742  16.350   4.535  13.939  0.0422 -0.1461  0.1382
11609W        W27743  10.290   6.030   1.058 -0.0892  0.1552  0.0574
11610W        W27744  11.466  11.055  11.112  0.0951 -0.0660 -0.1660
11611W        W27745  17.486  12.815   3.294  0.4617  0.0465  0.1263
11612W        W27746   8.798   0.731   3.364  0.0594 -0.0734  0.3428
11613W        W27747  14.204  11.472   3.666 -0.0377  0.0460 -0.2224
11614W        W27748  13.458  16.420   6.085 -0.0633  0.3596  0.2078
11615W        W27749   2.342  14.146   3.204  0.4156  0.0698  0.2822
11616W        W27750   3.617  13.740   4.369 -0.0410  0.2462 -0.3533
11617W        W27751  17.148  11.963   3.372 -0.1345  0.1675  0.0567
11618W        W27752  15.941  13.313   3.776 -0.3706  0.0930  0.0470
11619W        W27753   6.283   8.877  13.426 -0.1647  0.0056 -0.0687
11620W        W27754  14.298  14.301  11.202  0.2818  0.3909  0.0462
11621W        W27755   7.168  13.086   1.411  0.0270  0.1494 -0.3393
11622W        W27756   3.437   2.924   2.467 -0.0341  0.2817 -0.0246
11623W        W27757  16.910   3.156  16.292 -0.1974 -0.4093  0.0598
11624W        W27758  15.019   9.374   0.154  0.1965  0.0645  0.2546
11625W        W27759  13.409  16.819   0.075  0.0865  0.1223  0.0327
11626W        W27760  17.042   4.214   1.575  0.1116  0.2298 -0.0862
11627W        W27761   4.543   9.589   3.404 -0.0998  0.3184  0.0287
11628W        W27762  17.733  12.374  13.975 -0.2183 -0.0816  0.1112
11629W        W27763   0.884  10.542  15.230  0.3123 -0.1297 -0.3814
11630W        W27764   4.535   8.887  15.814 -0.0747  0.1308  0.0964
11631W        W27765   5.957  11.046  14.808 -0.1215 -0.3727 -0.0168
11632W        W27766   0.083   4.882   3.809  0.1949 -0.1318  0.1037
11633W        W27767   5.313   4.998  11.462 -0.0524 -0.0846  0.3437
11634W        W27768   1.156   4.079   2.747 -0.0846  0.0652  0.2108
11635W        W27769   8.210  13.991  11.722  0.4234  0.0179  0.0445
11636W        W27770   9.866   0.123  15.950  0.1929  0.0711 -0.1027
11637W        W27771  16.703  14.044   5.636 -0.0544 -0.3778  0.0302
11638W        W27772   1.901  17.917   4.168 -0.1431 -0.0928 -0.0359
11639W        W27773   1.544  10.205   4.574 -0.2219  0.2497 -0.2221
11640W        W27774  14.172   8.318  13.227  0.0497 -0.1656  0.0114
11641W        W27775   8.747  12.648  11.850  0.2011  0.0033  0.0297
11642W        W27776   6.121   8.731   0.658 -0.2360 -0.1779 -0.1236
11643W        W27777  12.554   4.919   0.755  0.0041 -0.1653  0.2621
11644W        W27778   4.528  14.059  14.489 -0.0446 -0.0934  0.2785
11645W        W27779  12.752   4.618   0.372 -0.1954 -0.1416  0.4789
11646W        W27780  16.478  14.260   2.526  0.0199 -0.1569  0.2504
11647W        W27781   3.025   3.389   5.251  0.1697 -0.1827  0.0116
11648W        W27782  13.243   9.294  13.661  0.3154 -0.0737 -0.1570
11649W        W27783   6.593   3.653  14.467  0.0625  0.0392 -0.0805
11650W        W27784  12.239  12.382  13.007 -0.0848  0.0272 -0.0936
11651W        W27785   3.889  11.092  15.689 -0.0554 -0.2280  0.1694
11652W        W27786   7.976   1.861  16.016 -0.0173 -0.0627  0.1876
11653W        W27787   6.925   5.265   2.848 -0.1408 -0.2542 -0.1077
11654W        W27788  15.069   7.429  12.107 -0.2353  0.3396 -0.2009
11655W        W27789  10.631   6.149   2.912  0.0819  0.0556 -0.0910
11656W        W27790   1.076   0.753  12.512  0.3272  0.2374 -0.0329
11657W        W27791  10.913  10.985  16.394 -0.1535  0.0597 -0.1123
11658W        W27792   5.655   5.686   0.338 -0.0455 -0.0346  0.1244
11659W        W27793   2.830  15.329  14.351  0.1174  0.1488  0.2400
11660W        W27794  13.714   9.502  13.648 -0.2826 -0.1920  0.1301
11661W        W27795   9.777  15.334   2.301 -0.2080 -0.1502 -0.1505
11662W        W27796   2.477   0.878   4.571  0.0246  0.3430  0.0338
11663W        W27797   5.969   0.953   3.141  0.0112 -0.0170  0.1063
11664W        W27798   8.271  17.389   1.450 -0.2541 -0.0125 -0.0011
11665W        W27799   9.662  12.043   3.282 -0.0970 -0.4352  0.1854
11666W        W27800  11.247  13.170   2.634  0.1846 -0.1687  0.0336
11667W        W27801   8.085   0.925  15.904 -0.1021 -0.1314  0.0028
11668W        W27802   7.332   1.360   3.381 -0.2294 -0.1949  0.1810
11669W        W27803  12.131   1.002  15.210 -0.0263 -0.2575  0.0120
11670W        W27804   9.322  17.668  14.032 -0.2262 -0.1284  0.1197
11671W        W27805  17.797  16.122  11.451  0.2820 -0.1098 -0.1356
11672W        W27806  17.268  10.152  14.037  0.0964  0.1229 -0.0744
11673W        W27807   7.628   3.964   2.599 -0.3054  0.4800  0.1361
11674W        W27808  13.037   0.731   1.739 -0.3520  0.0588  0.0783
11675W        W27809   1.772   4.738  11.946 -0.0038 -0.2894 -0.2183
11676W        W27810  13.039   7.859  16.392 -0.0043  0.0993  0.0989
11677W        W27811  17.412  15.310  14.346 -0.2913 -0.3698 -0.1803
11678W        W27812   9.240   1.383   0.576  0.2799  0.2196 -0.2144
11679W        W27813   4.555   2.960  12.598 -0.0320 -0.1411  0.2132
11680W        W27814   4.254   7.002   3.592 -0.3124  0.0555 -0.2207
11681W        W27815   8.187   8.418   1.366 -0.2591  0.2497 -0.1566
11682W        W27816   0.634   5.366   6.072 -0.0137 -0.2589  0.1621
11683W        W27817   2.943  16.669  13.573 -0.0374  0.1321 -0.1774
11684W        W27818  15.447  14.569  15.707 -0.3940  0.1123  0.2620
11685W        W27819  13.217  17.071   5.348 -0.1848 -0.1709  0.0617
11686W        W27820  13.281   5.437   3.097  0.0436 -0.0058  0.0043
11687W        W27821  18.163  17.241  14.374 -0.2634  0.2591  0.0637
11688W        W27822   2.480   9.122  10.740 -0.2661  0.0357  0.3055
11689W        W27823  17.905  12.219   2.088 -0.1801 -0.0257 -0.2391
11690W        W27824   5.354  11.065  15.870 -0.0976 -0.3052  0.0716
11691W        W27825   1.544   9.321  12.935  0.2043 -0.1642 -0.2556
11692W        W27826  16.102  13.834   3.376  0.1853  0.0979  0.1638
11693W        W27827   2.522  15.920   4.976 -0.1896 -0.1566  0.1608
11694W        W27828  11.791  12.745  16.038 -0.1488  0.0561 -0.3407
11695W        W27829   6.709  14.318  13.026  0.1109  0.2157  0.1359
11696W        W27830   4.781   8.875   1.799 -0.0432 -0.0319 -0.0457
11697W        W27831  14.955   0.304   3.304  0.0627 -0.3117 -0.3554
11698W        W27832   9.793   6.107   0.680 -0.2233 -0.2900  0.2930
11699W        W27833  12.210  14.672   6.439  0.0478  0.0578 -0.1303
11700W        W27834   9.493   8.481   2.028  0.0705  0.0608 -0.0782
11701W        W27835   5.795   2.821   3.540  0.0532 -0.2262  0.0969
11702W        W27836   8.232   6.956  13.052  0.1628 -0.3333  0.2238
11703W        W27837   7.664  17.835   0.619  0.0883 -0.4207  0.1284
11704W        W27838   6.341   2.630   0.690 -0.1149  0.2836 -0.2723
11705W        W27839  14.870   7.847  12.826 -0.0906  0.2244  0.1054
11706W        W27840   4.692  17.755   3.268 -0.2462  0.1176 -0.0088
11707W        W27841   9.409   2.153   0.993 -0.1309 -0.1037 -0.1437
11708W        W27842   0.424  13.309  12.860  0.0724 -0.2366  0.1423
11709W        W27843   5.144  13.912   1.302  0.1747 -0.2144  0.2206
11710W        W27844  16.692   6.005  11.747  0.1521 -0.3192 -0.3620
11711W        W27845  13.610  12.937   1.216 -0.2839 -0.3213 -0.0187
11712W        W27846   0.950   7.614   3.110 -0.2651  0.1066  0.0734
11713W        W27847   6.851   4.747  11.328 -0.0819  0.3584  0.1210
11714W        W27848  12.530  12.937  12.434 -0.0616  0.3899 -0.0086
11715W        W27849   8.770   0.798  15.386  0.5007 -0.2049 -0.2877
11716W        W27850   8.992  12.466   4.969  0.2006  0.0144  0.3163
11717W        W27851  14.965   5.019  12.190  0.2104 -0.1215  0.0803
11718W        W27852   8.218  15.821  15.636  0.0130 -0.3091  0.1183
11719W        W27853   2.622   5.668   4.021  0.4273  0.0080  0.3443
11720W        W27854  13.279  16.035   2.735  0.1450 -0.0359 -0.1030
11721W        W27855  13.258   6.423  12.966  0.0871  0.0732  0.1847
11722W        W27856  16.876   2.244   2.242  0.0835  0.1831  0.0161
11723W        W27857  15.676   8.594   5.109 -0.1149 -0.1376 -0.0919
11724W        W27858   0.577   7.383   5.364  0.1617 -0.0443  0.2012
11725W        W27859   1.220   9.658   5.717 -0.0054 -0.2412  0.0608
11726W        W27860   9.669   8.338  15.754  0.0707  0.2698  0.3600
11727W        W27861   7.370  13.119  16.446  0.0005 -0.0869 -0.0217
11728W        W27862   2.923  15.792  14.522  0.1041  0.0331  0.1529
11729W        W27863  12.245   3.634  15.598  0.3690 -0.0546  0.1565
11730W        W27864  15.486  17.701   1.806 -0.1378 -0.1078  0.1124
11731W        W27865  14.094  18.076   1.461  0.3093 -0.2233 -0.0505
11732W        W27866   2.415   4.647   0.939  0.0968 -0.2582 -0.0277
11733W        W27867  13.971  15.949  12.484  0.0973  0.0214  0.1446
11734W        W27868   3.888   8.261   1.861 -0.0821  0.1141 -0.1463
11735W        W27869  15.758  11.175  12.170  0.1925  0.1002  0.0037
11736W        W27870   9.930  17.216   2.491  0.0800 -0.1569 -0.2147
11737W        W27871   4.511  16.916   4.075  0.4052 -0.1785 -0.1644
11738W        W27872  15.797   6.418   1.021 -0.0778  0.2503  0.3101
11739W        W27873   0.743  17.932  12.307 -0.1155 -0.1028  0.2918
11740W        W27874   4.070   9.075  15.627 -0.0044 -0.0085  0.0733
11741W        W27875   9.314  17.296   3.797 -0.0240 -0.2282 -0.0892
11742W        W27876  14.191   1.122   2.620 -0.1841 -0.0888  0.2155
11743W        W27877   1.009   9.849  11.669 -0.0169 -0.0413 -0.0992
11744W        W27878  15.080   4.261  12.657 -0.1766 -0.1517  0.1447
11745W        W27879  15.047  14.049   1.269 -0.0951 -0.1539 -0.0406
11746W        W27880  12.719  15.039   3.772  0.2209  0.2505  0.0922
11747W        W27881   9.476  12.331  12.295  0.1464  0.0963  0.1314
11748W        W27882   5.584   5.846   4.286  0.0956 -0.0008  0.1167
11749W        W27883  14.483   6.124   2.097 -0.1240 -0.3919 -0.4053
11750W        W27884  11.380  11.151   2.954 -0.1936  0.0673  0.0350
11751W        W27885   9.290   7.357  12.313 -0.1180 -0.0893  0.0243
11752W        W27886  11.762   6.758  15.281 -0.0110  0.1948  0.3403
11753W        W27887   9.878   5.257   0.308 -0.1411 -0.0330 -0.1570
11754W        W27888   2.082   5.246   2.847 -0.2084  0.2358 -0.1181
11755W        W27889  15.246   4.070  12.242 -0.1774 -0.1151  0.3544
11756W        W27890   2.054  12.232   4.092 -0.0956  0.1966 -0.1219
11757W        W27891  11.232   1.679   4.567 -0.0909 -0.2043 -0.0757
11758W        W27892   6.389   6.420  10.983 -0.0211 -0.0170  0.2855
11759W        W27893   0.340   1.561   3.703 -0.0603  0.3152  0.0131
11760W        W27894  10.180  17.702  13.624 -0.0430  0.3947 -0.1273
11761W        W27895   8.399   6.617  11.075  0.1316  0.0845  0.0762
11762W        W27896  15.953   6.827  14.443 -0.2939 -0.2738 -0.2139
11763W        W27897   8.450   7.922   1.576  0.2157 -0.2880  0.2681
11764W        W27898   1.315   7.348  11.425 -0.3665  0.1345  0.0396
11765W        W27899   1.161  12.726   1.462  0.0852 -0.1888  0.1587
11766W        W27900  11.641  10.108  14.772 -0.0912  0.2437 -0.3360
11767W        W27901  15.455   4.123  16.423 -0.0978 -0.0290  0.1078
11768W        W27902   4.361  17.035  12.599 -0.0245 -0.1973  0.1448
11769W        W27903   6.434  13.391  12.820  0.2684  0.2384  0.0323
11770W        W27904  18.127  15.261  12.692 -0.0184 -0.0882  0.0439
11771W        W27905  15.091   1.867   4.424  0.0639  0.1743  0.2605
11772W        W27906   4.512  14.117   2.557 -0.0979  0.0863 -0.1176
11773W        W27907  17.463   4.674   0.992 -0.1854  0.3361  0.0821
11774W        W27908  17.057  10.888   0.757  0.0598  0.0344  0.1529
11775W        W27909   7.812   6.228   5.551  0.1585  0.1159 -0.1513
11776W        W27910  15.215  16.309  15.399  0.0824  0.1113 -0.0417
11777W        W27911  14.325  12.692  15.908  0.1279  0.0264 -0.2789
11778W        W27912  10.566   0.266   2.879  0.1529 -0.0094  0.0506
11779W        W27913   0.689  17.951   3.630 -0.3108  0.1102 -0.0172
11780W        W27914  11.757  11.145   3.250  0.0541  0.2209 -0.2805
11781W        W27915   8.002  13.376   1.795  0.1638  0.2677 -0.0263
11782W        W27916   5.781   3.415  12.859 -0.2770 -0.0165 -0.3483
11783W        W27917  10.927   8.833  10.993  0.1231 -0.1127 -0.1131
11784W        W27918   3.812  15.903  13.634  0.5431  0.0610 -0.0107
11785W        W27919   8.188   3.065   4.120  0.0327  0.0300  0.3597
11786W        W27920  16.336   3.394  15.595 -0.2714  0.1828 -0.0563
11787W        W27921  12.000   9.722   1.253 -0.1283 -0.1240  0.0878
11788W        W27922   8.464  12.411  11.115 -0.0751  0.0789 -0.3159
11789W        W27923  15.711   2.420  10.594  0.0910  0.1033 -0.1476
11790W        W27924   0.267  13.655  13.146  0.0928 -0.0905  0.0747
11791W        W27925   5.237  13.869   3.639 -0.1189 -0.0464  0.0782
11792W        W27926  10.569   8.971  15.339  0.0105 -0.3363  0.1510
11793W        W27927   2.130   2.562   4.823  0.0566  0.0927 -0.0754
11794W        W27928  10.592   9.004   3.145  0.1164  0.1961 -0.1831
11795W        W27929  12.869   9.142  12.601 -0.0019  0.2109  0.0697
11796W        W27930   9.701  10.383   4.146 -0.2230  0.0025  0.0059
11797W        W27931   7.796   3.458   4.828  0.2696 -0.0655 -0.3667
11798W        W27932   1.745  10.057   2.103  0.3081 -0.2950 -0.0353
11799W        W27933   2.199   0.738  15.240 -0.2528  0.0892 -0.4139
11800W        W27934   2.727   0.563   4.352 -0.2363 -0.1106  0.0921
11801W        W27935   1.466  11.167  15.264 -0.2432  0.0662  0.2722
11802W        W27936  14.748   5.284  15.223 -0.0261 -0.1212  0.0782
11803W        W27937   1.823  13.876   0.423 -0.0040 -0.1088  0.0134
11804W        W27938  13.965   8.737   5.136 -0.0415 -0.1572  0.0772
11805W        W27939   3.971   1.286   4.309  0.1744 -0.4114 -0.0411
11806W        W27940  16.301   1.546   2.084 -0.0320  0.2168 -0.2400
11807W        W27941  16.244   1.339  13.945 -0.0781 -0.2713 -0.1413
11808W        W27942   2.007   8.059  11.525  0.1217  0.0763  0.1753
11809W        W27943   0.431  10.354  12.967  0.0032 -0.3641  0.1406
11810W        W27944   6.979  12.806   2.238  0.1337 -0.1351  0.1774
11811W        W27945  12.699   2.692  15.438 -0.0905  0.0012  0.0221
11812W        W27946   7.148   8.738   4.887  0.2097 -0.2818  0.0645
11813W        W27947  13.618   3.709   4.383  0.0931  0.0878 -0.1421
11814W        W27948   4.257  17.832  13.967 -0.0305 -0.1862  0.2754
11815W        W27949   7.053  17.464  15.467  0.0081  0.3655 -0.3712
11816W        W27950   3.731   1.631   1.350 -0.0372 -0.1532  0.0029
11817W        W27951   1.427   3.266  13.140  0.0815 -0.2149  0.1113
11818W        W27952   6.565  18.030  11.845  0.1558 -0.5230  0.0447
11819W        W27953  14.348   3.754   6.034 -0.1734 -0.1940 -0.1709
11820W        W27954   6.372  11.865   2.366 -0.2620 -0.3141  0.1266
11821W        W27955   1.881  13.478  12.018 -0.0441 -0.1129 -0.2331
11822W        W27956   9.722   0.447   3.876 -0.0417 -0.1702  0.3698
11823W        W27957  18.018  10.497   2.640  0.1242 -0.1559 -0.1510
11824W        W27958   7.331   5.737   2.638  0.0875 -0.0402  0.0320
11825W        W27959   7.961  10.380  13.457  0.3457  0.0797  0.0235
11826W        W27960   4.114   9.871   1.197  0.1873  0.1332 -0.0077
11827W        W27961   6.029  17.542   0.851 -0.0713 -0.0398  0.1678
11828W        W27962  16.644  10.294  14.741  0.0520  0.0822  0.2153
11829W        W27963   8.065  14.777  15.380 -0.0506 -0.1154  0.0757
11830W        W27964   7.949  12.726  14.390 -0.2900  0.1450  0.2233
11831W        W27965   2.072   1.424   6.043  0.0218 -0.1372 -0.2417
11832W        W27966  10.034   0.362   4.555 -0.3665 -0.1296 -0.0656
11833W        W27967  12.319   8.969  14.092  0.0567  0.2343  0.4229
11834W        W27968   5.440  12.784  15.866 -0.0147 -0.0446  0.1350
11835W        W27969   9.376  16.127   2.320  0.0562  0.1670  0.2954
11836W        W27970  15.710  14.698   1.100 -0.1003 -0.2405 -0.0407
11837W        W27971  10.278  11.870   2.033 -0.0146  0.0488 -0.0891
11838W        W27972   3.527   2.950  12.955  0.0033 -0.4793  0.2405
11839W        W27973   7.388  13.328  14.912 -0.1374 -0.2928 -0.2068
11840W        W27974  10.834  14.974  11.620  0.1346  0.0985  0.1566
11841W        W27975  14.736   4.947  11.251  0.3632 -0.1932 -0.2047
11842W        W27976   0.019   3.028   2.215 -0.1131 -0.2016  0.3487
11843W        W27977  11.600   0.255   5.856 -0.2866 -0.1414  0.3716
11844W        W27978   1.766   2.294  16.208  0.1131 -0.4739  0.0970
11845W        W27979   9.035  14.659  16.387 -0.1133  0.1423 -0.0018
11846W        W27980   3.759  17.477   4.137  0.2108 -0.0871 -0.0126
11847W        W27981  11.704  15.731  13.153  0.0207 -0.0268  0.3159
11848W        W27982  13.747  11.068  14.839 -0.0692 -0.1456 -0.0385
11849W        W27983  13.859   1.429  14.606 -0.0590 -0.1013  0.2258
11850W        W27984   6.668   1.735  13.343 -0.1511 -0.0489  0.1106
11851W        W27985   2.451  17.670  13.429  0.2399  0.0535  0.0477
11852W        W27986   7.908   6.379  16.156  0.0257 -0.1042  0.1679
11853W        W27987   0.679   1.232   3.477  0.1978 -0.0806 -0.1674
11854W        W27988  12.343  16.794  13.962  0.1169 -0.1117  0.1564
11855W        W27989   1.907  17.909   0.348  0.1567 -0.1243  0.2153
11856W        W27990  13.400   7.796  12.652 -0.0603  0.0241 -0.1221
11857W        W27991  17.316  10.562   5.490 -0.2192  0.0799 -0.1290
11858W        W27992   4.357   1.589  12.692 -0.2958 -0.0184 -0.0541
11859W        W27993   1.339   6.161  13.504  0.0156 -0.0493 -0.2798
11860W        W27994  12.644   3.531   0.394  0.3213  0.2227 -0.1029
11861W        W27995   7.857   8.230  16.254  0.0022 -0.0495 -0.1420
11862W        W27996  12.108   2.649  14.778  0.4002  0.2358 -0.1377
11863W        W27997  14.320   5.566  15.721 -0.2141 -0.1627 -0.0823
11864W        W27998  10.983   0.479  13.570  0.1562 -0.1066 -0.1218
11865W        W27999  10.678  16.157  12.668  0.1382 -0.0932  0.2281
11866W        W28000   6.713   2.382   3.889 -0.2149 -0.0238  0.1505
11867W        W28001   4.486   3.553   1.070  0.0322  0.1639  0.1114
11868W        W28002  12.553  13.430   3.269 -0.0952 -0.0944 -0.2318
11869W        W28003  14.454   2.677  14.261 -0.1159  0.0781 -0.2084
11870W        W28004  10.020   5.775  13.929 -0.0109 -0.0468 -0.0217
11871W        W28005  16.157  13.704  12.026 -0.0590 -0.2013 -0.0240
11872W        W28006   4.996  10.197  13.259 -0.2304  0.1472 -0.2451
11873W        W28007   8.239   6.786  11.576 -0.1210  0.0433 -0.1502
11874W        W28008   4.759   8.151  11.191 -0.0788 -0.0767 -0.0966
11875W        W28009  18.131   8.768  14.708  0.2646  0.0873 -0.3086
11876W        W28010   5.772   1.876  12.539  0.0576  0.1492  0.0720
11877W        W28011  17.882   4.436  12.732 -0.1601 -0.1968 -0.2161
11878W        W28012   3.474   4.170  16.202  0.0692 -0.0225  0.2096
11879W        W28013  16.858  15.444  13.002  0.0842 -0.0853  0.1923
11880W        W28014  13.917   5.630   0.809  0.1983 -0.0037 -0.1324
11881W        W28015   7.163  15.224   4.467  0.1167  0.1450  0.1396
11882W        W28016   1.683   9.384   2.888  0.1271 -0.0809  0.3580
11883W        W28017   9.459  10.739   4.386 -0.1344 -0.2679  0.0165
11884W        W28018  14.446  14.756   2.444  0.1097  0.1692  0.1593
11885W        W28019   0.753   2.785   0.339 -0.1127  0.1672 -0.0726
11886W        W28020   0.180   4.595  12.712  0.2097  0.1810 -0.0285
11887W        W28021  16.706   2.434   5.241  0.0316  0.3980 -0.1220
11888W        W28022   9.013   4.948   5.037  0.0659  0.0593 -0.2105
11889W        W28023   4.621  15.604  14.128 -0.1627  0.3261 -0.0059
11890W        W28024   1.629  17.086  14.652  0.0256 -0.2671 -0.2006
11891W        W28025  16.484   0.295  14.984  0.1139  0.2952  0.2846
11892W        W28026  13.382   7.662   2.408  0.0232 -0.1012  0.0924
11893W        W28027   4.577   0.329   1.169  0.0133 -0.1938  0.3043
11894W        W28028   8.637   7.553   4.583  0.1577 -0.0103  0.0161
11895W        W28029  15.996   7.040  11.736  0.1312 -0.2675 -0.2387
11896W        W28030  12.320  15.563  12.317 -0.0972 -0.1226 -0.2695
11897W        W28031  17.974   6.358  15.120  0.0888 -0.0918 -0.0933
11898W        W28032   9.283  16.686   3.083  0.1031  0.2252 -0.2126
11899W        W28033   7.604  11.290   2.216  0.0720  0.2173  0.0487
11900W        W28034  15.668   7.698   4.894  0.0327  0.0233 -0.2998
11901W        W28035  11.674   7.693   2.070  0.0975  0.0547  0.2333
11902W        W28036   7.297  14.473  14.158  0.2119  0.0894  0.2638
11903W        W28037  11.733  16.365  12.355 -0.1797  0.1071 -0.0382
11904W        W28038  12.889  10.184   1.002 -0.0422 -0.0776 -0.0403
11905W        W28039   4.141  15.449  11.487 -0.0792 -0.0878  0.2408
11906W        W28040   7.684  13.004   2.071  0.1174  0.0130 -0.0017
11907W        W28041  14.745   8.583  15.589 -0.1054  0.0022  0.0661
11908W        W28042   5.319   0.382  14.792  0.2089 -0.0793  0.3657
11909W        W28043  12.586   2.181   5.549  0.0381 -0.0815  0.1683
11910W        W28044   9.936  15.365   3.493  0.0121  0.2296 -0.0710
11911W        W28045   7.340  12.380  14.899  0.3185  0.1314 -0.0600
11912W        W28046   3.263   7.574  12.579  0.2570  0.0699 -0.1797
11913W        W28047  10.821  13.654  11.223 -0.0663  0.0575 -0.0560
11914W        W28048  16.154   0.525   5.308  0.2038  0.0712  0.0536
11915W        W28049   9.968   7.436   1.007 -0.2342  0.3440 -0.2231
11916W        W28050   8.498  17.338  13.856  0.1831  0.0946  0.2918
11917W        W28051   5.778  13.546   4.928 -0.0623 -0.4152  0.0905
11918W        W28052  18.148   9.816   4.375  0.0317 -0.1428 -0.0078
11919W        W28053   5.673   8.641  16.405 -0.3299 -0.0204 -0.0250
11920W        W28054   1.670  14.677  12.331  0.0578 -0.2053 -0.1303
11921W        W28055   6.101   4.378  12.362  0.0256 -0.1178  0.0213
11922W        W28056  14.340  11.748  12.053 -0.4614 -0.1001 -0.2111
11923W        W28057  13.540   8.260  11.419 -0.0141  0.1249  0.1757
11924W        W28058   7.245   3.184   2.124 -0.0141 -0.0448  0.2036
11925W        W28059   6.170   4.505   3.375  0.1340  0.0259  0.1794
11926W        W28060   2.770  10.282  14.230  0.1875  0.0315 -0.0135
11927W        W28061   9.022   0.260   3.174 -0.1068  0.5859  0.2576
11928W        W28062  11.810   2.797   1.130  0.2411 -0.2496 -0.0586
11929W        W28063  12.955   9.070  13.076 -0.0245 -0.0531  0.0292
11930W        W28064  10.986   8.394  14.830 -0.0381 -0.1312  0.3346
11931W        W28065  15.078  17.029  15.429 -0.2527 -0.0403 -0.2630
11932W        W28066   7.895   9.636  14.975 -0.1563 -0.1177  0.5814
11933W        W28067  11.576   2.757   4.242 -0.2096 -0.2555  0.3052
11934W        W28068   0.518  17.038  14.535  0.3829 -0.0823 -0.0336
11935W        W28069   1.413   5.246  11.449 -0.3906 -0.0828 -0.3422
11936W        W28070  15.216  10.683  16.461  0.0674  0.2333 -0.0922
11937W        W28071  15.686   7.860   3.820 -0.1842  0.0938  0.0162
11938W        W28072  12.241  10.503   4.361 -0.0979 -0.1047  0.1414
11939W        W28073   8.733  14.168  13.254 -0.0269  0.1085  0.1055
11940W        W28074   9.534   3.863   3.236 -0.2065  0.4523 -0.0882
11941W        W28075   6.525  13.968  14.499 -0.2633 -0.3368 -0.1953
11942W        W28076  15.274  10.360   4.015 -0.0760  0.0431  0.1672
11943W        W28077   4.608   0.798  11.713 -0.1168 -0.0703 -0.2020
11944W        W28078   1.098  11.511   3.146 -0.2580 -0.3764  0.1974
11945W        W28079   1.608   4.020   4.804  0.1740  0.0999 -0.2355
11946W        W28080  18.142   3.127  14.207 -0.0135  0.2190 -0.0879
11947W        W28081  11.514   0.696  16.354 -0.1915 -0.0897  0.3532
11948W        W28082  11.526   7.312  15.572 -0.1601 -0.1041 -0.0735
11949W        W28083   0.746  18.130  13.761  0.0541 -0.0273  0.0379
11950W        W28084  12.299  11.180  11.616  0.1539 -0.0628  0.0480
11951W        W28085  13.503  11.430   2.009  0.4741  0.0880  0.0348
11952W        W28086   7.971  17.156   2.594  0.0515  0.1569 -0.1301
11953W        W28087  15.087  15.813  14.646  0.0645  0.0067  0.0482
11954W        W28088  17.062   0.153  13.291 -0.5105  0.1910  0.1171
11955W        W28089   7.713  14.661   6.077 -0.2142 -0.0129 -0.1733
11956W        W28090  13.825  13.055   0.750 -0.1806 -0.1654 -0.3068
11957W        W28091   1.972  17.466  14.606  0.0300 -0.0290 -0.0382
11958W        W28092  16.953   9.189  16.410  0.1643  0.1294  0.0707
11959W        W28093   8.503   5.758   3.136 -0.1944 -0.1043 -0.1994
11960W        W28094   9.788   9.647   4.589  0.0519 -0.1833 -0.0383
11961W        W28095  12.478   5.731   4.815  0.1934 -0.0989  0.2309
11962W        W28096   8.132   6.213  12.267  0.2511 -0.0279  0.1326
11963W        W28097  11.076   9.191  10.645 -0.2526  0.2756  0.2435
11964W        W28098   3.441   8.653   4.425  0.3079 -0.0938  0.4263
11965W        W28099   5.855   9.832  12.327 -0.1195 -0.0699  0.0705
11966W        W28100  17.119   2.974   3.843 -0.2780  0.0048 -0.0054
11967W        W28101   5.641   1.882  16.219  0.0309  0.0381  0.2064
11968W        W28102   9.037   3.135  16.109  0.1694  0.2586  0.0395
11969W        W28103  13.146   0.487  16.376 -0.0469  0.0193 -0.1643
11970W        W28104   4.339  12.076   4.085 -0.0817  0.0278 -0.0628
11971W        W28105   4.210   9.836   4.130 -0.1536 -0.1105  0.1122
11972W        W28106  11.359   4.546  13.934  0.0796 -0.1673  0.0711
11973W        W28107  12.137  10.751   0.389  0.3742 -0.2744 -0.1059
11974W        W28108   2.572   5.174  13.007 -0.2521 -0.2088  0.0718
11975W        W28109  10.856  11.839   5.314  0.0978 -0.0023 -0.3126
11976W        W28110  11.978  10.735   2.439 -0.2719 -0.1332 -0.1476
11977W        W28111   7.160   5.382  15.945 -0.0591  0.1688  0.2085
11978W        W28112  13.553   2.393   0.603  0.1011 -0.0515  0.4094
11979W        W28113   6.321   9.389   3.464  0.2213 -0.1008 -0.1731
11980W        W28114   7.157   7.940  13.803 -0.0549  0.2498  0.2182
11981W        W28115   1.632  15.948   6.350 -0.3081 -0.2430  0.2043
11982W        W28116  15.529   3.753  11.928  0.1193  0.1789  0.2251
11983W        W28117  15.902  11.754   0.535  0.0020  0.1057 -0.0367
11984W        W28118  16.947  13.056   5.297 -0.1599 -0.1930 -0.1536
11985W        W28119  11.554  12.386   1.540  0.1436 -0.1393 -0.3548
11986W        W28120   5.155   6.856   3.460 -0.0468  0.0094  0.0665
11987W        W28121   5.757   5.691  16.274 -0.0718 -0.1568 -0.1956
11988W        W28122   2.113   5.873   0.846 -0.0683 -0.5233  0.1148
11989W        W28123  10.704   7.645   4.445 -0.1535 -0.0697  0.1635
11990W        W28124   5.185  11.833  14.221 -0.2956  0.2907 -0.0372
11991W        W28125   8.401  12.805  16.159  0.3767 -0.1579  0.1508
11992W        W28126   1.573   1.949   5.279  0.0147 -0.1888 -0.1585
11993W        W28127  11.261   7.004  13.404 -0.2520  0.0211  0.1063
11994W        W28128   3.615  14.161  13.768  0.0402 -0.1382 -0.1113
11995W        W28129  12.590   8.612   0.968 -0.0664 -0.0499  0.2036
11996W        W28130   1.343   9.397  15.757  0.1373  0.1588 -0.2547
11997W        W28131  15.231   9.485  15.438 -0.0751  0.0176 -0.0591
11998W        W28132  13.749  13.206   0.291 -0.0740 -0.0048 -0.1769
11999W        W28133   5.139   8.017   0.249  0.0292 -0.2602  0.2217
12000W        W28134  13.969  13.644   4.880  0.1917  0.2372  0.0392
12001W        W28135  16.945  15.247  14.067  0.1844 -0.2918  0.0202
12002W        W28136  13.366  13.038   0.529  0.1589  0.0059 -0.0480
12003W        W28137   6.919   1.993  15.248  0.0899  0.5280 -0.0941
12004W        W28138   0.344   5.836  16.405  0.0546  0.0060 -0.0714
12005W        W28139  13.645  17.705   2.669  0.4552  0.1427  0.0754
12006W        W28140   3.312   2.067   2.677  0.1759 -0.1468  0.4438
12007W        W28141   3.596  16.050   0.798 -0.2224 -0.0790 -0.0773
12008W        W28142   1.591   1.437   5.216  0.0398 -0.2036 -0.0133
12009W        W28143  13.620  10.463   0.051  0.0274  0.1170  0.0578
12010W        W28144   5.983   5.219   1.034  0.0439  0.3773  0.0639
12011W        W28145   7.352  13.144   2.368 -0.4397 -0.0141  0.0966
12012W        W28146  16.981  15.700  13.384 -0.1146  0.0591 -0.1479
12013W        W28147   4.288  12.365   2.075 -0.1344  0.0389  0.0885
12014W        W28148   8.345   1.706   1.119 -0.1977 -0.1586  0.2766
12015W        W28149   4.442   9.032  14.729  0.2583  0.1285 -0.0562
12016W        W28150  10.121  18.099  11.898 -0.0438 -0.1216 -0.3565
12017W        W28151   3.220   6.343  11.033 -0.1807 -0.2259 -0.1258
12018W        W28152   5.728   3.342  15.882 -0.2111 -0.1797  0.2806
12019W        W28153   9.430  14.632   4.832 -0.2657  0.0490  0.0059
12020W        W28154  10.558  13.817  12.694 -0.2870 -0.1327 -0.2719
12021W        W28155  16.664   1.512   2.422  0.1595  0.0557 -0.0768
12022W        W28156   4.808  18.153   5.030 -0.0959 -0.0587  0.6037
12023W        W28157   5.070  12.373  14.167  0.2469 -0.1443  0.1393
12024W        W28158  10.901   7.005   5.097 -0.1852 -0.1123 -0.1089
12025W        W28159   9.466  14.957  14.217 -0.0811 -0.1295  0.0096
12026W        W28160  16.307  14.399   3.468  0.0779  0.2500 -0.1325
12027W        W28161  10.473   5.281   2.294 -0.0135  0.0216  0.0397
12028W        W28162   8.693  17.725   2.148  0.3019 -0.3004 -0.0034
12029W        W28163   1.694   7.240  10.549  0.1056  0.0199 -0.0561
12030W        W28164   4.189   2.558   1.147 -0.0931 -0.3183 -0.0401
12031W        W28165   8.494   2.855   2.142 -0.0305  0.0867  0.1088
12032W        W28166  11.638  17.217  14.658  0.1613 -0.1805  0.0936
12033W        W28167  11.663  13.505   2.430 -0.1358  0.1104  0.1799
12034W        W28168  17.087   4.480   4.356 -0.0487  0.2942 -0.2858
12035W        W28169  11.830  12.134  13.889  0.1288  0.1758  0.1425
12036W        W28170   3.331   9.211   2.978  0.2122  0.2649  0.2133
12037W        W28171  18.121   2.358   3.036  0.0794  0.0300 -0.0331
12038W        W28172   8.214   7.656  11.009  0.1847  0.2533  0.1239
12039W        W28173  15.529  16.280   5.950 -0.0186  0.1146  0.0742
12040W        W28174  10.427  16.233   3.700  0.2153 -0.2589  0.0717
12041W        W28175  14.718   9.157   3.004  0.2876 -0.0602 -0.1725
12042W        W28176   2.014   0.211  15.122  0.0256  0.0236  0.1816
12043W        W28177   9.466   2.959  13.557  0.1539 -0.2635  0.1261
12044W        W28178  17.049  12.983  16.364 -0.1302  0.0170  0.3599
12045W        W28179   2.200   4.583   0.334  0.1115  0.0542  0.0318
12046W        W28180  16.182   1.598   5.107  0.1762  0.1501 -0.0906
12047W        W28181   3.951  10.399  16.244  0.0209  0.2758  0.0482
12048W        W28182   8.484  13.214   3.858 -0.0566  0.1826 -0.0701
12049W        W28183  15.738  10.272   1.117 -0.1596 -0.0576 -0.0551
12050W        W28184  17.351   2.287   4.068 -0.1221  0.0154 -0.0015
12051W        W28185   6.464   4.112  16.391  0.0153  0.3232  0.1250
12052W        W28186  12.062   1.987   0.575 -0.0676  0.1740  0.3664
12053W        W28187   3.116   8.460  13.848 -0.0660  0.3706  0.2554
12054W        W28188  15.292  13.608   1.164 -0.0181  0.0069  0.1952
12055W        W28189   7.599   9.612   3.208  0.0241 -0.3111  0.0370
12056W        W28190  15.870  18.161   0.846 -0.1934  0.3465  0.1709
12057W        W28191  12.377   3.021  13.565 -0.1829 -0.1735  0.2104
12058W        W28192   0.121  16.719  15.339  0.0465  0.0553  0.0433
12059W        W28193   8.095  13.632  12.040  0.2659 -0.0453 -0.0432
12060W        W28194  16.658  16.142   0.401  0.0509  0.1233  0.1873
12061W        W28195  12.298  18.092   0.782 -0.2039  0.1467 -0.1668
12062W        W28196  13.654   7.483  10.874  0.1908  0.0901 -0.0145
12063W        W28197  10.399   2.247   2.766 -0.3313  0.2212  0.2285
12064W        W28198   0.736  15.452   3.702 -0.1652 -0.1676 -0.1605
12065W        W28199   9.953  10.787  12.890  0.1499 -0.2943  0.1204
12066W        W28200  11.120  14.576   2.031 -0.1178 -0.3163  0.4695
12067W        W28201  17.186   3.588   6.078 -0.1667  0.0172  0.0362
12068W        W28202   8.426  13.320   5.225  0.0592  0.0025  0.1139
12069W        W28203   8.372   4.070  11.913 -0.0223  0.2549 -0.0534
12070W        W28204  16.418   5.803  11.399  0.1252 -0.1512  0.0690
12071W        W28205   7.482  16.500  15.319 -0.2869 -0.0926 -0.3465
12072W        W28206   0.959   0.980   5.816 -0.2620 -0.1293 -0.1646
12073W        W28207   9.054   1.232   5.933 -0.2657 -0.1541  0.0668
12074W        W28208   5.335  17.819   6.698 -0.4854  0.5055 -0.0757
12075W        W28209  15.568  16.160  14.395  0.0567 -0.0362  0.1365
12076W        W28210   0.821   3.547  14.581 -0.0736  0.1680  0.0521
12077W        W28211  14.119   0.166   2.716  0.2290  0.1556  0.1273
12078W        W28212  10.194   9.725  11.274 -0.1212  0.0621  0.2253
12079W        W28213   2.253  12.376   1.458 -0.1413 -0.0615  0.3415
12080W        W28214  13.175  15.775   5.276 -0.0892  0.3421  0.0970
12081W        W28215  17.419  14.277  14.190  0.2587  0.1949  0.0355
12082W        W28216   8.185   3.750  10.599  0.4186 -0.5581 -0.0066
12083W        W28217  13.213   2.574   3.271  0.2174  0.0300  0.7538
12084W        W28218  15.608  13.209  10.994  0.3571 -0.2722 -0.0114
12085W        W28219   8.470   7.895  10.668 -0.2251 -0.1090  0.1370
12086W        W28220  14.135  10.354  14.285  0.1334 -0.2070  0.0592
12087W        W28221  10.120  17.366  15.795  0.1046  0.0592  0.3214
12088W        W28222   4.059   8.365   3.594  0.5754  0.1608  0.1249
12089W        W28223  11.745   0.769  11.917  0.0342  0.0899 -0.0530
12090W        W28224  16.192   9.340  14.549 -0.3783  0.4798  0.0250
12091W        W28225   2.597   5.577   3.462  0.1123 -0.0936 -0.0457
12092W        W28226  15.744   2.627   0.152  0.5547  0.2537  0.3601
12093W        W28227   7.105   9.743  11.887  0.2848  0.0267  0.0128
12094W        W28228   3.216  17.789  12.524 -0.0578 -0.0310  0.4150
12095W        W28229   2.260  11.032  15.092  0.1161  0.0565 -0.1401
12096W        W28230  16.886   8.426  12.625 -0.0836 -0.0506 -0.0255
12097W        W28231  13.369   9.899  11.734  0.4162 -0.2112  0.3487
12098W        W28232   3.570  11.664  15.072  0.0883  0.1617 -0.1960
12099W        W28233   8.018   3.904   4.973  0.1045 -0.2314  0.0340
12100W        W28234   9.865   6.558   2.861 -0.2178  0.3405 -0.0563
12101W        W28235  15.363   2.148  11.747 -0.2709  0.0872  0.1270
12102W        W28236  13.805  15.830   2.796  0.0345 -0.2153  0.1115
12103W        W28237  12.352   5.162   3.810  0.0371  0.2962 -0.0818
12104W        W28238  15.516  16.795  11.546 -0.0589 -0.1321 -0.2715
12105W        W28239  13.050   9.772   0.495  0.3651 -0.0419  0.2559
12106W        W28240   4.754  13.663  14.060 -0.3569  0.1291 -0.0346
12107W        W28241   9.908   5.897   0.196 -0.0126  0.0939  0.0860
12108W        W28242  14.359  15.093  12.197 -0.3091  0.2001 -0.1222
12109W        W28243  14.230  11.920   2.664 -0.0289  0.1613  0.0748
12110W        W28244  13.781  10.059   5.146 -0.1819  0.1184  0.0291
12111W        W28245  11.304   2.461   5.231  0.3513 -0.0421 -0.0060
12112W        W28246  12.112   4.470   2.760 -0.1163  0.0316  0.2492
12113W        W28247   1.833   3.544  13.061  0.1329  0.2425  0.0091
12114W        W28248   1.434   2.706   3.816  0.1098 -0.1799  0.0854
12115W        W28249  11.520   1.977   4.187 -0.0154  0.0070 -0.3308
12116W        W28250  11.220   3.128  14.415  0.0326  0.0989  0.0653
12117W        W28251   7.767  14.388   4.211  0.2819  0.0648 -0.0354
12118W        W28252  13.987   9.233   2.392 -0.0472 -0.0504 -0.0823
12119W        W28253   3.085  15.997  14.997 -0.1857 -0.0514 -0.0085
12120W        W28254  16.699   0.638   1.708  0.4626 -0.0559 -0.0342
12121W        W28255  11.522  15.283  13.434  0.0463 -0.1328  0.1829
12122W        W28256   8.043  15.172   1.051  0.0428  0.0880  0.1670
12123W        W28257   2.272   5.962  14.893 -0.1447  0.1359 -0.0685
12124W        W28258   7.198   3.228   4.053 -0.3373  0.0802 -0.0345
12125W        W28259  16.115   7.343   4.193 -0.2742 -0.1919  0.1373
12126W        W28260  12.286   9.610  13.300 -0.2751 -0.1847  0.1237
12127W        W28261   2.841  12.462  14.921  0.0963 -0.3380  0.0198
12128W        W28262   6.314   0.849   2.325  0.0838  0.0659 -0.2892
12129W        W28263  10.899  11.071  13.697 -0.1771  0.1397 -0.2576
12130W        W28264   3.875   9.464  15.889 -0.1224 -0.0269 -0.0640
12131W        W28265   5.885  15.196  16.347 -0.1145  0.0207 -0.0672
12132W        W28266   2.500  11.541  11.298 -0.2625 -0.1389  0.2085
12133W        W28267   1.061  10.151  12.148  0.3030 -0.2378 -0.1745
12134W        W28268  12.391  15.347   4.705  0.0150  0.0584  0.1238
12135W        W28269   9.396  13.578  11.393 -0.1732  0.0561  0.0951
12136W        W28270   7.335  17.771   2.572 -0.1185 -0.0296 -0.2041
12137W        W28271   4.677  13.696   2.328  0.1098 -0.1773 -0.3812
12138W        W28272   2.554  17.663  14.320 -0.2236  0.0200 -0.1199
12139W        W28273  14.833   2.411   0.070 -0.1270 -0.0863  0.0025
12140W        W28274  12.101   6.522  15.563 -0.1268 -0.4197 -0.2930
12141W        W28275   6.405  12.407  14.730 -0.0403  0.0333  0.2342
12142W        W28276  18.022   4.787  13.545 -0.3474 -0.0392 -0.2102
12143W        W28277   4.676   0.711   3.883 -0.0340  0.1266 -0.1004
12144W        W28278   0.651  11.346   3.225 -0.0366 -0.2043  0.0415
12145W        W28279   6.075  12.894  11.568 -0.0716  0.0526  0.3542
12146W        W28280   0.536   2.353  11.427  0.3949  0.2979  0.0447
12147W        W28281   4.534  10.747  12.947  0.0138  0.0079 -0.2845
12148W        W28282   4.314  14.107  15.511 -0.3108  0.1168  0.3273
12149W        W28283   3.806   5.598  13.034 -0.1400  0.0549  0.3847
12150W        W28284  11.571  17.572   1.852 -0.2836  0.2374 -0.4228
12151W        W28285  11.012   6.451   2.105  0.3364 -0.0765 -0.0293
12152W        W28286   1.096   1.611  13.914 -0.0140 -0.0397  0.0183
12153W        W28287  17.930   3.351  16.104 -0.0679 -0.1633  0.1575
12154W        W28288  14.442  14.055   2.730  0.0527  0.2248  0.0878
12155W        W28289   2.282   7.764  12.818 -0.0252 -0.1914 -0.2534
12156W        W28290   5.981  10.277   4.603  0.2271 -0.0023 -0.3429
12157W        W28291  10.169   3.700   1.359  0.0437 -0.2514  0.0115
12158W        W28292   7.733  17.101   0.038  0.0869  0.1467  0.0046
12159W        W28293  10.764   6.060  11.305  0.0288 -0.0867  0.0875
12160W        W28294   4.095   2.021   1.061 -0.0789  0.0571 -0.0276
12161W        W28295   4.635   4.114   1.254 -0.0102  0.2747  0.0861
12162W        W28296   4.760  17.785  13.194  0.0366 -0.1179  0.1760
12163W        W28297  16.451  10.769   4.016 -0.0499  0.0903  0.5884
12164W        W28298   7.170   2.767  10.515  0.1933 -0.1310 -0.0450
12165W        W28299  17.169   5.936   5.363 -0.1157  0.1011  0.1223
12166W        W28300   9.118   5.740  14.012 -0.1935 -0.0237 -0.0145
12167W        W28301   0.205   6.831  13.362  0.0476 -0.1678  0.1433
12168W        W28302   5.417  16.459   1.681  0.1200  0.2411  0.2948
12169W        W28303   9.568  11.363  14.983  0.1104 -0.2177  0.0482
12170W        W28304  11.077   1.024  15.684  0.0652  0.2121  0.0794
12171W        W28305  12.497   7.592   1.042  0.0662 -0.1858  0.1406
12172W        W28306  10.671   9.181  14.838 -0.0479  0.1600 -0.0387
12173W        W28307  13.987  12.253  14.227  0.1431  0.0263  0.1096
12174W        W28308  12.219  10.804  12.999  0.3326  0.0305  0.0888
12175W        W28309   4.324  16.764   3.093 -0.1161  0.1648  0.3446
12176W        W28310   9.568  18.053   2.415  0.3624  0.0337  0.2094
12177W        W28311  12.258   4.261   3.688 -0.1971 -0.0764 -0.1993
12178W        W28312  11.668   3.043  11.766  0.1498  0.0187 -0.2085
12179W        W28313  12.233  11.622  15.092 -0.0077  0.1586  0.3736
12180W        W28314   9.605  15.533  11.975 -0.3598  0.0065  0.0472
12181W        W28315   7.521   0.288   3.381 -0.0932 -0.0681 -0.0901
12182W        W28316   9.474   9.692   3.351  0.3054 -0.1163  0.0513
12183W        W28317  10.037   0.901   4.445 -0.0062 -0.0218  0.1406
12184W        W28318   2.803  12.001  12.559 -0.1372 -0.0769 -0.0355
12185W        W28319  12.321  17.963  15.852 -0.0654  0.0976  0.2574
12186W        W28320  16.438   9.500  16.208  0.1814 -0.2134  0.1372
12187W        W28321   6.818  13.166  14.665  0.2419 -0.4739 -0.0127
12188W        W28322  18.024   4.028   4.032 -0.0262  0.2564 -0.2046
12189W        W28323  17.911  13.877  16.042 -0.0310 -0.2645  0.0622
12190W        W28324  17.949   1.349  13.770 -0.2700  0.1353 -0.2547
12191W        W28325   7.600   8.735   4.051 -0.0349 -0.0499 -0.2303
12192W        W28326   4.625  10.536  14.046  0.0475  0.1398 -0.0654
12193W        W28327   9.299  16.202  13.569 -0.0426 -0.1127 -0.0096
12194W        W28328  10.577  13.129   1.557 -0.3751 -0.2740 -0.1610
12195W        W28329   5.193   0.883   1.077  0.3961  0.0988  0.2804
12196W        W28330   5.589  15.792  14.806  0.4283 -0.0772 -0.1343
12197W        W28331   1.104  15.872   4.158  0.0761 -0.0144  0.2967
12198W        W28332   9.183   4.532  14.976  0.2765 -0.0368 -0.3565
12199W        W28333  15.794  12.479   3.559  0.0319  0.1222  0.0216
12200W        W28334  11.651  18.120  16.535  0.0501 -0.1701  0.1731
12201W        W28335   5.171  10.000   1.426  0.1104  0.1292 -0.0245
12202W        W28336  15.688   8.723   2.167 -0.5922 -0.0658 -0.2561
12203W        W28337  18.108  16.467   2.783  0.2297 -0.2130 -0.1960
12204W        W28338   0.863  18.026  11.815 -0.2698 -0.3925  0.2225
12205W        W28339   2.677  13.798  15.732  0.2792  0.0910 -0.0900
12206W        W28340   4.799   8.239  16.507  0.2489  0.0370  0.1022
12207W        W28341   9.103   2.704  16.423  0.1381 -0.0943  0.0725
12208W        W28342  10.427   7.922  14.927 -0.2260  0.3194 -0.3082
12209W        W28343  13.272  16.492   1.888 -0.1913  0.1031 -0.1761
12210W        W28344  11.112   1.877  12.675 -0.2447  0.0925 -0.0686
12211W        W28345   9.591  17.689   4.916  0.1109  0.0023  0.1323
12212W        W28346   4.204  16.853  13.641 -0.1656  0.0569 -0.0398
12213W        W28347   9.645   0.520   5.823 -0.1190  0.1565  0.0868
12214W        W28348   9.178   9.750  15.156 -0.2333 -0.0941 -0.1768
12215W        W28349  13.731   1.360   2.719  0.1502 -0.1814 -0.0685
12216W        W28350  12.417   1.875   6.571  0.0743 -0.0844  0.1749
12217W        W28351  15.633  17.757   3.143 -0.2110  0.0634 -0.4673
12218W        W28352  16.270   4.504   1.135  0.2144  0.2734  0.0569
12219W        W28353  17.965   8.009  11.059  0.0330 -0.1864 -0.0498
12220W        W28354  14.537  14.984  13.608 -0.3656  0.0826  0.3300
12221W        W28355   4.104  15.158   3.311 -0.1005  0.1112  0.1372
12222W        W28356   1.562   8.960  14.152  0.1915  0.0247  0.1487
12223W        W28357   5.012  13.565   1.941 -0.0199  0.0112 -0.1036
12224W        W28358  10.745   6.152  14.458 -0.3386 -0.0961  0.0081
12225W        W28359  10.075  15.342  11.372  0.2071 -0.0881 -0.0138
12226W        W28360   2.267  13.966   4.287  0.0685 -0.2585  0.0522
12227W        W28361   4.972   1.121  13.678 -0.0836 -0.2463  0.1020
12228W        W28362  10.883   4.388   3.396 -0.0342  0.1110  0.1899
12229W        W28363   8.211   6.848  10.153 -0.0899  0.0737 -0.3047
12230W        W28364   8.164   9.876   0.605 -0.2088  0.0311 -0.1072
12231W        W28365  16.001  17.748  14.324 -0.0706  0.2113 -0.0809
12232W        W28366   1.783   9.707  15.806 -0.0153 -0.3270  0.0756
12233W        W28367   6.322   0.963   1.850 -0.1026 -0.0936  0.1065
12234W        W28368   3.215  14.515  14.543  0.0754  0.0383  0.1063
12235W        W28369  16.625  10.801  12.366 -0.0271 -0.0427  0.2551
12236W        W28370   6.278  16.121  13.009 -0.6239 -0.2944 -0.2119
12237W        W28371   2.577   6.011   2.687 -0.0688  0.2181 -0.1979
12238W        W28372   8.451   2.522   2.801 -0.0727 -0.1694  0.2360
12239W        W28373  13.304  16.765   0.551 -0.0795  0.1387 -0.0958
12240W        W28374  17.768   2.485   1.096 -0.0694  0.0275 -0.2484
12241W        W28375   5.088   5.400  11.276 -0.0148  0.0223  0.1816
12242W        W28376   5.556  17.873   4.032  0.0430 -0.0304 -0.1192
12243W        W28377  13.972  14.458   6.992  0.0347 -0.1352  0.1390
12244W        W28378  17.002   3.504  13.962 -0.1542 -0.0365  0.0701
12245W        W28379   9.844   6.240  11.048 -0.3133  0.2053  0.1563
12246W        W28380   1.205   8.216  12.209 -0.0422  0.0505 -0.2084
12247W        W28381  17.372   5.840  10.948 -0.1463  0.0898 -0.1696
12248W        W28382  13.368   9.876  13.960 -0.1436 -0.1384  0.0823
12249W        W28383  17.191  15.122  12.675  0.2532 -0.0790 -0.0242
12250W        W28384  10.150   5.673  12.625  0.0581 -0.2625 -0.2414
12251W        W28385  13.039   4.848   1.241 -0.0159  0.3372 -0.1177
12252W        W28386  16.247   5.359  12.485 -0.4291 -0.3216 -0.0126
12253W        W28387  10.636   1.622  16.162  0.2325 -0.3480 -0.2120
12254W        W28388   1.730   8.315  12.149  0.0502 -0.1938 -0.0320
12255W        W28389  17.681  11.903   1.568  0.2578  0.2580 -0.0355
12256W        W28390   7.619   5.634  11.477  0.4588  0.0857  0.2153
12257W        W28391   8.716   5.204   4.761  0.1282  0.0723 -0.0900
12258W        W28392   9.106   1.316   4.464  0.2514  0.2288  0.1751
12259W        W28393   5.207   3.957  14.390 -0.2297  0.2168 -0.1593
12260W        W28394  16.420  15.303   3.688  0.1170 -0.1260 -0.2584
12261W        W28395  15.167  16.758   3.983  0.2363  0.1171 -0.0146
12262W        W28396  13.787   0.947   4.605 -0.0443  0.0969 -0.1327
12263W        W28397   9.932   9.533   3.578 -0.1444  0.0212 -0.2697
12264W        W28398   3.302   0.156  14.582 -0.1279 -0.3148 -0.0080
12265W        W28399  13.401   0.437  14.575 -0.3515  0.0174  0.1482
12266W        W28400   4.600   6.104   4.498  0.0565  0.1824 -0.0846
12267W        W28401  10.798  16.612  15.364 -0.2701  0.1589 -0.0865
12268W        W28402   7.022  10.897  10.733 -0.1745 -0.0635 -0.0954
12269W        W28403  15.345   9.723   2.557 -0.0063  0.0691 -0.0422
12270W        W28404  15.582  12.539  16.341  0.1987 -0.1419 -0.0321
12271W        W28405  15.683  13.936   2.202 -0.3345 -0.2193  0.0936
12272W        W28406   7.594   0.508   2.180 -0.0120 -0.1082  0.1296
12273W        W28407  16.769   1.895   2.676 -0.0001 -0.0346  0.2392
12274W        W28408   6.060  15.539   5.428 -0.0261  0.2820  0.0906
12275W        W28409  17.330   4.015   5.641  0.1177  0.2065  0.0546
12276W        W28410  12.269   7.795   3.749  0.0937  0.1002  0.1547
12277W        W28411  16.793   4.963  11.263  0.5673 -0.1615  0.2131
12278W        W28412  17.775   9.733   2.711 -0.0050 -0.0770 -0.1569
12279W        W28413   9.497  12.321  16.134  0.1810 -0.0549  0.1147
12280W        W28414  14.768   0.319   5.350  0.0040  0.1389 -0.0159
12281W        W28415  16.123   9.271   4.276 -0.0365  0.2499 -0.1397
12282W        W28416  14.389   5.184   3.066 -0.0793  0.0103 -0.1509
12283W        W28417   0.777   1.555   0.726  0.1704  0.0924 -0.1334
12284W        W28418   7.592   3.043  15.610  0.0749 -0.1614 -0.3443
12285W        W28419  14.167   1.208  11.480  0.3283 -0.3408  0.1953
12286W        W28420  14.810  12.332   3.482  0.0068  0.1327 -0.2796
12287W        W28421   5.881  11.941   0.269  0.3897  0.0569 -0.1372
12288W        W28422   2.936   7.424   0.665  0.4087 -0.1777 -0.1747
12289W        W28423  12.659   9.867   2.821 -0.0929 -0.1138 -0.2296
12290W        W28424   5.250  12.896  12.443 -0.0856  0.0990 -0.0701
12291W        W28425   1.614  14.502   4.843 -0.1755 -0.0672 -0.0523
12292W        W28426  12.492   1.706   1.299  0.0618  0.2629  0.0031
12293W        W28427  15.493  10.969  13.062 -0.2476 -0.4115  0.0788
12294W        W28428  11.525   6.803  13.022 -0.3195  0.1769  0.4056
12295W        W28429  17.463   9.210  16.422 -0.1251 -0.0836  0.1115
12296W        W28430   9.914   4.406  15.003  0.2774 -0.2978  0.3536
12297W        W28431   1.443  16.482   3.789 -0.1307 -0.0492  0.4101
12298W        W28432  14.991   4.177   0.044  0.2921 -0.1545 -0.2563
12299W        W28433   6.250  13.753  11.418  0.0269 -0.3241 -0.1097
12300W        W28434   5.446   2.771   2.635  0.0814 -0.2027  0.0799
12301W        W28435  14.800  17.614  12.505 -0.1099  0.1112 -0.1881
12302W        W28436  17.052   4.715   3.868 -0.0560  0.0187  0.1173
12303W        W28437   0.522   2.041   3.007 -0.2401 -0.0647  0.0380
12304W        W28438   2.718   4.203  15.823 -0.0571 -0.0045 -0.0337
12305W        W28439  14.839   6.391   0.524 -0.0344  0.2017  0.3075
12306W        W28440   6.184  13.922   5.125  0.3555 -0.3171  0.0526
12307W        W28441  11.932   1.634   0.280  0.1095  0.1917  0.0678
12308W        W28442  17.778   9.269  10.709  0.0001  0.0227  0.0443
12309W        W28443   0.368   7.344  13.597  0.1791  0.3175  0.0065
12310W        W28444  14.949  16.313  12.188  0.2124  0.1078  0.0581
12311W        W28445   2.532   4.010   2.555 -0.3339  0.0308  0.2818
12312W        W28446  10.421   7.928  10.689  0.3220 -0.1108 -0.0393
12313W        W28447   2.726   6.418  16.120 -0.1899  0.0784  0.3061
12314W        W28448   1.830   0.152   3.361 -0.3628 -0.0344  0.1267
12315W        W28449   6.686   4.833   0.669  0.0503 -0.0854 -0.3519
12316W        W28450   1.755   5.030  16.358  0.2387 -0.0277  0.3063
12317W        W28451   5.873  11.769   3.185  0.0893  0.3600 -0.0565
12318W        W28452   1.663   4.681  11.459  0.1168  0.3186 -0.1429
12319W        W28453   5.087  11.208   5.069  0.2249  0.0613 -0.3145
12320W        W28454   5.418  12.185  11.391 -0.0536 -0.4335 -0.2500
12321W        W28455   7.376   2.236   0.026  0.2009  0.1119  0.0938
12322W        W28456  12.375  16.275  14.617  0.0937 -0.1738 -0.0015
12323W        W28457  14.231  15.104   4.039  0.3196  0.0729 -0.1708
12324W        W28458   3.324   4.115   3.341  0.0402  0.0670 -0.0681
12325W        W28459   0.371   0.712   3.728  0.2950 -0.1067  0.2650
12326W        W28460   0.572   0.519   5.215  0.0369 -0.0459  0.1591
12327W        W28461   1.041  12.699  15.428  0.3187 -0.1950 -0.1245
12328W        W28462   9.602   3.476  11.692  0.2189 -0.2184 -0.0371
12329W        W28463   7.465   0.990   2.359  0.0397  0.1645  0.1821
12330W        W28464  15.446  16.315  12.406 -0.1082 -0.2411  0.1360
12331W        W28465  16.739   6.992  16.062 -0.0767  0.0454 -0.0406
12332W        W28466  10.871  15.484   0.691 -0.3357 -0.3515  0.0082
12333W        W28467   1.128   4.798   1.348 -0.1084 -0.0732  0.0685
12334W        W28468   5.654   7.034   2.676 -0.2173 -0.1021 -0.0878
12335W        W28469   2.896  17.953   0.707  0.3600  0.0671  0.1493
12336W        W28470  16.376  10.348   1.280 -0.0635  0.1617 -0.2779
12337W        W28471  16.326  14.166  11.902  0.1126  0.0342  0.0074
12338W        W28472  15.473  15.486  14.649  0.0122 -0.0672  0.1447
12339W        W28473   3.436   2.505  12.460  0.0213 -0.2209  0.0471
12340W        W28474   3.279  16.152   2.409  0.2291 -0.1002 -0.1094
12341W        W28475   5.560   0.485   1.636  0.0329  0.2612  0.3902
12342W        W28476   4.282   9.028   0.847 -0.0153  0.3627 -0.4353
12343W        W28477  11.887   4.380  11.836 -0.0455 -0.1614  0.0820
12344W        W28478   2.494  11.899   2.311  0.0433 -0.1158 -0.2935
12345W        W28479   2.849   6.720  15.238  0.0019  0.5249 -0.0183
12346W        W28480   7.577  15.009   0.823 -0.1351 -0.0598 -0.0911
12347W        W28481  15.658   3.208   0.014 -0.0381  0.1070 -0.0507
12348W        W28482   5.056   2.658   3.370 -0.0894 -0.0100  0.0579
12349W        W28483   9.188   7.924  16.512  0.0642 -0.1079 -0.0848
12350W        W28484  11.592   4.677  14.363  0.0377 -0.2184 -0.1090
12351W        W28485  17.921  13.054  16.092 -0.0911  0.3300 -0.3319
12352W        W28486  13.910   9.970   2.214  0.0985 -0.3447 -0.1191
12353W        W28487  14.570   2.329   2.086  0.2358 -0.0642 -0.4080
12354W        W28488  11.726   4.579  13.408  0.0537 -0.4114 -0.1578
12355W        W28489  10.485  11.048   0.890  0.1670  0.1241 -0.0285
12356W        W28490   2.708   6.734   4.111 -0.2195 -0.2310 -0.4930
12357W        W28491   8.691   8.578  13.660 -0.0691 -0.2153 -0.0738
12358W        W28492   3.754   4.875   0.345  0.0194  0.0435 -0.0557
12359W        W28493  14.138  15.014   5.699  0.1492 -0.2730 -0.0144
12360W        W28494  14.283  17.151   2.476  0.0112 -0.0869 -0.3931
12361W        W28495   6.434   1.334   2.257 -0.0338  0.0481  0.0829
12362W        W28496  11.726  11.804  14.923  0.0571 -0.0560  0.1723
12363W        W28497   7.009  17.728  12.954 -0.0680 -0.1704 -0.0020
12364W        W28498  13.578   1.375  13.390 -0.1847  0.3231 -0.1632
12365W        W28499  10.734  14.684   1.683 -0.2666 -0.2578 -0.2392
12366W        W28500  13.420   2.330   2.450 -0.4392 -0.1898 -0.2071
12367W        W28501  14.318   3.761  12.917  0.0383 -0.0584  0.1939
12368W        W28502   8.766   3.473   0.270 -0.1371 -0.1877  0.1381
12369W        W28503   9.183  12.895   5.829 -0.1766  0.0873  0.2235
12370W        W28504   3.989  16.355  11.052  0.2457 -0.2095  0.1679
12371W        W28505   2.546   9.129   2.870  0.1230 -0.3599  0.3812
12372W        W28506   6.151   2.293   1.044  0.0721  0.0284 -0.2397
12373W        W28507   2.606  13.164   1.959  0.2608 -0.1953  0.1909
12374W        W28508   4.572  15.839   4.227 -0.0462  0.0770  0.2203
12375W        W28509   5.231   5.520  12.381 -0.0798  0.0158  0.0001
12376W        W28510   6.920  17.637  13.966  0.2215 -0.1462  0.2675
12377W        W28511  10.568  17.187  16.412  0.1247 -0.2894 -0.0980
12378W        W28512   2.693  15.689  13.545  0.1607  0.0346  0.2680
12379W        W28513  11.616   8.956  12.289 -0.0050  0.1292  0.0381
12380W        W28514   4.762  10.558  12.402  0.0519 -0.0015  0.0963
12381W        W28515  17.296   1.831   2.728 -0.0801  0.0967  0.0840
12382W        W28516   1.115   7.648   1.952 -0.0947  0.0413  0.0962
12383W        W28517  11.374   7.624   0.742 -0.0494 -0.0250 -0.0436
12384W        W28518   2.477  11.589  16.376 -0.2504  0.4621 -0.1506
12385W        W28519  12.066  12.953  15.599  0.1081 -0.1643  0.2784
12386W        W28520  13.197  12.725   3.965  0.5746 -0.2878  0.0833
12387W        W28521  12.171   1.761  13.310  0.2571  0.0934  0.0422
12388W        W28522   0.278   0.764  16.366 -0.2499 -0.0231  0.3473
12389W        W28523   9.008  13.403   3.166 -0.2023 -0.0889 -0.1007
12390W        W28524  12.114   6.475   2.475 -0.0517  0.0269 -0.1836
12391W        W28525  11.041  15.085   1.858  0.1082 -0.0175  0.1611
12392W        W28526   7.303   7.488   0.556  0.0786 -0.4511 -0.2142
12393W        W28527   4.488   3.253  15.217  0.1488  0.0944  0.0298
12394W        W28528   5.706  17.198   4.826 -0.1644  0.2011 -0.1297
12395W        W28529   6.204  11.048   4.839 -0.0757  0.2663  0.0404
12396W        W28530  17.101  15.942  16.093  0.0187  0.0564 -0.2193
12397W        W28531  10.714  12.767  12.082  0.0824  0.2772 -0.0811
12398W        W28532   7.407  10.174   5.085 -0.0191 -0.0559  0.1691
12399W        W28533  12.212   9.556  14.880 -0.0739  0.0733 -0.0469
12400W        W28534   7.442  17.454  12.874  0.1489 -0.1167 -0.2335
12401W        W28535   2.311   7.762  14.548  0.1068  0.1803 -0.1905
12402W        W28536  16.252  10.275  11.985  0.0010 -0.1094  0.1801
12403W        W28537  16.333   3.899   6.448  0.0521  0.0681  0.0021
12404W        W28538   9.566  18.102  14.473 -0.0870 -0.0030 -0.1066
12405W        W28539  11.933  15.513   3.913 -0.3095  0.1176  0.2234
12406W        W28540  16.220  17.981   4.311  0.0376  0.0271  0.0656
12407W        W28541   2.412  13.198  15.982  0.0082  0.0488 -0.1948
12408W        W28542   8.923   5.276   2.190 -0.2975  0.2304 -0.0005
12409W        W28543   9.448   7.484   0.890  0.2298  0.0539 -0.3869
12410W        W28544  10.178  11.504  13.585  0.0641  0.1161  0.2183
12411W        W28545   3.485  14.143  14.783 -0.3176 -0.2157 -0.2583
12412W        W28546  11.943  10.282   1.101  0.2463  0.0978  0.2002
12413W        W28547   1.411  16.394  13.521  0.1891 -0.0490  0.0200
12414W        W28548  15.562   2.906   0.619  0.0650 -0.0766 -0.0023
12415W        W28549   6.140   8.796  14.172  0.1835  0.0798  0.2208
12416W        W28550   3.067   6.551   1.273 -0.1558  0.3837  0.0304
12417W        W28551   5.607  16.644   3.104  0.1367 -0.0031  0.1096
12418W        W28552   0.211  12.491   3.567 -0.0741  0.0323  0.1714
12419W        W28553  10.230  13.375  16.459 -0.1274 -0.1827  0.0519
12420W        W28554  14.502  14.319  11.843 -0.0450  0.2321  0.0710
12421W        W28555  16.103  11.984   0.922  0.3016  0.1641 -0.1296
12422W        W28556  10.940   9.711  15.826  0.2409 -0.0028 -0.1356
12423W        W28557   1.935  10.343   4.822 -0.2183  0.0230 -0.2381
12424W        W28558  11.291   4.173   1.174  0.1365 -0.1539 -0.0253
12425W        W28559   7.719   1.000   1.884 -0.0703  0.1076  0.0798
12426W        W28560  18.058  12.394  12.311 -0.1690  0.1471 -0.4472
12427W        W28561  17.894   2.641  13.444 -0.2052  0.0212  0.2131
12428W        W28562  11.147   7.150  13.896 -0.1684  0.1374 -0.0199
12429W        W28563   3.226  10.457  15.649  0.2180  0.1134  0.2794
12430W        W28564   0.373  12.778  12.837 -0.1605  0.0416 -0.1271
12431W        W28565  11.569  14.980   2.145 -0.0175  0.0183 -0.3565
12432W        W28566   1.112   0.550  12.043 -0.1197 -0.0294  0.2618
12433W        W28567   5.636   7.480  10.811 -0.0934  0.4313 -0.1468
12434W        W28568   5.897   5.437  13.153  0.1061  0.1641  0.2155
12435W        W28569   5.158   6.057  12.096  0.0391 -0.4099 -0.2533
12436W        W28570  10.498  16.575   5.869 -0.0625 -0.0449  0.1708
12437W        W28571   3.633  14.685  13.996 -0.1403 -0.0536  0.1218
12438W        W28572   6.479  13.772   5.917 -0.0474  0.1246  0.0758
12439W        W28573   7.404  15.049   4.069 -0.0268  0.1278  0.0083
12440W        W28574  17.407   7.561  12.375  0.1613  0.3418  0.1095
12441W        W28575   6.022  13.342  13.734  0.0538  0.1005 -0.0270
12442W        W28576  11.704   7.781   4.019  0.3278 -0.0694 -0.2326
12443W        W28577  12.361   4.267  14.868  0.1348  0.0030  0.1335
12444W        W28578   6.175   4.588  15.598  0.1761 -0.1171  0.0496
12445W        W28579  14.106   9.476  12.491  0.0745 -0.3003 -0.0220
12446W        W28580  14.049   1.629   2.455 -0.0475  0.0565  0.0281
12447W        W28581   1.681  15.937   2.851  0.0821  0.0400 -0.0987
12448W        W28582   9.978  10.016  11.767  0.3221 -0.0477  0.1693
12449W        W28583   9.385   7.579   2.832  0.1343  0.0310 -0.0802
12450W        W28584   6.793   3.982   5.547 -0.1642  0.1064  0.0957
12451W        W28585   9.587  14.125   2.059 -0.2228  0.1954 -0.1165
12452W        W28586  13.952  16.434   6.085 -0.1555 -0.1019 -0.0702
12453W        W28587  12.619   1.265  14.497  0.0465  0.1353  0.4668
12454W        W28588  18.029   4.078  15.454  0.0885  0.1726  0.0069
12455W        W28589   7.382  15.591  15.072  0.3203  0.2731 -0.1615
12456W        W28590  14.521  10.949  10.844  0.1628 -0.1271  0.2134
12457W        W28591   0.941   7.469   5.833  0.1436 -0.2438 -0.2817
12458W        W28592  12.951   0.302   2.027 -0.2681  0.2253 -0.0061
12459W        W28593   3.143  13.748  12.481 -0.3392 -0.0320 -0.2788
12460W        W28594  10.944  13.838   1.150  0.0409  0.2555  0.0301
12461W        W28595  14.904   1.004   2.588 -0.0140  0.1200  0.1781
12462W        W28596   5.928   0.661   1.982  0.1364  0.1654  0.1504
12463W        W28597  14.699  15.877   1.859 -0.1914 -0.0560  0.0802
12464W        W28598   9.235   3.230   2.621  0.4960  0.0588  0.2794
12465W        W28599   0.082  16.781  14.072 -0.1986 -0.0815 -0.1772
12466W        W28600   2.566  14.073  14.776 -0.0555  0.0058 -0.1146
12467W        W28601   8.790  16.821   3.198 -0.2650 -0.0741  0.3622
12468W        W28602   0.509  12.793   5.756 -0.0537 -0.3714 -0.1973
12469W        W28603   9.425   1.242   3.765  0.0237 -0.2682 -0.0182
12470W        W28604  12.279   0.046   1.369  0.0093 -0.0435 -0.0641
12471W        W28605  11.827  16.764  16.153  0.2596  0.1866 -0.0082
12472W        W28606  13.485  10.589   3.751  0.0369 -0.1532  0.3214
12473W        W28607  16.032  14.423   0.304  0.1594 -0.0765 -0.1136
12474W        W28608   6.073   8.030  13.279  0.1609  0.1266 -0.0736
12475W        W28609  17.928   0.551  14.356 -0.3352  0.4415 -0.2814
12476W        W28610  14.501  17.622  15.265 -0.1808  0.2700 -0.1111
12477W        W28611  16.881   9.869  14.975  0.1167  0.0048 -0.2944
12478W        W28612  12.746  13.182   5.732 -0.0897 -0.1673  0.2017
12479W        W28613   5.481  17.500   2.734  0.0132  0.1207 -0.1611
12480W        W28614  17.698   2.530   4.622 -0.0909 -0.1621 -0.0643
12481W        W28615  16.752   5.169  12.019  0.0839 -0.0676 -0.0346
12482W        W28616  15.555  14.388  12.956  0.0840  0.0412  0.0069
12483W        W28617   0.926  17.182   2.641 -0.2118  0.0098  0.4154
12484W        W28618  15.795   3.767   3.399 -0.0950 -0.0756  0.1565
12485W        W28619   2.663   1.224   3.281  0.0868  0.2091 -0.3319
12486W        W28620   1.216   4.484  11.287 -0.2919  0.1575 -0.0338
12487W        W28621   1.514  13.487  15.806  0.2272 -0.1354 -0.1554
12488W        W28622   2.311  12.421  14.727  0.1493  0.0923  0.0814
12489W        W28623  16.152   4.406  16.316  0.1356 -0.0973  0.1954
12490W        W28624   2.929   4.983  11.523 -0.0579 -0.2484 -0.1800
12491W        W28625  12.462  12.347   4.614  0.0500  0.4634 -0.0152
12492W        W28626   9.291   7.450  16.309 -0.0645 -0.2408  0.2757
12493W        W28627   5.272   3.688  16.542 -0.1897 -0.1930  0.0903
12494W        W28628  12.342   1.429  12.895  0.0561  0.2570 -0.0270
12495W        W28629   2.034   3.888   2.795  0.0076  0.1142  0.0853
12496W        W28630  12.356   1.845  10.645  0.1734  0.0273  0.2109
12497W        W28631   3.178   7.134  13.245 -0.1101 -0.0618  0.3074
12498W        W28632   2.776  11.262  16.159  0.2972  0.0717  0.1169
12499W        W28633  17.534   7.395  11.907 -0.1302  0.0051 -0.1030
12500W        W28634   3.415   1.044   1.144 -0.2588 -0.0152  0.3650
12501W        W28635   1.523  13.095  16.488  0.2283 -0.1611  0.0622
12502W        W28636   5.777  14.590   3.087  0.2728  0.1127  0.0072
12503W        W28637   3.431   2.628  14.659 -0.4141  0.1163  0.2047
12504W        W28638   8.150   4.619  15.116  0.0212  0.0016 -0.1451
12505W        W28639   7.142   8.253   4.707 -0.4564 -0.2337 -0.1002
12506W        W28640   2.983  12.759   0.560  0.2548 -0.0771 -0.1817
12507W        W28641  17.900  11.886   1.058  0.1910 -0.0107  0.1166
12508W        W28642  12.779   6.717   0.427 -0.1354 -0.3800  0.0525
12509W        W28643   3.224   6.686  16.535  0.0631  0.0166 -0.2962
12510W        W28644   7.164  11.990   4.406  0.1386  0.0828 -0.2148
12511W        W28645   6.219  18.031   4.470  0.1228 -0.1727  0.0699
12512W        W28646   9.154   8.932   1.352 -0.1663 -0.1467  0.0634
12513W        W28647  12.667   7.475  12.135 -0.1199 -0.1467 -0.2333
12514W        W28648  17.328   8.437   3.040  0.0863 -0.1725 -0.3850
12515W        W28649   9.885  14.735   2.394 -0.0209  0.0037  0.0854
12516W        W28650   3.114   0.939  13.150  0.0685  0.0886 -0.2676
12517W        W28651  10.735   8.263  13.219  0.0295  0.1301  0.1889
12518W        W28652   1.740   8.762  13.740 -0.1958 -0.0971 -0.1854
12519W        W28653  10.763   8.154   4.287  0.0290 -0.4402 -0.0080
12520W        W28654   0.207   0.052   1.445 -0.0028 -0.0129  0.0831
12521W        W28655   8.873   2.159   4.043  0.4128 -0.2733 -0.1402
12522W        W28656   7.467  14.671  16.133  0.2178  0.0303 -0.2364
12523W        W28657   6.563   4.867  15.676 -0.3506  0.2233 -0.1300
12524W        W28658   9.545  11.964  14.141  0.2852 -0.0160  0.1201
12525W        W28659   5.014   7.456   2.823  0.0465  0.0382 -0.1642
12526W        W28660  16.950  16.074   3.468 -0.0534  0.1798 -0.1726
12527W        W28661   0.524  14.443  13.280  0.2379 -0.1793 -0.2975
12528W        W28662  17.595   4.036   3.139  0.2058 -0.1577 -0.2500
12529W        W28663  17.408  10.310   0.159 -0.0997  0.1467  0.3655
12530W        W28664   3.902   3.911   1.566 -0.0080 -0.1773 -0.3247
12531W        W28665  13.363   7.505  16.538  0.2311  0.0216  0.2301
12532W        W28666  12.889   0.505  11.929 -0.2448  0.2269 -0.0719
12533W        W28667  11.162  16.208  13.547  0.2218  0.1628  0.1755
12534W        W28668   7.089   4.642   2.198  0.0034 -0.2860 -0.1798
12535W        W28669   8.797   7.821   1.103  0.1454  0.0839  0.0501
12536W        W28670  15.843   3.020  14.166 -0.1358 -0.0279 -0.0460
12537W        W28671  14.914   9.834  13.199  0.0939  0.1400 -0.0817
12538W        W28672   1.480   8.724   0.832  0.1136 -0.2557  0.0055
12539W        W28673   9.946  15.292   5.586 -0.0920  0.3708 -0.1119
12540W        W28674  17.624   5.339  11.252 -0.3804 -0.3512  0.0377
12541W        W28675  15.079  10.283  13.344  0.0981  0.1168  0.0331
12542W        W28676  17.123   8.408  12.100 -0.2908  0.0222  0.2870
12543W        W28677   7.589  13.839  14.901  0.0761  0.1409  0.0644
12544W        W28678   3.226  10.650  14.243  0.2247  0.2583  0.0822
12545W        W28679   1.059   6.569  13.637  0.0456 -0.2257 -0.1332
12546W        W28680  18.025   1.361   3.162  0.0544 -0.0227 -0.0429
12547W        W28681   1.142  13.072   5.910  0.4013 -0.0681  0.1822
12548W        W28682   8.431  17.938  12.489  0.1928  0.3080 -0.1935
12549W        W28683  14.675  14.835   4.282  0.2981 -0.2775  0.2803
12550W        W28684   4.019   1.739  12.341 -0.0021  0.0223 -0.2213
12551W        W28685  15.218  12.644   2.640 -0.1973 -0.2400 -0.1148
12552W        W28686   9.613   8.831  15.587 -0.2264  0.2038 -0.0901
12553W        W28687   9.397   1.590   1.436 -0.2524 -0.2019 -0.0969
12554W        W28688   4.151   4.124   4.877 -0.3529 -0.0775  0.0761
12555W        W28689   2.146  18.124  11.666  0.1798  0.0639 -0.0854
12556W        W28690   4.767  16.914   3.153  0.0366  0.0401  0.0625
12557W        W28691  12.214  15.640  13.807 -0.2172  0.1788 -0.0911
12558W        W28692   2.181   0.272   0.514 -0.1669 -0.0324 -0.4345
12559W        W28693   1.627  17.086   4.709 -0.1248  0.0179  0.0478
12560W        W28694   0.473   9.846   0.772 -0.1356  0.1601  0.1252
12561W        W28695  10.167   5.093   2.588  0.0156  0.3550  0.0088
12562W        W28696   9.334  10.252   1.503  0.1129 -0.0390 -0.2012
12563W        W28697   0.615  10.774  11.546 -0.0985  0.1305  0.1290
12564W        W28698  13.779   6.340   4.353  0.0582  0.1433  0.2899
12565W        W28699   1.863  10.231   5.740 -0.1674  0.3348  0.2043
12566W        W28700   8.120   8.623  11.412 -0.1674  0.0919  0.1601
12567W        W28701  16.045  12.007  11.713  0.0040 -0.0192  0.2210
12568W        W28702  10.628   3.332   0.948  0.4052 -0.1513  0.3324
12569W        W28703  17.501   3.090  11.632  0.3106 -0.1524  0.2617
12570W        W28704  15.359   4.985   1.854  0.2013 -0.1423  0.0779
12571W        W28705  16.176  14.190   2.088 -0.1444 -0.1570  0.3171
12572W        W28706   7.417  17.096   4.892 -0.0810 -0.4804  0.1873
12573W        W28707   4.780   9.372  14.514 -0.0592  0.4212  0.0440
12574W        W28708   3.361   6.866   1.645  0.1557 -0.3508 -0.1291
12575W        W28709  14.549   5.945   1.185 -0.0917  0.0365 -0.0119
12576W        W28710  16.219  11.882   1.880  0.0436  0.0379  0.1183
12577W        W28711   6.797   4.954  16.103 -0.0303 -0.2022 -0.1618
12578W        W28712   6.903  13.918  14.128 -0.0317 -0.1171 -0.2738
12579W        W28713   4.722  11.550   5.413 -0.1253  0.1278 -0.1312
12580W        W28714  11.968  13.592   0.987 -0.2275 -0.0951 -0.1927
12581W        W28715   8.898   6.899  13.440  0.1206 -0.3809  0.0302
12582W        W28716   6.123   3.127   5.533 -0.1780 -0.0002 -0.2712
12583W        W28717  17.359  17.716   0.528 -0.1594  0.0667 -0.0193
12584W        W28718  14.310  13.361   4.533 -0.4197 -0.1597  0.0073
12585W        W28719   7.366   7.756  14.486  0.0543 -0.1415  0.2370
12586W        W28720  10.919   1.926   4.252  0.0454  0.0410  0.0789
12587W        W28721  17.446   1.662   4.744 -0.3204 -0.0697 -0.4232
12588W        W28722  15.426   9.263   2.195 -0.0125 -0.1281 -0.4283
12589W        W28723   5.424   5.646  14.102 -0.4755  0.1392 -0.1844
12590W        W28724   7.980   1.088   3.857  0.2923  0.0908 -0.3053
12591W        W28725   4.149  16.645  12.789  0.0897 -0.0354 -0.0197
12592W        W28726   6.015  14.440   5.664 -0.0633  0.2118  0.0660
12593W        W28727   1.114  10.037  10.750  0.0408  0.1491 -0.0342
12594W        W28728   3.032  10.842   0.297 -0.1018  0.0337 -0.0042
12595W        W28729  17.583  17.260   5.117 -0.0201 -0.0768 -0.0009
12596W        W28730   0.355   5.638   4.642  0.0876 -0.0734  0.1407
12597W        W28731  14.923  17.788   1.766  0.1465  0.1427 -0.3239
12598W        W28732   3.106   2.124  15.080 -0.2100 -0.0438  0.0060
12599W        W28733  14.679   6.414  14.074 -0.0041 -0.3146 -0.0423
12600W        W28734  13.830  10.316  10.976 -0.2524  0.1828 -0.1911
12601W        W28735   8.558  15.018   5.155 -0.2425  0.0924 -0.0100
12602W        W28736   5.905  10.173   3.195 -0.2165 -0.0657 -0.0694
12603W        W28737   5.961   4.811  16.035 -0.1711 -0.1151  0.0517
12604W        W28738  12.366   6.959   2.494 -0.0385 -0.2596 -0.1600
12605W        W28739   1.721  11.811   5.201 -0.0263  0.1234  0.1703
12606W        W28740  17.218  12.479   1.996  0.0948  0.0897  0.2549
12607W        W28741  12.836   3.498   5.766 -0.0941 -0.0100 -0.0092
12608W        W28742  13.275   3.218   0.807  0.0653 -0.0101 -0.0632
12609W        W28743   4.899   9.692   3.016 -0.3680  0.0127 -0.3926
12610W        W28744  10.242   8.168  12.992 -0.0543 -0.4919 -0.2128
12611W        W28745   1.386   3.393  12.665 -0.5896  0.1287 -0.0898
12612W        W28746  11.739   4.627   0.855 -0.0122  0.1421  0.1848
12613W        W28747   4.312   0.424   3.444 -0.0634  0.1727  0.3175
12614W        W28748   4.589  13.476  13.457 -0.2074 -0.1483  0.3076
12615W        W28749   2.607  17.108  15.987 -0.0558 -0.3895 -0.1929
12616W        W28750  11.594  12.975  13.398  0.0197  0.1292 -0.0223
12617W        W28751   0.183   4.738   0.661 -0.0370  0.1038 -0.1098
12618W        W28752  15.323   5.451  11.367  0.0011 -0.1519 -0.0692
12619W        W28753   0.048  17.799   0.436 -0.2612 -0.2198  0.0265
12620W        W28754  10.101  10.988  10.909 -0.1071  0.0070  0.0090
12621W        W28755   2.966  12.866   4.283  0.0508 -0.5008  0.0330
12622W        W28756   2.110  16.157   0.367 -0.0817 -0.0555 -0.0499
12623W        W28757   9.546   4.675  12.958  0.2206  0.1875 -0.2008
12624W        W28758  14.695  17.815  15.925 -0.2578  0.0243 -0.1307
12625W        W28759   5.941  13.556  16.496 -0.2693  0.0704 -0.0887
12626W        W28760  15.077  13.696  13.552  0.1502 -0.1235  0.1752
12627W        W28761  14.109   2.187  13.550  0.0872  0.1368  0.0428
12628W        W28762   2.479   4.925  15.116 -0.2713  0.4558 -0.0091
12629W        W28763  15.547  15.068  14.305  0.0812 -0.0758  0.1232
12630W        W28764  10.405   9.724   0.404  0.3786 -0.2008  0.3223
12631W        W28765  16.530   0.975  14.225 -0.0704  0.0693 -0.1241
12632W        W28766  15.017  14.649  16.109  0.1746  0.1221  0.0618
12633W        W28767   0.241  15.801  14.415 -0.2248  0.1751  0.2177
12634W        W28768   2.091  15.316   1.445  0.1135  0.2392 -0.0725
12635W        W28769  14.907   3.483   4.772 -0.0179 -0.1661  0.1493
12636W        W28770  14.036   1.670  13.439  0.2129 -0.0816  0.0846
12637W        W28771   3.472  15.008  12.097  0.1641 -0.1832 -0.1487
12638W        W28772  15.270   9.418   4.046 -0.0075 -0.0081 -0.0696
12639W        W28773   7.793   9.094  10.595 -0.3343 -0.3863 -0.0638
12640W        W28774   9.706  17.017   3.701  0.3318 -0.0560 -0.1426
12641W        W28775   6.948   4.599   1.053  0.1537 -0.2845  0.2642
12642W        W28776  10.705  13.756  11.679  0.0633  0.1647 -0.3570
12643W        W28777   5.644  17.636  15.925  0.0393 -0.0779 -0.2892
12644W        W28778  14.566  13.680  12.934  0.1361 -0.1514  0.5060
12645W        W28779   8.946  13.808   0.854 -0.3099  0.0804  0.1710
12646W        W28780   1.220   8.313  16.012 -0.0167 -0.1073  0.3285
12647W        W28781  16.785   0.217   0.279  0.1837  0.0384  0.1683
12648W        W28782  14.739  15.763  12.725 -0.1021 -0.1114 -0.2931
12649W        W28783  12.984   1.913   1.092 -0.0029  0.1386 -0.1389
12650W        W28784   1.563  12.860   1.816 -0.1748 -0.1757 -0.1242
12651W        W28785   5.518  15.322  12.161  0.1910 -0.1125  0.4308
12652W        W28786   5.564  13.779   3.239 -0.0092  0.0589 -0.0339
12653W        W28787   5.973   0.962   4.298  0.1771  0.1372 -0.2357
12654W        W28788  13.954  15.236  13.666  0.2367  0.0765  0.0104
12655W        W28789   4.440   4.939   1.587  0.0121 -0.2196  0.1568
12656W        W28790   4.687  14.953   3.194 -0.2735  0.2754  0.0589
12657W        W28791  15.786   6.752  10.851 -0.1897  0.2987  0.1678
12658W        W28792   6.304   6.384   4.672 -0.3455 -0.1652 -0.1973
12659W        W28793  17.321   0.490   4.342 -0.0771  0.1885  0.1502
12660W        W28794  14.843  17.350   1.410 -0.0790 -0.1250  0.1966
12661W        W28795  10.304   9.277   1.858 -0.0362  0.1076  0.0219
12662W        W28796   3.654  10.464  13.454 -0.0667 -0.4014 -0.1057
12663W        W28797  16.601   4.525   1.506  0.1827 -0.0551 -0.3036
12664W        W28798   7.472  14.716   2.701  0.4359 -0.0970 -0.0009
12665W        W28799   3.278  17.999   4.195  0.2716 -0.1034 -0.2029
12666W        W28800   9.843   6.802  13.076 -0.1155 -0.1854  0.0001
12667W        W28801   8.684   1.445   2.288 -0.1244 -0.0759 -0.0039
12668W        W28802  13.156  16.277   0.607 -0.0725 -0.0053 -0.1033
12669W        W28803  12.440  16.380   5.225 -0.0017 -0.0543 -0.1880
12670W        W28804   6.359   6.381  11.469  0.0146  0.0899  0.0439
12671W        W28805   7.099  16.697  12.121 -0.2547  0.0040  0.1846
12672W        W28806   0.377  13.621   4.530  0.2576  0.0815  0.2604
12673W        W28807  12.397  14.397   1.635 -0.0397 -0.0707 -0.0107
12674W        W28808   0.873  12.991   3.292 -0.2902  0.2218  0.0115
12675W        W28809  14.766  12.662  14.371 -0.2265  0.0921  0.1035
12676W        W28810  16.574   1.413  15.655  0.2424  0.0898  0.1686
12677W        W28811   7.639  15.866  12.429  0.2858  0.3762 -0.1618
12678W        W28812   8.871   0.475   5.351 -0.0011 -0.1832  0.5714
12679W        W28813   4.016   0.926   1.847  0.1452  0.0136 -0.0471
12680W        W28814  11.639   3.159   4.781 -0.0518  0.0038 -0.1191
12681W        W28815  17.075   0.103  11.875 -0.1497 -0.0772  0.1854
12682W        W28816  12.294  14.619   1.212  0.0837  0.0209  0.1691
12683W        W28817   8.319  13.502  10.275  0.0717 -0.0494 -0.2114
12684W        W28818   4.248   2.476   4.251 -0.1326 -0.1038 -0.1256
12685W        W28819   0.430  14.982   4.333 -0.0107  0.0374 -0.3074
12686W        W28820  14.508  11.666  13.274  0.0957  0.1177 -0.1540
12687W        W28821  15.187   0.927  14.340  0.0613  0.0046  0.2422
12688W        W28822   7.934  15.241   0.574 -0.1464 -0.1908  0.0900
12689W        W28823   7.051  14.594   4.344 -0.0662 -0.0490 -0.0061
12690W        W28824  16.780   7.697   2.743 -0.2301 -0.0332 -0.2095
12691W        W28825  15.053  15.873   0.942 -0.1360  0.1457 -0.2800
12692W        W28826  13.621  17.431   5.324  0.0560  0.0983 -0.2750
12693W        W28827   5.187   6.627   5.853  0.1015  0.1828 -0.1938
12694W        W28828   7.708   7.721   1.897  0.0766  0.0773  0.3192
12695W        W28829  15.861  15.182  13.807 -0.0442 -0.2447 -0.2230
12696W        W28830   6.087   6.048  11.263  0.2819 -0.2502 -0.4088
12697W        W28831  11.564   4.099  14.414 -0.1781  0.3029  0.2861
12698W        W28832  14.805   7.579  15.437 -0.1478  0.1194  0.0303
12699W        W28833   5.070  14.614   3.181  0.1862 -0.0356 -0.0156
12700W        W28834  11.788  11.598   2.830 -0.2196 -0.1120  0.0649
12701W        W28835  11.416  17.042   3.455  0.0623  0.0089 -0.2788
12702W        W28836   1.336   9.879  15.623 -0.4003 -0.2723 -0.6121
12703W        W28837  14.128   5.179  12.384  0.4085 -0.0239  0.1096
12704W        W28838   6.092  12.470   2.091  0.0055 -0.1070  0.1556
12705W        W28839   1.071   3.338  15.008  0.1057  0.2476  0.4258
12706W        W28840  15.047   1.386  16.365  0.0236  0.1016  0.2550
12707W        W28841   6.402  12.782   2.352  0.0613  0.0563  0.1124
12708W        W28842   8.362  10.322  12.162 -0.1465  0.1122 -0.1757
12709W        W28843   3.375  14.236  12.161 -0.0424 -0.1715  0.0768
12710W        W28844   6.699  17.182  15.008  0.2530  0.0673 -0.2187
12711W        W28845  13.990  13.196  12.293  0.2236  0.2375  0.1689
12712W        W28846   4.672  15.805  13.678 -0.3158 -0.1744 -0.0538
12713W        W28847  16.556   1.143   4.152  0.0520  0.0266  0.1023
12714W        W28848   5.327   9.568   1.805  0.0884  0.1597 -0.1222
12715W        W28849  13.472   3.572  12.251 -0.1764  0.2006 -0.0757
12716W        W28850   0.232   7.335  12.003  0.1148  0.2459 -0.3132
12717W        W28851   3.215   6.442   2.847  0.0147  0.2466  0.2032
12718W        W28852  12.739  15.182   6.135 -0.0056 -0.1037  0.2573
12719W        W28853  11.146   1.205  14.358  0.1204  0.2169  0.1079
12720W        W28854   9.056   3.100   3.025  0.1684  0.1394  0.0715
12721W        W28855   3.409  15.903   6.463 -0.1218 -0.0848 -0.1881
12722W        W28856  16.774  16.278   6.253 -0.2154  0.0444 -0.1817
12723W        W28857   6.608   5.582   1.017  0.2703  0.2492 -0.2150
12724W        W28858   1.168   6.282  11.149 -0.1091  0.2750 -0.1936
12725W        W28859  12.012  17.109   4.700 -0.0506 -0.1302 -0.2426
12726W        W28860   5.696   5.988  11.540 -0.3937 -0.4504 -0.0393
12727W        W28861   5.333  14.263  12.197  0.2662  0.0233  0.0696
12728W        W28862   6.048   3.238   4.447 -0.1368  0.1574  0.0769
12729W        W28863   4.430   6.601   4.438  0.2238 -0.2217 -0.1339
12730W        W28864  13.975  16.832   4.560  0.1480  0.0728  0.1022
12731W        W28865   6.559  15.153  12.344 -0.3238 -0.0441  0.1379
12732W        W28866  15.799  13.014  15.119 -0.1760  0.0555  0.3115
12733W        W28867  12.177   9.286  15.309 -0.1451 -0.0909 -0.2704
12734W        W28868  13.583   4.195  12.005 -0.0227 -0.1003 -0.1150
12735W        W28869  13.503  16.507   4.647 -0.2182 -0.0604 -0.0546
12736W        W28870  12.115   5.790  15.640  0.1919 -0.1726 -0.0161
12737W        W28871  12.163   0.078   4.538 -0.0323  0.3417  0.0028
12738W        W28872   0.567   7.767  11.862 -0.1705  0.1891 -0.1504
12739W        W28873   3.991  12.844  15.967 -0.2292 -0.1960 -0.3721
12740W        W28874  11.145   6.592  13.683 -0.0315  0.1125  0.1313
12741W        W28875  15.242  11.030  11.498  0.2328  0.1733  0.0213
12742W        W28876   9.926   1.174   1.024 -0.1392 -0.1179  0.0762
12743W        W28877   3.931   1.289  16.335 -0.4451  0.1890  0.0160
12744W        W28878   1.785   2.140  11.853  0.1730 -0.3096  0.1058
12745W        W28879   9.272  12.711   2.014  0.0658  0.0713  0.0760
12746W        W28880  12.478  12.457  11.370 -0.1584  0.2934  0.3871
12747W        W28881   3.286   5.035  15.990 -0.1579 -0.0305  0.1042
12748W        W28882   7.769   9.048   2.602  0.2337 -0.0427 -0.0720
12749W        W28883   9.920   8.774  14.070 -0.0798  0.1446  0.1458
12750W        W28884  10.582   5.654  16.253  0.1724 -0.0097 -0.5287
12751W        W28885  18.090  13.616   5.883 -0.0864 -0.1429 -0.0599
12752W        W28886   1.997   0.268  14.252 -0.1877 -0.2856  0.1765
12753W        W28887  17.952   5.590   5.385 -0.3250  0.1141 -0.0882
12754W        W28888   7.361  17.582  12.259  0.0527  0.2293 -0.0945
12755W        W28889   2.663   1.472  13.943 -0.1158 -0.0474 -0.3527
12756W        W28890  11.819   4.566  12.307 -0.4611  0.0268 -0.0493
12757W        W28891   7.843  13.108  12.741 -0.1157  0.0765 -0.0583
12758W        W28892   6.797   4.374  13.573  0.0271 -0.1904  0.1148
12759W        W28893   9.150  16.741   3.622  0.3016 -0.1304 -0.0067
12760W        W28894  16.613   7.136   1.321 -0.0816  0.3040 -0.3474
12761W        W28895   7.253   1.283   6.116  0.2076  0.3803 -0.0172
12762W        W28896   4.675  15.886  14.965 -0.0363  0.2111  0.1417
12763W        W28897  10.825   1.356  13.895 -0.3023  0.0723  0.3647
12764W        W28898   4.925  18.114  11.972  0.2372  0.1986 -0.0305
12765W        W28899  16.951  16.482   5.809  0.3319 -0.0003 -0.0827
12766W        W28900   7.727   0.314  11.861 -0.2451 -0.1648 -0.0183
12767W        W28901  17.374  16.475   4.556  0.2779  0.0787  0.0289
12768W        W28902  10.698  10.295  15.094  0.1168  0.2467 -0.1007
12769W        W28903  15.725   3.200  15.459 -0.2652  0.3695 -0.1356
12770W        W28904  10.271  18.153  14.197  0.0311  0.2636 -0.0513
12771W        W28905   4.726   1.879   0.657  0.2428  0.2095  0.0069
12772W        W28906   3.555  15.954   5.421  0.2469 -0.1732  0.0433
12773W        W28907  10.198   5.001  13.477  0.0542 -0.5658 -0.0445
12774W        W28908   7.107   8.727  15.948  0.0176  0.1641 -0.1554
12775W        W28909  14.154  16.534   3.256  0.1414  0.1942 -0.0077
12776W        W28910  11.158  13.628   2.331 -0.2912 -0.2847  0.2696
12777W        W28911   1.060   6.034   1.118  0.1154  0.1209  0.4293
12778W        W28912  17.241   7.074   4.756 -0.2206  0.0671 -0.3502
12779W        W28913  16.721  14.281   3.038  0.2232  0.0150 -0.1646
12780W        W28914  17.647   5.912  11.900  0.2482 -0.0423  0.1710
12781W        W28915   0.958  15.993  14.024  0.1389  0.1830 -0.1595
12782W        W28916  12.154  14.801  13.995  0.2625  0.0642  0.1494
12783W        W28917   7.838   7.029  11.735 -0.1882  0.0803  0.1792
12784W        W28918  12.087  12.260   0.230 -0.1061 -0.1205 -0.2990
12785W        W28919  17.592   3.642   3.478  0.1544 -0.0526  0.1998
12786W        W28920   6.633   1.404   3.948  0.0372  0.0294 -0.1168
12787W        W28921  11.020   3.289  15.435  0.1005  0.0692  0.0810
12788W        W28922   7.685   5.501   5.814  0.1363 -0.0279 -0.1691
12789W        W28923   8.555   0.668   4.808  0.2686 -0.0314  0.0290
12790W        W28924   1.859  18.058  13.843 -0.0524 -0.1394  0.1485
12791W        W28925  14.113   2.041   4.119 -0.0201  0.0099  0.1839
12792W        W28926  13.101   4.713  11.618 -0.0058  0.1140 -0.3498
12793W        W28927  17.392  10.987  11.919 -0.1523 -0.2305 -0.0401
12794W        W28928   0.069  16.972   2.616  0.1472  0.1151 -0.0724
12795W        W28929  18.055   2.087   5.410 -0.0726 -0.3941  0.0426
12796W        W28930   3.644   2.487   2.704 -0.0711  0.0593  0.1505
12797W        W28931  17.487  13.221   5.898 -0.1452  0.0798 -0.2091
12798W        W28932  15.369   2.627  13.021 -0.4323  0.1832  0.0388
12799W        W28933   4.105  10.332  13.724 -0.1115 -0.0013  0.2627
12800W        W28934  14.735   1.733   3.240  0.0339  0.0731 -0.0912
12801W        W28935  15.824  15.592  13.534 -0.0894 -0.1279 -0.0451
12802W        W28936  14.245  16.864  13.301 -0.0558  0.0234  0.1827
12803W        W28937   8.847  17.674  15.143  0.1627 -0.0182  0.2511
12804W        W28938  17.186   2.191  15.423 -0.1300  0.1439 -0.0860
12805W        W28939   2.361   4.605   2.004 -0.0904  0.0575 -0.1357
12806W        W28940  14.987  14.451   3.874 -0.2840  0.0944 -0.1300
12807W        W28941   0.492   1.054   4.951  0.1389 -0.0378 -0.1146
12808W        W28942   9.261   1.383   2.707  0.3354 -0.1073  0.2325
12809W        W28943  12.839   5.711   3.437 -0.0055  0.0365  0.1410
12810W        W28944  17.942  16.898   4.869 -0.1585  0.1019 -0.0584
12811W        W28945   1.871  10.854   1.043  0.0907 -0.0926  0.0991
12812W        W28946   6.091   9.801  11.741  0.1524 -0.2226  0.1156
12813W        W28947  14.813  14.962   2.876  0.0606  0.2928  0.0516
12814W        W28948  14.841   0.908   3.470  0.0797 -0.0388 -0.1873
12815W        W28949  12.634  15.082   5.607  0.1510  0.2021 -0.0159
12816W        W28950  10.060  10.047  12.574 -0.0741 -0.3353  0.1175
12817W        W28951   4.911   2.015  12.033  0.2240 -0.0675  0.1794
12818W        W28952   1.653   1.850  16.194 -0.0182  0.2797 -0.0150
12819W        W28953   0.273   9.195  14.662  0.0529 -0.3918  0.2052
12820W        W28954   2.762  13.721  15.255  0.1803 -0.4277 -0.0267
12821W        W28955  11.141   2.110   3.846 -0.1640 -0.2197 -0.0889
12822W        W28956  12.427   0.551   0.574  0.0626  0.0877 -0.3053
12823W        W28957  11.919  11.624   4.939 -0.0967  0.1275 -0.0899
12824W        W28958   7.981  16.579  15.717 -0.0734  0.2621  0.1671
12825W        W28959   0.806  16.885   1.902  0.0545 -0.3564  0.0868
12826W        W28960   1.643  16.218   5.942  0.0304  0.2494 -0.0958
12827W        W28961   3.810   1.179   0.751 -0.3704  0.3342 -0.2372
12828W        W28962  14.738   2.816   4.945 -0.0127 -0.0846 -0.3549
12829W        W28963   8.186   2.906   1.315  0.1826 -0.0775  0.3999
12830W        W28964  17.557  17.065  15.070 -0.1956  0.1753 -0.2498
12831W        W28965  12.075   9.166   4.521 -0.1774  0.0299  0.0734
12832W        W28966  13.642   6.072   1.715 -0.0493 -0.0822  0.2616
12833W        W28967   8.708   6.259  12.480  0.1061 -0.2180 -0.2162
12834W        W28968  14.128  17.181  16.356  0.0530 -0.0423  0.1753
12835W        W28969   3.974   8.164   0.986 -0.0626 -0.0450 -0.3280
12836W        W28970   5.981  15.596  15.185 -0.0044  0.3088  0.1555
12837W        W28971   1.495   5.546  12.923 -0.1166 -0.0992 -0.0832
12838W        W28972   0.165   5.652  10.218  0.0418  0.0573  0.1104
12839W        W28973   3.208   3.842  13.530 -0.1634  0.2920  0.2325
12840W        W28974   6.898   2.837   3.750 -0.0254 -0.1695  0.0391
12841W        W28975  16.817   4.337   1.999 -0.1134  0.2746 -0.2153
12842W        W28976  10.844   0.553   1.942 -0.1340 -0.0600 -0.0687
12843W        W28977  17.506  14.129   2.487 -0.0508  0.0485 -0.5455
12844W        W28978  10.132   6.236   5.267  0.1225  0.2443  0.1263
12845W        W28979  10.411  11.417  15.215  0.0592 -0.0593 -0.1326
12846W        W28980  13.638   8.557  16.314 -0.0529  0.4133  0.1095
12847W        W28981   1.290  11.096  11.693  0.4746  0.0529  0.3313
12848W        W28982   1.006  10.633   3.529 -0.0351 -0.1450 -0.2493
12849W        W28983  15.408  17.532   5.504  0.1073 -0.2953 -0.1797
12850W        W28984   0.626   6.843  12.224 -0.1085  0.0899 -0.0582
12851W        W28985   5.590  15.236   5.374 -0.0869 -0.0669  0.1441
12852W        W28986   7.463   3.055   0.119  0.2651  0.1341 -0.0664
12853W        W28987  14.313   0.537  12.637  0.0707 -0.0077  0.6155
12854W        W28988  16.312   8.164   2.116 -0.0902  0.1486 -0.0167
12855W        W28989  14.145   2.067   4.773  0.1040 -0.1349  0.1193
12856W        W28990  15.439   9.749  12.179 -0.0752 -0.0039  0.0939
12857W        W28991   3.039   4.940   0.659  0.1583  0.1647 -0.2696
12858W        W28992  14.419   1.769  13.878  0.1080  0.0215 -0.0349
12859W        W28993   1.556   8.768   4.247 -0.0727 -0.1252 -0.1221
12860W        W28994  12.069  12.333  16.200 -0.2704 -0.0079  0.1496
12861W        W28995   3.881  15.693  14.600 -0.2358  0.2738  0.2457
12862W        W28996  11.182   4.000  13.030 -0.1858 -0.1117  0.1129
12863W        W28997   9.162   4.392   1.871 -0.2019  0.1081 -0.1327
12864W        W28998   7.642  14.223   0.908  0.0218 -0.0626 -0.0347
12865W        W28999   7.492  10.008  14.075  0.0020 -0.1103 -0.1472
12866W        W29000   1.095   9.193   3.044  0.3349  0.4016 -0.0971
12867W        W29001   1.052   3.285   2.460  0.0590 -0.4198  0.1409
12868W        W29002  16.930   4.698   2.790 -0.1120  0.2146 -0.3952
12869W        W29003  10.100  16.070  12.735  0.2659  0.1530  0.2127
12870W        W29004   5.223  14.807  15.211  0.4700  0.1009 -0.3504
12871W        W29005   5.180   3.914  13.432 -0.0397  0.0794  0.0192
12872W        W29006   6.686  12.094   4.358  0.0275  0.0754  0.0019
12873W        W29007  14.267  11.308   5.653 -0.1953 -0.0577 -0.4254
12874W        W29008   8.146   8.729  12.283  0.0181 -0.1350  0.0902
12875W        W29009   3.349   1.123  15.267 -0.0014 -0.2466  0.3592
12876W        W29010   3.600  14.142   3.684 -0.1227  0.2194  0.1696
12877W        W29011  11.808  14.456   2.770  0.2877  0.1289 -0.2683
12878W        W29012   6.866  11.371  14.276 -0.2518  0.0995  0.1626
12879W        W29013  17.759  17.213   4.058  0.1274  0.0849  0.0620
12880W        W29014   4.629   2.705  14.949  0.3382 -0.3039  0.4208
12881W        W29015  10.741  11.631   1.841 -0.1414  0.2870  0.0460
12882W        W29016   9.403   9.695   0.546  0.1363  0.2538 -0.1132
12883W        W29017   0.461  12.030   5.158  0.2633 -0.1232  0.1092
12884W        W29018   9.355  11.948  16.472 -0.2014  0.0115 -0.1087
12885W        W29019  13.825   0.486  12.528  0.1329  0.1527 -0.2079
12886W        W29020  11.244   0.818  13.312  0.0289 -0.0114 -0.1566
12887W        W29021   9.857   2.047   4.045  0.1411  0.0377  0.0667
12888W        W29022  18.060  10.106   0.744  0.3457  0.0746 -0.2561
12889W        W29023   2.015  11.994  12.946 -0.2034 -0.3073 -0.2134
12890W        W29024  11.476   2.584  13.160  0.3359  0.2806 -0.0059
12891W        W29025  14.580   4.740   0.120 -0.0406 -0.0195  0.2276
12892W        W29026   1.115  14.796  11.918  0.1984  0.0901  0.1124
12893W        W29027  15.965   0.430  13.691 -0.1361  0.0839 -0.1674
12894W        W29028   9.405   5.046  14.172  0.2449  0.1407  0.0553
12895W        W29029  10.306   1.187   5.343  0.3062 -0.1892  0.2024
12896W        W29030   6.628   6.779  15.670  0.0516  0.2020 -0.0389
12897W        W29031   5.332  16.761  13.576  0.0757 -0.0328 -0.2180
12898W        W29032   4.117   9.038  10.934  0.3807  0.2991 -0.0080
12899W        W29033  11.371  13.625  15.976 -0.0893  0.3016 -0.0323
12900W        W29034  14.725  13.373   2.115  0.2521 -0.0225  0.1399
12901W        W29035   3.101  13.800   3.635 -0.0433  0.0532 -0.0326
12902W        W29036   4.983   5.046   0.017  0.0662 -0.1566 -0.0239
12903W        W29037   7.331  17.376   0.370  0.0197  0.2560 -0.0371
12904W        W29038  11.738   7.470  11.938  0.1753 -0.1996 -0.1829
12905W        W29039  11.880  16.860  13.637 -0.1490 -0.1887  0.1162
12906W        W29040   6.007   2.360  16.386  0.0189 -0.1062 -0.0911
12907W        W29041   7.936   9.035  14.917  0.2361 -0.1360  0.3740
12908W        W29042  18.044  12.528   1.736 -0.0463 -0.0477 -0.0288
12909W        W29043   5.165  12.049   3.814  0.2788 -0.3333 -0.0020
12910W        W29044   9.607   6.060  12.367  0.5996 -0.0226  0.3908
12911W        W29045   5.265   6.560  15.364  0.0355  0.0319  0.1634
12912W        W29046   1.301  15.960  15.019  0.1261 -0.1300 -0.0401
12913W        W29047   0.866   9.597  16.502  0.1377  0.1526 -0.1205
12914W        W29048  13.523  13.955  11.464  0.0023  0.0809  0.0157
12915W        W29049  12.495  17.538   5.903 -0.1276 -0.1794 -0.2276
12916W        W29050  12.460   4.092   4.144  0.0965  0.1663  0.2381
12917W        W29051  11.906  10.063   3.088  0.1203 -0.0089  0.0902
12918W        W29052  11.543   3.757   1.339  0.2111  0.2096  0.0641
12919W        W29053   2.434   0.795   0.148  0.1196  0.2166  0.2610
12920W        W29054   5.818  16.970   5.318  0.1808 -0.2583  0.1167
12921W        W29055   0.086  11.076   1.339  0.0083 -0.2733 -0.1232
12922W        W29056   8.276   1.724   4.660  0.2055 -0.0531  0.2523
12923W        W29057   1.030  13.210   5.101 -0.0570  0.0293  0.3442
12924W        W29058   4.080   2.338  16.183 -0.1203 -0.1461  0.1234
12925W        W29059  15.731  12.134  12.183 -0.0578  0.0894 -0.0587
12926W        W29060  11.540   6.426   4.729 -0.0784  0.2979 -0.2907
12927W        W29061  17.942   6.476  11.838 -0.2625 -0.2295  0.0143
12928W        W29062   4.778  14.939  15.425 -0.2881  0.1597  0.2157
12929W        W29063  13.379   6.577   4.426  0.3766 -0.0426  0.2453
12930W        W29064   6.040   0.931   5.327  0.0534  0.3053  0.1036
12931W        W29065   1.360  14.547  15.686  0.2888  0.0725 -0.2013
12932W        W29066  17.999  13.843   0.228  0.0919 -0.2227 -0.4561
12933W        W29067  12.137  15.935   3.615 -0.2783  0.0309  0.0307
12934W        W29068  14.642  17.939   2.207  0.0983  0.1850  0.0587
12935W        W29069   5.691   6.440  15.664  0.1027 -0.0362 -0.3232
12936W        W29070   1.557   3.397   0.181  0.0720 -0.0236  0.2460
12937W        W29071  15.820  13.429  12.934 -0.1673  0.0911 -0.4292
12938W        W29072  10.450  15.666   1.500 -0.0185 -0.0992 -0.1385
12939W        W29073  16.269   9.712  13.808  0.2925 -0.1827  0.3315
12940W        W29074   7.540   1.304   2.821 -0.0173 -0.1447  0.4131
12941W        W29075  13.650  17.571   3.603  0.1019 -0.0351  0.1397
12942W        W29076  16.887   5.616   1.752  0.1049 -0.3619  0.0962
12943W        W29077  10.400   7.281  11.224 -0.0933 -0.0628  0.1041
12944W        W29078  18.098   5.958   1.171 -0.1095  0.3532  0.0261
12945W        W29079   6.835  14.025  12.132 -0.0003 -0.3475 -0.0742
12946W        W29080   3.127  15.919   0.460 -0.0770 -0.1471  0.2037
12947W        W29081   3.996  12.058   3.147 -0.3008 -0.0221  0.0627
12948W        W29082  15.252   3.424   1.227  0.1002 -0.4557 -0.0906
12949W        W29083  15.447  13.526   1.695  0.0799  0.0786 -0.2803
12950W        W29084  12.560   4.237   2.877 -0.1674  0.1255 -0.0808
12951W        W29085  14.449   6.776   3.958 -0.1204  0.0494 -0.1120
12952W        W29086   1.989   7.871  10.180  0.2188  0.0848  0.0547
12953W        W29087   9.961  18.154   2.104 -0.1377  0.1917 -0.2459
12954W        W29088   9.770   8.224  14.881 -0.0549  0.0686 -0.2862
12955W        W29089   3.767   9.336   0.157  0.0296  0.0655  0.0400
12956W        W29090   0.600   6.199  15.181  0.0661  0.0878  0.2049
12957W        W29091   3.334  10.670   3.277 -0.2054 -0.0833 -0.0712
12958W        W29092  10.621   2.263  12.220  0.3637 -0.1053  0.1185
12959W        W29093   5.511  16.626  13.034  0.0881 -0.0002 -0.4355
12960W        W29094   2.720   4.206   1.975 -0.0295 -0.2219 -0.1270
12961W        W29095   1.079   8.113   4.592  0.0464 -0.0955 -0.0984
12962W        W29096  15.239  11.504  13.999  0.2277 -0.1212  0.0981
12963W        W29097   4.990   9.710   2.204  0.0239  0.0488 -0.0972
12964W        W29098   9.775  16.835   3.209  0.0927  0.1567 -0.1346
12965W        W29099  15.231  13.057  11.321  0.1893  0.0851 -0.2372
12966W        W29100  12.505  12.016   0.638  0.0406 -0.0058 -0.3973
12967W        W29101  14.161   6.010  12.347  0.0197 -0.0761  0.2861
12968W        W29102   5.102   3.472   1.025 -0.3060  0.0063  0.0382
12969W        W29103  11.683   3.235   4.337 -0.1243  0.0174 -0.3330
12970W        W29104  17.834  16.578  14.165  0.2374 -0.2530  0.1489
12971W        W29105  13.947   1.239  15.056  0.4782  0.1644  0.0251
12972W        W29106   2.755   8.229  15.111  0.2065  0.0518  0.0924
12973W        W29107   7.951   3.929  11.647  0.0991 -0.0879 -0.0177
12974W        W29108  16.115   2.685  11.970  0.1460  0.0131 -0.3478
12975W        W29109   5.066  13.609   3.090  0.1754  0.0364 -0.1279
12976W        W29110  17.477  11.851   0.697  0.5396  0.0345 -0.0536
12977W        W29111   9.970  16.064   3.971 -0.0041 -0.2772 -0.0262
12978W        W29112  13.948  10.101   4.616  0.2063  0.0131  0.1841
12979W        W29113  17.333   4.273   5.177 -0.0883  0.0525  0.2137
12980W        W29114   8.743  15.902   1.577 -0.1231 -0.3052 -0.0188
12981W        W29115   3.206  16.415  14.749 -0.1908 -0.2461 -0.4425
12982W        W29116   0.908   6.845   0.881  0.1990  0.1218 -0.1726
12983W        W29117  16.257   0.559  13.308 -0.4011  0.3422  0.0657
12984W        W29118  12.404   1.228   5.754 -0.1551 -0.0769 -0.0348
12985W        W29119   2.997  12.499   3.705 -0.0886  0.3652  0.0555
12986W        W29120  16.992  16.269  13.297  0.2211  0.3124  0.1508
12987W        W29121  13.932   8.632  11.444  0.1063 -0.1652 -0.0135
12988W        W29122  13.274  11.414  15.733 -0.0989  0.0293 -0.2945
12989W        W29123   4.212  14.358  13.792  0.0798 -0.1590  0.4078
12990W        W29124   0.327  10.453   2.555  0.0131 -0.4179  0.0473
12991W        W29125   3.130   6.102   0.622  0.1106 -0.0283  0.4099
12992W        W29126  15.176  11.722   2.422  0.2501 -0.0791 -0.1285
12993W        W29127   7.256   2.491   5.692 -0.0771 -0.1542 -0.0537
12994W        W29128  18.145   5.558   0.144 -0.1066  0.1620 -0.0916
12995W        W29129   3.776   4.754   3.107  0.2699  0.0821  0.2576
12996W        W29130  11.338   5.534   1.780  0.3649  0.3104  0.0068
12997W        W29131  12.428   7.991  13.861  0.1294 -0.3143 -0.0717
12998W        W29132   0.099   3.675  15.854  0.0504  0.2147 -0.0096
12999W        W29133  12.839  11.350  14.866 -0.0707 -0.1372  0.0674
13000W        W29134   0.143  11.676  13.770  0.2724  0.1725 -0.0106
13001W        W29135   2.193  17.401   5.795  0.2649 -0.0992 -0.1209
13002W        W29136   6.193  10.189  15.509  0.0361  0.0103 -0.2559
13003W        W29137   6.044  12.112  14.728  0.1453  0.1359  0.2299
13004W        W29138   6.043   2.102  12.896  0.0700 -0.2798  0.2501
13005W        W29139  10.233   3.631  11.935 -0.1000 -0.1560 -0.5080
13006W        W29140   7.527   0.910  16.157 -0.2997  0.0082  0.1573
13007W        W29141  11.714  17.214  12.882 -0.3181 -0.2894  0.0913
13008W        W29142   8.315   9.779  12.383  0.1060  0.1256  0.2022
13009W        W29143   4.847   4.889   5.098  0.0528 -0.2605 -0.1106
13010W        W29144   0.489   2.455  14.430  0.1083  0.2222  0.2655
13011W        W29145   6.179   5.369  14.779 -0.1550 -0.0785 -0.0930
13012W        W29146  13.672   9.685  12.561  0.0213  0.1538  0.1695
13013W        W29147   9.384  11.324   1.764 -0.2681  0.1862 -0.1498
13014W        W29148   8.030  12.410  11.314  0.2032 -0.0610 -0.0799
13015W        W29149  10.885   8.001  14.238 -0.0987 -0.3192 -0.0187
13016W        W29150  11.017  15.413   4.252 -0.1084 -0.3491 -0.0900
13017W        W29151  15.107   7.888  12.358  0.0521  0.4118  0.2267
13018W        W29152   4.201  12.295   6.040 -0.1255 -0.2685  0.0061
13019W        W29153  13.289  13.878  16.406 -0.1337  0.0927  0.2586
13020W        W29154   8.927  11.068   3.901  0.0800  0.0619  0.2810
13021W        W29155   6.422  14.717   0.316  0.0236  0.2200  0.1279
13022W        W29156  14.480  11.338   4.628 -0.1885  0.1478  0.2013
13023W        W29157   3.779  10.911   3.839 -0.1410 -0.0056 -0.0788
13024W        W29158   4.736   4.220  15.719 -0.0668 -0.0081  0.4962
13025W        W29159   6.723  15.354  11.347 -0.0206 -0.1253 -0.0405
13026W        W29160  10.361   1.434   0.967  0.4411 -0.0696 -0.0991
13027W        W29161   1.453  10.753   2.357 -0.3642  0.1060  0.3073
13028W        W29162  10.619   6.830   2.296  0.2364 -0.0042 -0.0182
13029W        W29163   1.645  17.395  16.005 -0.2080  0.3704  0.0237
13030W        W29164  13.007   2.114   3.194  0.2542 -0.1837 -0.0976
13031W        W29165   5.571   6.294  14.599 -0.0400  0.0664 -0.2105
13032W        W29166  14.647   0.791   1.207  0.2470 -0.1232 -0.1413
13033W        W29167   6.037  16.659   2.845  0.0179  0.1455  0.1966
13034W        W29168   3.772   3.174   3.729  0.0560 -0.0050  0.1721
13035W        W29169   0.751   9.277   4.003 -0.0687  0.0040 -0.0268
13036W        W29170   9.137  14.304  14.738  0.0668  0.0641 -0.0513
13037W        W29171   8.763  12.393  16.223 -0.0881 -0.1656  0.2391
13038W        W29172   4.644   7.147   5.176  0.1324 -0.4241 -0.1536
13039W        W29173  15.566   9.112   5.300  0.0175 -0.0151  0.0401
13040W        W29174   1.444  12.969  16.020 -0.3596  0.4630 -0.0895
13041W        W29175   7.980   9.998  13.126  0.4759  0.0397 -0.0432
13042W        W29176   8.502  17.216   0.107  0.0867 -0.1423  0.0860
13043W        W29177  11.119   5.976   3.904 -0.3179  0.0864  0.0220
13044W        W29178   8.054   5.153  15.347 -0.1805  0.1105  0.0042
13045W        W29179   5.694  15.454   1.884  0.0978  0.0068  0.1685
13046W        W29180  16.140   6.084  15.578 -0.2021 -0.1148  0.0336
13047W        W29181  12.217   8.567  11.188  0.0050 -0.0291 -0.1808
13048W        W29182  10.835  15.813  11.493 -0.2427  0.0836 -0.1438
13049W        W29183  14.623   1.463   1.812 -0.1652  0.2353 -0.0538
13050W        W29184   0.222   8.079  15.574 -0.0106  0.0822 -0.3687
13051W        W29185   7.273   5.031  15.131 -0.2421  0.4926 -0.1083
13052W        W29186   2.669   1.542   1.850  0.1014 -0.2328 -0.3012
13053W        W29187   7.536   0.294   1.280 -0.0080  0.3211  0.0623
13054W        W29188   2.104   3.521  11.728  0.0685 -0.0339  0.0700
13055W        W29189  15.376   8.200  15.759  0.2324 -0.0865  0.3727
13056W        W29190  11.417  13.502  11.777  0.0835 -0.0681 -0.0785
13057W        W29191   5.324   5.843  16.158  0.0045 -0.3136  0.0674
13058W        W29192   3.743  10.515   4.806  0.1338  0.0531 -0.4320
13059W        W29193  17.151  15.470   1.173  0.3908  0.0560  0.1455
13060W        W29194  10.736  17.077  15.912 -0.1726  0.1709  0.2413
13061W        W29195   9.359  13.990  13.956  0.1621  0.1150 -0.2010
13062W        W29196   4.283   3.969   2.367  0.2154  0.1480 -0.2648
13063W        W29197   3.950   7.622   2.815 -0.1317  0.0136 -0.0775
13064W        W29198  17.783  10.187   2.905  0.0594 -0.0331 -0.1906
13065W        W29199  10.858  17.531  16.241 -0.1291 -0.2125  0.1836
13066W        W29200   2.916   7.380   5.026  0.1613  0.1222  0.1005
13067W        W29201   0.579   1.818   5.123  0.2440 -0.1591 -0.2236
13068W        W29202   7.339   9.440   0.223  0.0172  0.0161  0.0063
13069W        W29203  15.822  14.126   4.402  0.0180 -0.1807  0.0261
13070W        W29204  16.975   9.026   1.262  0.1840  0.0716 -0.3469
13071W        W29205  13.486   8.413  14.430 -0.1316  0.0684  0.1070
13072W        W29206   1.455  13.444   5.209  0.3008  0.1222 -0.1072
13073W        W29207   8.961  13.617  13.945 -0.1466  0.0067  0.2482
13074W        W29208  10.430  14.498  16.398 -0.0012  0.0391 -0.1596
13075W        W29209   9.479  15.783  15.089  0.0209 -0.0793 -0.0132
13076W        W29210   3.961  13.258  11.792  0.0489 -0.3767 -0.1386
13077W        W29211   2.930   9.242   4.024 -0.0427 -0.0159 -0.0365
13078W        W29212  12.677   4.405  16.409  0.1506 -0.1813 -0.0801
13079W        W29213   9.445  15.930   3.105 -0.1641 -0.0811  0.2094
13080W        W29214  12.986  14.741   4.666 -0.0325  0.1616  0.0577
13081W        W29215   7.461   7.469  12.729  0.0586 -0.1098 -0.1819
13082W        W29216   4.992  16.445  13.717 -0.1482 -0.0085  0.0329
13083W        W29217  13.582  13.850   3.102  0.0604  0.0082 -0.1615
13084W        W29218   3.113   0.204   0.583 -0.3882  0.0762 -0.1684
13085W        W29219   9.322   5.756  15.642 -0.1644 -0.4099  0.0382
13086W        W29220  11.253   5.544  16.315  0.1677  0.1619 -0.0110
13087W        W29221  14.621   8.632  14.694  0.1998 -0.0601 -0.1307
13088W        W29222  12.073   4.839  16.083  0.1016 -0.1293 -0.2538
13089W        W29223  16.525  17.605   0.702  0.0270 -0.0986 -0.1183
13090W        W29224  11.056  12.632  13.941 -0.0988  0.1717 -0.1883
13091W        W29225  16.285   7.619   2.764  0.0054  0.2121  0.0190
13092W        W29226  16.884   6.897   3.131  0.2051  0.0277 -0.1265
13093W        W29227   7.751  12.633  14.973  0.1710  0.0579  0.0569
13094W        W29228   3.692   9.227  11.610 -0.1250 -0.2265  0.0893
13095W        W29229  12.589   1.651  16.299  0.0062 -0.0938 -0.3202
13096W        W29230   1.337  12.835  14.622 -0.0988 -0.0243  0.2913
13097W        W29231  17.035   8.557   2.463  0.0425  0.1336  0.0116
13098W        W29232  11.350   4.331  11.605  0.0504  0.1653  0.1096
13099W        W29233  15.661   5.472   1.751 -0.3320 -0.1697  0.0955
13100W        W29234   3.881  18.053   0.733 -0.0779  0.0775  0.2189
13101W        W29235  16.707  15.933   6.739 -0.0335  0.0468 -0.0816
13102W        W29236   5.625   7.279   4.135 -0.1620  0.2307  0.1228
13103W        W29237  15.720   0.475   4.508 -0.1209 -0.0259  0.1984
13104W        W29238   2.052  17.794   1.246  0.2933  0.0211 -0.1016
13105W        W29239  14.709   6.897  14.923 -0.0056  0.3954  0.1979
13106W        W29240  16.912   2.344  11.723  0.0769 -0.1375  0.1621
13107W        W29241   2.645   8.085  14.459 -0.1088 -0.4747 -0.2199
13108W        W29242   6.659   9.945  12.834 -0.0960  0.0100 -0.0126
13109W        W29243  12.599   8.424  12.115 -0.0513 -0.0098 -0.1594
13110W        W29244   3.018  11.560   3.479 -0.1921  0.1034 -0.4105
13111W        W29245   8.370  14.341   5.438  0.1983 -0.3221  0.0824
13112W        W29246   3.236  12.220  11.487  0.2358  0.2699  0.0854
13113W        W29247   4.475   4.310  16.126  0.0133 -0.1037  0.1174
13114W        W29248   5.697   1.979   1.285  0.2016  0.0578  0.0757
13115W        W29249   9.720  14.138   5.000  0.0070 -0.1693 -0.0428
13116W        W29250   7.083   9.562   2.976  0.1348 -0.1608  0.2266
13117W        W29251   5.483   1.534   0.015  0.4680  0.3820  0.0928
13118W        W29252   2.766   5.036   6.306 -0.3988 -0.0616  0.0189
13119W        W29253  13.274   0.643   0.838 -0.0209 -0.2427 -0.0466
13120W        W29254  11.333   6.899  16.418 -0.0809  0.0224  0.3390
13121W        W29255   2.545   6.880  13.655  0.0942 -0.1881 -0.0685
13122W        W29256   3.158   9.327  15.571  0.2509  0.3778  0.2301
13123W        W29257  13.725   7.303  13.985 -0.0527 -0.1136 -0.1814
13124W        W29258   9.842   6.597   0.496 -0.2171  0.0276  0.1668
13125W        W29259   2.904  17.025   0.550  0.1080  0.3017  0.1320
13126W        W29260   9.723   5.327   2.696 -0.1765  0.0920  0.2147
13127W        W29261   2.350  14.527   5.120  0.3724  0.1364 -0.0898
13128W        W29262  16.762   9.571  12.910 -0.0193 -0.2316 -0.1052
13129W        W29263   8.029   9.323  15.370  0.4205  0.2812  0.0948
13130W        W29264  10.341   0.608   5.305 -0.0440  0.0691 -0.2425
13131W        W29265  10.083  16.010   0.827  0.0365  0.3483 -0.0246
13132W        W29266   1.451  14.797  13.570 -0.0610 -0.4254  0.2558
13133W        W29267  12.413  14.432  14.291  0.0831 -0.1793 -0.0373
13134W        W29268   6.763  12.226  16.267  0.0216 -0.0895 -0.1484
13135W        W29269  13.276   1.892  16.046 -0.1568 -0.0077 -0.0863
13136W        W29270   5.758   5.741   1.978  0.0243  0.3254  0.1468
13137W        W29271   4.658   7.693   3.100 -0.0420  0.1996 -0.0134
13138W        W29272  10.114   1.952  12.931 -0.3716 -0.0515 -0.1484
13139W        W29273  14.902   6.647  13.639  0.3000 -0.0677  0.1188
13140W        W29274   6.439  10.150  11.531  0.0561 -0.2623  0.0084
13141W        W29275   4.190  10.479   4.635 -0.1488 -0.2822  0.2874
13142W        W29276   7.717   8.104   2.245 -0.1655  0.1495 -0.0373
13143W        W29277   1.649   3.786  12.684 -0.0400 -0.0445 -0.1986
13144W        W29278  10.837   8.510  15.414  0.0438 -0.0570  0.0374
13145W        W29279  17.290   9.734  14.307  0.1372 -0.3774  0.0740
13146W        W29280   2.068  12.634  12.787 -0.0043  0.0138 -0.1386
13147W        W29281  14.798   7.994   2.148  0.2598 -0.0991 -0.1617
13148W        W29282   3.063  15.861  13.259 -0.2518 -0.1449 -0.1004
13149W        W29283  16.620   5.458  15.081 -0.0299  0.1622 -0.0360
13150W        W29284   3.780  14.545  16.305 -0.1621 -0.0393 -0.4350
13151W        W29285   6.852  10.592  13.736 -0.1205 -0.4023 -0.1279
13152W        W29286   5.896   4.961  15.117  0.0842 -0.1875 -0.2152
13153W        W29287   8.769  16.047   2.528 -0.2115  0.2260 -0.1376
13154W        W29288   2.225   7.028   4.274 -0.0583  0.0666 -0.0522
13155W        W29289   9.920  14.453   3.396  0.0341 -0.0501 -0.0544
13156W        W29290   9.209   5.112  13.196  0.0327  0.0061  0.2325
13157W        W29291  13.018   1.024   4.309 -0.0567  0.2702 -0.2193
13158W        W29292   4.191  10.784  15.454  0.1721  0.0665 -0.0390
13159W        W29293   2.100  14.776   3.552  0.0377 -0.0904  0.3625
13160W        W29294  16.591  17.429  14.128 -0.1883  0.0625 -0.0675
13161W        W29295   4.632   0.236  12.453 -0.0742 -0.0529  0.0948
13162W        W29296   4.038   8.902   4.652 -0.2414 -0.1136 -0.2187
13163W        W29297  18.036  15.338   2.208  0.3206 -0.1476  0.0041
13164W        W29298   7.947  10.568  12.444 -0.0333 -0.0247 -0.2086
13165W        W29299  12.039  17.693  15.445 -0.0579  0.1277 -0.0481
13166W        W29300  14.743   5.520   1.439  0.2432 -0.2555  0.0690
13167W        W29301   4.233   2.762  12.180 -0.0794  0.1820  0.0114
13168W        W29302   3.725  13.478  12.618 -0.0937 -0.1892 -0.3247
13169W        W29303   5.658   3.118   1.169 -0.0458  0.1903 -0.0206
13170W        W29304  16.964  11.215   0.138  0.3445  0.1068 -0.2802
13171W        W29305   9.762  15.121  15.692 -0.0524  0.0329 -0.2652
13172W        W29306   6.533  14.046  15.019 -0.0816 -0.0156  0.1260
13173W        W29307  10.250  11.546  11.849  0.3300 -0.0830  0.0022
13174W        W29308   6.914   1.050  16.208 -0.0877  0.1432 -0.1548
13175W        W29309  10.856   8.575   2.833  0.1636  0.1366 -0.1836
13176W        W29310  16.155   1.835  11.753  0.0026  0.2082  0.3336
13177W        W29311  17.061   4.660   3.332 -0.1508 -0.2538 -0.1391
13178W        W29312  17.862   2.649   0.571  0.0251  0.1020 -0.2411
13179W        W29313  12.353  17.254   3.723  0.0879 -0.0564  0.1036
13180W        W29314  11.615   7.711  14.754  0.1015  0.0505  0.0974
13181W        W29315   9.482   2.227  12.885 -0.0048  0.0712 -0.0949
13182W        W29316   0.820   4.903   1.781  0.0148 -0.4002 -0.0740
13183W        W29317  17.999   5.907   0.605 -0.0952 -0.1721 -0.1045
13184W        W29318  11.995  18.155   4.989 -0.3613 -0.5637 -0.3218
13185W        W29319   9.936   1.548   1.354  0.0944 -0.1323 -0.0712
13186W        W29320   5.775   2.249   1.717 -0.3875 -0.2598 -0.0269
13187W        W29321  14.328   3.938   3.524  0.1404  0.0063 -0.0107
13188W        W29322  13.407  18.136   1.452  0.0191  0.0419 -0.3113
13189W        W29323   0.776  10.822  16.260  0.0760  0.1801 -0.1670
13190W        W29324   9.978   6.492   1.529 -0.0917 -0.0287 -0.1309
13191W        W29325  16.364  10.893   6.021 -0.1673 -0.1522  0.3171
13192W        W29326  11.969   8.258   2.646  0.3567 -0.0861  0.0043
13193W        W29327  12.128   6.741   2.985  0.0325 -0.0849 -0.1048
13194W        W29328  17.697  14.459   4.599 -0.1316 -0.2566 -0.2141
13195W        W29329   4.291  14.534  12.362 -0.0708  0.0764 -0.1265
13196W        W29330   1.979   9.161  11.666 -0.0308 -0.0943 -0.2008
13197W        W29331   2.710   4.519  14.686 -0.1601 -0.0524  0.0762
13198W        W29332  12.352   5.199   4.752 -0.1199 -0.0026  0.2053
13199W        W29333   1.920   2.756   4.038  0.0520 -0.0919 -0.0450
13200W        W29334   4.981   0.285  14.332  0.0621  0.3252 -0.1004
13201W        W29335  12.659   9.491  11.048  0.0932 -0.2474  0.0828
13202W        W29336  16.447   6.280   3.949  0.0938 -0.1439  0.0807
13203W        W29337  13.045  13.900   5.456  0.0782  0.0094  0.3402
13204W        W29338  14.215   8.010  12.181 -0.0105 -0.1248 -0.3384
13205W        W29339  17.924   4.022   1.201  0.0376 -0.0815  0.1605
13206W        W29340  15.524   3.354   3.306  0.2877  0.1608  0.2135
13207W        W29341   7.508  10.448  13.711 -0.1633 -0.1206  0.0175
13208W        W29342  14.400   5.664  15.262 -0.4512 -0.0610  0.0579
13209W        W29343  15.480  12.923   1.134  0.0255 -0.2198 -0.3296
13210W        W29344   7.118   5.371   1.832  0.1065 -0.3600 -0.2960
13211W        W29345   2.511  12.065  14.321  0.3094 -0.2855  0.0898
13212W        W29346  10.443  12.153   6.027  0.0195 -0.1814 -0.1801
13213W        W29347  13.242   3.818   3.920  0.3563  0.1939  0.4156
13214W        W29348  10.709  11.616   4.509 -0.3318  0.2040 -0.0119
13215W        W29349   7.257   3.894   3.578  0.0321  0.0596  0.0173
13216W        W29350   8.224   9.699  13.901 -0.3405 -0.0853 -0.2605
13217W        W29351  12.895  15.472   5.724 -0.4168 -0.0363  0.2823
13218W        W29352   3.378  16.667   4.642 -0.2779 -0.0616 -0.0091
13219W        W29353  11.492   2.219   1.219  0.0532  0.0657  0.2064
13220W        W29354   6.355   6.983   1.832 -0.0830 -0.3406  0.0014
13221W        W29355  16.858  11.662   6.536 -0.1576 -0.0922  0.1464
13222W        W29356   4.660  14.888   5.045 -0.0425  0.1455  0.1995
13223W        W29357   7.564  14.063  10.931  0.0067  0.2053 -0.0215
13224W        W29358  12.373  17.147   2.474  0.0316  0.0538 -0.0999
13225W        W29359  13.170   5.222   3.644 -0.0957  0.1277 -0.0056
13226W        W29360   8.521  18.106   3.215 -0.1607 -0.1536 -0.0174
13227W        W29361  14.887  15.315   0.161 -0.1487 -0.0292 -0.1544
13228W        W29362   4.624   4.329   4.752 -0.1433 -0.1181  0.1304
13229W        W29363   1.454   1.706  11.634 -0.1053 -0.0112 -0.3256
13230W        W29364   9.276   8.425  14.450  0.2319  0.0069 -0.2586
13231W        W29365  16.319  18.043   1.067 -0.1127 -0.0394  0.0225
13232W        W29366   4.737  17.828  16.505 -0.3178 -0.3309  0.0996
13233W        W29367  17.583  17.712   6.059 -0.1003  0.4344 -0.0464
13234W        W29368  16.738   0.603  11.730 -0.1329  0.1489 -0.0350
13235W        W29369   7.053   4.714   0.427 -0.0400 -0.5468 -0.1347
13236W        W29370  12.028   5.353  15.934 -0.0661  0.0651  0.1173
13237W        W29371  17.719  12.130  15.256  0.2449 -0.2305 -0.0990
13238W        W29372  15.133   2.599  12.579 -0.0987 -0.0249  0.3173
13239W        W29373  11.914   2.663  15.868 -0.2095  0.0268  0.0635
13240W        W29374   4.389  16.807   1.677  0.0081 -0.1143 -0.0324
13241W        W29375  10.789   9.353   2.697  0.0210 -0.0645  0.3105
13242W        W29376  13.509  11.084  11.910  0.3849 -0.4244  0.1630
13243W        W29377   5.245  11.967  12.834  0.0785  0.1716  0.4369
13244W        W29378   1.004   6.188  14.406 -0.0131 -0.2260 -0.1114
13245W        W29379   3.812   4.274   3.354 -0.2782 -0.1081  0.3356
13246W        W29380  15.893   6.420  14.191  0.0142  0.1907 -0.1084
13247W        W29381   5.963   6.337   3.087  0.2227  0.0183  0.1604
13248W        W29382   3.458  15.812   3.214  0.1521  0.2501  0.2747
13249W        W29383   2.059  12.964  13.502 -0.2360 -0.0843  0.0865
13250W        W29384  18.010  16.824   1.113 -0.1823  0.2803  0.2653
13251W        W29385   4.124  15.278  12.961  0.1152 -0.0477 -0.2835
13252W        W29386   3.686   5.865  12.025 -0.1871 -0.0542 -0.1053
13253W        W29387  16.422  16.181   2.803  0.1611 -0.1702 -0.4050
13254W        W29388   6.977  15.807   4.463  0.0520 -0.1830 -0.4045
13255W        W29389  13.118  13.248   1.856  0.2332 -0.0630 -0.1891
13256W        W29390  16.000  11.566  14.254  0.0599  0.0471  0.1470
13257W        W29391  14.986   8.455  12.177  0.3843  0.2392 -0.1290
13258W        W29392   0.040   5.145  16.539  0.4231  0.1334 -0.0528
13259W        W29393  17.789  16.950   5.529  0.2990  0.1830 -0.1759
13260W        W29394  15.472  16.356  11.713  0.2561  0.3962  0.0730
13261W        W29395   7.709  10.758   4.255 -0.0052  0.1885  0.3037
13262W        W29396   3.311  12.632  15.134  0.0013  0.2802  0.0459
13263W        W29397   2.412   3.146   1.636  0.0041 -0.0880 -0.0014
13264W        W29398   2.577   4.419  13.882  0.1231 -0.0620  0.1683
13265W        W29399   6.983  15.537  15.492 -0.1152 -0.0200 -0.2464
13266W        W29400   7.935  13.953  13.866 -0.0978  0.0043 -0.2102
13267W        W29401   2.846  16.717  16.114 -0.0354  0.2959  0.0073
13268W        W29402   7.195   1.690   1.701  0.0923 -0.1224 -0.1407
13269W        W29403  16.494  13.786   3.915  0.1512 -0.0941  0.2220
13270W        W29404   5.451  11.787  16.528  0.0584  0.0562 -0.1896
13271W        W29405   6.508  15.396   2.847  0.2777 -0.0155 -0.0105
13272W        W29406  11.709  11.930  16.481  0.3376  0.1111 -0.0337
13273W        W29407  10.656   1.576   4.498  0.0505 -0.1937  0.0544
13274W        W29408  13.109  14.802   2.274  0.0571 -0.2552  0.0588
13275W        W29409  14.583  17.028  15.488 -0.2371 -0.0843 -0.0769
13276W        W29410  16.755  13.946   1.285 -0.0230 -0.0211  0.1714
13277W        W29411  17.580   4.604  11.868  0.0603 -0.0956 -0.0669
13278W        W29412   4.850   8.182  13.239 -0.2974 -0.1968  0.0370
13279W        W29413   3.685  11.935   1.321  0.0138 -0.0538  0.0507
13280W        W29414   0.062   4.965   2.044  0.0959 -0.0320  0.2811
13281W        W29415  14.236   7.905   1.489 -0.1492 -0.0612 -0.0947
13282W        W29416  12.733   4.401  11.618 -0.2545 -0.0234 -0.2045
13283W        W29417   7.056   1.848   0.090 -0.0418  0.2829 -0.1191
13284W        W29418  17.323   6.351   4.199  0.1774  0.0026  0.0831
13285W        W29419   5.544  16.085   3.306 -0.2239 -0.0044  0.1689
13286W        W29420   7.822  14.010  13.075 -0.0423  0.0528  0.1508
13287W        W29421  14.368  11.508  11.594  0.1877  0.3272 -0.2218
13288W        W29422   8.245  13.220  11.848  0.2527 -0.0967 -0.0356
13289W        W29423  13.168   1.986   4.497  0.0951  0.3030  0.0666
13290W        W29424   0.023   1.121  15.086  0.1726 -0.0954  0.4248
13291W        W29425   0.862   4.992   3.515 -0.0122 -0.2319 -0.0997
13292W        W29426   1.762  17.146   0.738  0.0193 -0.3039  0.1059
13293W        W29427   2.891  14.990  12.792  0.0741 -0.3858 -0.0542
13294W        W29428   7.352   2.481   2.244 -0.0388  0.2616  0.1015
13295W        W29429   3.331  11.539  14.637  0.0670  0.2380 -0.0756
13296W        W29430  11.159  17.271   3.846  0.1575 -0.1752 -0.1374
13297W        W29431  12.992   1.377   0.961 -0.0017 -0.0783 -0.0078
13298W        W29432  12.858   7.226  15.247  0.1374 -0.1649  0.1128
13299W        W29433   4.755   7.796   2.587 -0.1394 -0.1698  0.0832
13300W        W29434  12.907   3.600   3.340  0.1182 -0.1839  0.1025
13301W        W29435   4.984  14.972   5.786  0.0736  0.1203  0.2809
13302W        W29436  15.131   2.610  16.072 -0.2751  0.0122  0.2992
13303W        W29437   3.290  16.573  11.825 -0.5097 -0.0659 -0.1926
13304W        W29438  17.438  13.976   5.160  0.0617  0.0811  0.1838
13305W        W29439   1.233   9.863   2.521  0.2289  0.0014  0.0550
13306W        W29440  10.887   5.168  11.292  0.0293 -0.1503 -0.0244
13307W        W29441   3.300   2.507  13.275 -0.1319  0.2873 -0.0033
13308W        W29442  10.846   7.023  11.117 -0.2990 -0.1785 -0.3344
13309W        W29443  12.629  15.498   6.525 -0.2988  0.1729 -0.2720
13310W        W29444  11.748   3.489  11.930 -0.0890 -0.5354 -0.0644
13311W        W29445  12.588  12.393  12.230  0.2155  0.0818 -0.2426
13312W        W29446  10.453  17.182   0.354 -0.2786  0.3822  0.0842
13313W        W29447  15.648  16.846   5.972 -0.1303  0.0990  0.2249
13314W        W29448   4.632  15.007   0.152  0.2367 -0.2692  0.0634
13315W        W29449   0.597  12.548  13.917 -0.0458 -0.0816  0.0971
13316W        W29450  13.969   7.387   2.300 -0.1409 -0.1898  0.2380
13317W        W29451   3.990   2.172   1.522  0.1229  0.3201  0.1462
13318W        W29452   6.636  17.434   3.681 -0.1024 -0.0397 -0.0768
13319W        W29453   0.778  18.166  15.468  0.0800  0.4973 -0.0287
13320W        W29454   4.484  17.005   4.619  0.0042  0.0137  0.0101
13321W        W29455   5.976  10.715  13.360  0.0216 -0.1355 -0.0708
13322W        W29456   6.642  18.074   3.120 -0.0367  0.0462 -0.0236
13323W        W29457  16.077   4.323  14.273  0.1305  0.2167  0.1439
13324W        W29458   5.095   8.891  15.826 -0.1050 -0.0042 -0.0957
13325W        W29459   2.331  14.496   0.034 -0.1203 -0.1147  0.0180
13326W        W29460  11.444  10.766  12.011  0.1646  0.0679  0.0231
13327W        W29461   3.382   6.039  12.315 -0.0789 -0.0311  0.0661
13328W        W29462   5.234  10.615  11.517 -0.5153 -0.1745 -0.0200
13329W        W29463   4.141  15.998  15.047 -0.0365  0.1640 -0.1340
13330W        W29464   9.962  10.631   0.470 -0.3547 -0.0849 -0.1423
13331W        W29465  18.018   8.434   1.477 -0.4092  0.0673  0.1574
13332W        W29466   6.526  10.595  10.722  0.0079  0.1217  0.4239
13333W        W29467   4.399   3.684  16.371  0.0504 -0.4547  0.0517
13334W        W29468   6.900   7.498  13.657  0.2106 -0.0188  0.0115
13335W        W29469  11.055  17.583   0.501  0.0377 -0.0991  0.1622
13336W        W29470   4.771  10.109   3.384  0.1513  0.2846  0.1427
13337W        W29471   8.586   8.385   4.775 -0.2476 -0.2924  0.1115
13338W        W29472  13.630  12.423   1.944  0.0405 -0.2492  0.1568
13339W        W29473  11.995  11.917  12.816 -0.1907  0.1214  0.1677
13340W        W29474   1.552   8.808   2.343  0.2790 -0.4788 -0.1064
13341W        W29475   5.370   4.453   3.980  0.0329  0.1366  0.1545
13342W        W29476   7.239   1.890   5.366 -0.1852  0.0139  0.1047
13343W        W29477   4.467   1.143  14.437 -0.1551 -0.1936 -0.2558
13344W        W29478  16.573   2.165   5.637 -0.3523  0.0212 -0.0616
13345W        W29479   1.885   3.771  12.127 -0.3225 -0.0196  0.1366
13346W        W29480   1.309  12.207   1.350  0.1213  0.0663  0.0543
13347W        W29481   3.870   0.233  14.545 -0.1116 -0.1435 -0.0074
13348W        W29482   0.719  15.761   2.711 -0.1318  0.2369 -0.1980
13349W        W29483   8.755   4.906   1.553 -0.1739  0.3841  0.1330
13350W        W29484  16.258  10.710  13.374  0.2821 -0.0814 -0.1877
13351W        W29485   2.569  10.078  15.836 -0.0543  0.0923 -0.0660
13352W        W29486  10.681  14.803   2.158 -0.1492 -0.0553  0.0780
13353W        W29487   6.899  10.580   1.696 -0.2410 -0.0501  0.0363
13354W        W29488  13.453  15.693   4.870 -0.1188 -0.0301  0.2980
13355W        W29489  14.191  11.561  12.929 -0.3631 -0.1036 -0.3028
13356W        W29490  11.128  10.110   0.059  0.4725  0.3556 -0.1107
13357W        W29491  17.796  13.156  13.396 -0.2216 -0.0369  0.2050
13358W        W29492   0.046   8.859   9.931  0.1823  0.2796  0.2369
13359W        W29493   3.998   3.951  16.501  0.2250  0.2028  0.0085
13360W        W29494   5.673   3.980  14.191  0.2247 -0.0314  0.1378
13361W        W29495   8.676  11.151   4.381 -0.0101 -0.0039  0.0141
13362W        W29496   3.252  14.641  12.391  0.0901  0.2955  0.0580
13363W        W29497  10.925   3.858  11.706 -0.0058  0.0860  0.0000
13364W        W29498   5.097  18.113   3.219 -0.0755  0.3762 -0.0301
13365W        W29499   8.764  16.327  16.355  0.1245  0.0728  0.0855
13366W        W29500  16.442  14.318   1.142 -0.1096  0.1256 -0.0741
13367W        W29501   0.080  15.779   4.050  0.0154  0.4052 -0.1224
13368W        W29502   4.024   4.133  12.280  0.0712 -0.0174 -0.0754
13369W        W29503  16.975  10.914   2.024 -0.0245 -0.0557 -0.2058
13370W        W29504   3.908   0.526  14.130 -0.2352 -0.0460 -0.1396
13371W        W29505  13.522   2.558   1.547  0.1595  0.1343  0.2185
13372W        W29506   7.796   9.572   0.484 -0.1737 -0.0089  0.5095
13373W        W29507  18.125  14.483   1.167  0.2840 -0.1917 -0.0665
13374W        W29508  17.740   2.218  12.548  0.0566 -0.0714 -0.1116
13375W        W29509  11.828   5.650  14.469  0.0919 -0.0892  0.2559
13376W        W29510   3.671  16.863  15.652 -0.0665  0.3700 -0.0689
13377W        W29511   0.806   0.155   4.779  0.4547 -0.2313  0.1174
13378W        W29512  11.409   3.823  12.593  0.1355 -0.0185 -0.0132
13379W        W29513  18.083  12.519   3.155 -0.1509  0.4352 -0.0918
13380W        W29514  10.350   3.066   2.266  0.0604 -0.0847 -0.0938
13381W        W29515  14.052  16.888  12.347 -0.3911 -0.3382  0.3879
13382W        W29516   9.161   2.094   2.003 -0.2383 -0.0163 -0.1615
13383W        W29517   1.550  14.340   0.487 -0.2559 -0.0050  0.0609
13384W        W29518   4.230  17.151  12.073  0.0294  0.1506 -0.0006
13385W        W29519   2.433   0.365   4.677  0.3385  0.1492 -0.0472
13386W        W29520  14.891  10.303  15.665  0.3035  0.0783 -0.4038
13387W        W29521  18.107   4.460  13.193 -0.0798  0.1878  0.1906
13388W        W29522  15.462   6.728  14.363  0.0477 -0.0961  0.1326
13389W        W29523   9.770  17.357   3.126 -0.2008  0.0902  0.0435
13390W        W29524  15.321  12.134   3.411  0.0001  0.0467 -0.1858
13391W        W29525  15.381  11.758   1.407 -0.3032  0.3318  0.0532
13392W        W29526  17.997   6.366   4.356  0.0470  0.1664  0.1314
13393W        W29527  16.329   0.701  15.184 -0.1900 -0.2461  0.0845
13394W        W29528   1.891   4.521   5.069  0.2261  0.2430  0.2379
13395W        W29529  14.794   6.761   1.439  0.0265  0.0407  0.0308
13396W        W29530  17.737   1.158  16.001 -0.0791  0.0464 -0.4605
13397W        W29531  12.528   0.364   1.109  0.0992 -0.0511 -0.1847
13398W        W29532  10.608   5.526   0.917 -0.2210 -0.2281 -0.0657
13399W        W29533  15.913   2.658  15.479  0.0771 -0.2728  0.3455
13400W        W29534  13.133   6.056   1.761 -0.1039 -0.2234  0.0872
13401W        W29535   9.882   2.369  12.660 -0.1494  0.0316 -0.0610
13402W        W29536  12.032   2.887   3.163 -0.1707  0.0600  0.1942
13403W        W29537   3.113   4.906  13.266  0.4590  0.0687  0.2383
13404W        W29538   7.911  10.000  12.265  0.0903  0.0216 -0.1639
13405W        W29539   9.198   9.464   2.598 -0.0627 -0.0087  0.0842
13406W        W29540   0.068   5.735   2.711  0.1339 -0.0983 -0.1020
13407W        W29541   5.159   6.091   0.054  0.1208 -0.0912  0.2894
13408W        W29542   1.953   3.493   5.436 -0.2113 -0.0389  0.2390
13409W        W29543   4.143   3.478  14.340 -0.1956 -0.1385  0.1668
13410W        W29544   8.761  13.372   0.955  0.0749  0.0003 -0.0771
13411W        W29545  10.895  13.028   1.109 -0.0686  0.3461  0.0880
13412W        W29546   8.470   4.979   3.386 -0.0434  0.1544  0.0994
13413W        W29547  13.620   9.116  13.317 -0.0777  0.1709  0.0497
13414W        W29548  13.707   8.627  13.542  0.1691 -0.1382 -0.0141
13415W        W29549   8.684   6.109  14.035  0.2648 -0.6553 -0.0389
13416W        W29550   3.149   6.224  15.303 -0.1076 -0.1653 -0.1785
13417W        W29551   6.318   7.571   0.883  0.0939 -0.1222 -0.2227
13418W        W29552   7.468   1.335   1.307 -0.2129  0.1699 -0.5498
13419W        W29553   9.379  10.972  14.269 -0.1392 -0.0030  0.0784
13420W        W29554  15.857   9.887  11.343 -0.1941 -0.0239  0.5018
13421W        W29555   1.410   7.928   2.392 -0.1321 -0.2015  0.1777
13422W        W29556   3.317  12.245   4.898  0.1569 -0.1822  0.1985
13423W        W29557   0.868   8.444  14.698  0.1222  0.7536  0.1024
13424W        W29558   6.268   4.729  13.681  0.0450  0.0658 -0.2967
13425W        W29559   8.094   6.189   0.761 -0.1362 -0.0658  0.2153
13426W        W29560  11.109  14.672   4.890 -0.1434  0.0089  0.0467
13427W        W29561   0.511   4.936   5.595 -0.2934 -0.1739  0.1215
13428W        W29562  14.151   3.878   3.038 -0.1198 -0.0055 -0.2853
13429W        W29563   3.213   4.449   0.314  0.2308  0.0153 -0.2268
13430W        W29564  11.726   8.149   3.710 -0.0673 -0.0737 -0.1474
13431W        W29565  11.758   6.219  15.395 -0.0672 -0.0739  0.0224
13432W        W29566   8.667  11.973  11.183  0.1028  0.1132 -0.1464
13433W        W29567  14.786  13.500   5.824 -0.1432  0.1005 -0.0891
13434W        W29568   2.066  15.364   4.254 -0.1268  0.3728  0.0268
13435W        W29569   2.655   0.305   5.201  0.2336 -0.0144 -0.0755
13436W        W29570  14.427  17.888  12.900 -0.0103 -0.1173 -0.0402
13437W        W29571   4.696  10.578   1.959  0.1847 -0.0128  0.0785
13438W        W29572   8.639  12.614  14.891  0.2262  0.1243  0.0198
13439W        W29573  17.392  16.975  12.283 -0.2299  0.4084 -0.2423
13440W        W29574  14.080   3.127   2.434 -0.2901  0.0940 -0.1219
13441W        W29575  16.632  16.541  15.447  0.3822  0.1716  0.2973
13442W        W29576   0.546  13.793  16.177  0.0063  0.0752  0.2468
13443W        W29577   2.162   4.702  14.793  0.0072 -0.1430  0.1121
13444W        W29578  15.640  12.375   2.493  0.0730  0.2393  0.0071
13445W        W29579  16.506  12.862  16.193  0.0434  0.0639  0.0801
13446W        W29580  17.130   4.102  11.638 -0.0775  0.0033  0.1753
13447W        W29581   8.525   3.064   4.829  0.0671  0.0439 -0.0885
13448W        W29582   9.042  13.838  14.981 -0.5303 -0.2435 -0.2187
13449W        W29583   3.491  14.163  15.298 -0.0029 -0.0387 -0.2435
13450W        W29584  12.992   8.220  15.202 -0.0090  0.2517 -0.4088
13451W        W29585   9.841   0.744   1.229  0.0273  0.2352  0.0446
13452W        W29586   8.912  15.226   3.250 -0.0759 -0.0093 -0.0747
13453W        W29587  15.134  16.372  10.821  0.3027 -0.1663  0.3695
13454W        W29588  17.508   0.036   4.150 -0.1640 -0.0144 -0.0581
13455W        W29589   7.207  15.633   3.567  0.0929  0.0738  0.2662
13456W        W29590   7.420   1.101  14.037 -0.0191  0.2405  0.0048
13457W        W29591   3.958   1.232  12.266 -0.3555  0.3794 -0.1463
13458W        W29592  13.196   7.872  13.169  0.3001  0.0046 -0.0809
13459W        W29593  18.060   9.700   3.088 -0.2842  0.3088 -0.2556
13460W        W29594  17.792  15.984   0.049 -0.1608  0.1362 -0.1181
13461W        W29595   9.895   8.092  15.394  0.1946 -0.0815 -0.0278
13462W        W29596   4.222   6.776  15.492 -0.2431 -0.0153  0.3081
13463W        W29597   2.949   4.506  11.265 -0.0808  0.0569  0.3343
13464W        W29598   4.007   9.514   2.344  0.0669  0.2506  0.0300
13465W        W29599   4.414   8.348  10.237 -0.0165  0.3148  0.1282
13466W        W29600  17.368   4.079  12.445 -0.0642  0.3987 -0.3265
13467W        W29601   8.164   5.589  14.992 -0.2422 -0.1936 -0.0700
13468W        W29602   8.658   0.075  12.195 -0.1142 -0.0967 -0.1647
13469W        W29603   7.071   6.727   2.249  0.0190  0.0748 -0.1110
13470W        W29604  14.424  18.176  12.362 -0.4789  0.0202  0.0052
13471W        W29605   3.784   0.483   3.645  0.0818 -0.2772  0.2983
13472W        W29606  13.038   8.605   1.286 -0.2482 -0.1056  0.1092
13473W        W29607  13.315  11.405   4.027  0.0722  0.1543 -0.3594
13474W        W29608   7.691   1.446   3.762  0.3132  0.1117  0.2343
13475W        W29609  15.258  17.255   5.942 -0.1798 -0.2525  0.1931
13476W        W29610  15.734  15.290  12.830 -0.1852  0.2971 -0.2032
13477W        W29611  14.671   5.857   3.769  0.0116 -0.1889  0.0036
13478W        W29612   1.687   0.052   1.199  0.2648 -0.0293  0.0868
13479W        W29613  10.896  16.620  12.680  0.2886 -0.0007 -0.0220
13480W        W29614   5.705   4.890   4.775  0.1000  0.1023  0.0465
13481W        W29615  13.827   6.402  14.528  0.0247 -0.1276 -0.0494
13482W        W29616  14.322  17.389   5.857  0.2420  0.0853 -0.0465
13483W        W29617   1.568   8.287   4.181 -0.0130 -0.1977  0.1029
13484W        W29618  10.507   4.690   6.497  0.1763  0.0464 -0.0880
13485W        W29619  17.250   5.053   3.055 -0.1633 -0.0047 -0.1277
13486W        W29620   6.943  15.774  14.974 -0.2203  0.1228  0.0923
13487W        W29621   5.393  16.921  12.663  0.3031 -0.0922 -0.2806
13488W        W29622  14.827   0.906  15.265  0.0988 -0.0395 -0.1665
13489W        W29623   4.382  11.131  13.401  0.3394  0.1467  0.1733
13490W        W29624   0.448   7.844  13.616 -0.4151  0.3288  0.1791
13491W        W29625  16.586   2.842   2.935  0.0953 -0.1233  0.0063
13492W        W29626  12.081  10.884  13.932  0.1091 -0.0433 -0.2579
13493W        W29627   0.546  13.142   3.683  0.1391 -0.0575 -0.2138
13494W        W29628   4.351  17.613   2.078 -0.0801 -0.0984 -0.1166
13495W        W29629  12.064  15.296  13.350  0.1606 -0.1975 -0.2398
13496W        W29630   7.071   5.589   5.179 -0.1644 -0.4037  0.0841
13497W        W29631  17.914   3.582  15.412 -0.1930 -0.1352  0.2105
13498W        W29632  14.022  12.451   3.275  0.1096  0.0116 -0.1447
13499W        W29633  13.094  10.787   4.008  0.4182 -0.0980 -0.0587
13500W        W29634   9.868  15.863   2.288  0.1524  0.0211 -0.0012
13501W        W29635   2.559  12.831   1.582 -0.2025 -0.0535  0.0561
13502W        W29636   9.334   3.708  13.322  0.3559 -0.1215 -0.1528
13503W        W29637   3.251  17.008  15.936  0.1031  0.3768 -0.0560
13504W        W29638  12.862  12.407   0.775 -0.1194 -0.3296 -0.0114
13505W        W29639  10.516  11.440   0.269 -0.0449 -0.2371 -0.1685
13506W        W29640  12.295  11.858   4.738  0.1871  0.1399 -0.0868
13507W        W29641   7.595   4.714  10.579  0.2570  0.0215 -0.2467
13508W        W29642   6.766   4.835   2.512  0.1044  0.1211  0.1721
13509W        W29643  12.183  16.285   4.273  0.0681 -0.2726 -0.3000
13510W        W29644   7.335   4.991  11.936  0.3531 -0.1374 -0.1064
13511W        W29645  11.148  17.076   1.859  0.1312 -0.2037 -0.0188
13512W        W29646   2.087   5.731   2.806  0.0165 -0.1138 -0.1891
13513W        W29647   0.306  15.193   3.586 -0.2661 -0.1767  0.0750
13514W        W29648   9.442  12.315  15.065  0.3054  0.0328 -0.0668
13515W        W29649   1.695   3.547   1.332 -0.2141  0.1739 -0.1011
13516W        W29650   7.288   4.249   2.862 -0.1139 -0.1242 -0.1690
13517W        W29651  16.025  15.432  14.412 -0.0608  0.1493 -0.4335
13518W        W29652  17.896  17.372  13.470 -0.1232  0.0064 -0.1323
13519W        W29653  17.652   9.366   3.056  0.0216  0.2582 -0.1128
13520W        W29654   6.613   8.332  14.063 -0.1047 -0.2538  0.1637
13521W        W29655   5.981   2.288   0.546  0.4291  0.3623  0.1458
13522W        W29656  15.193  17.397   0.422 -0.1708  0.0041 -0.1450
13523W        W29657  10.322   8.536  16.157 -0.0130  0.0160  0.2018
13524W        W29658   7.955   1.496  12.338  0.1926  0.2403 -0.1153
13525W        W29659   5.386  11.133   2.515 -0.0819  0.0615  0.0010
13526W        W29660   1.221   4.298  15.233 -0.1294  0.2297  0.2152
13527W        W29661   8.796   3.954  13.925  0.1697 -0.0933  0.4096
13528W        W29662   3.954  10.470  14.547 -0.2246 -0.2481  0.1257
13529W        W29663  10.709  10.290   4.637 -0.1763  0.2957 -0.0553
13530W        W29664   2.433   2.951  13.775  0.3395  0.0511  0.1366
13531W        W29665  17.002   2.352  12.320  0.0196  0.0063 -0.2664
13532W        W29666  10.588   3.259  13.982  0.2096 -0.3979  0.3237
13533W        W29667  10.776  14.068  10.902 -0.2536  0.1234  0.6239
13534W        W29668   2.128  14.961  16.247 -0.0019 -0.1638 -0.0064
13535W        W29669   5.099   9.497   1.243  0.2453  0.1069  0.0369
13536W        W29670   5.136   2.469   2.882 -0.1371  0.1713 -0.2290
13537W        W29671  15.446  11.493  13.072  0.1158  0.3641 -0.2389
13538W        W29672  12.930   5.840  15.868 -0.1040  0.1249 -0.2049
13539W        W29673  12.095   1.851  13.874 -0.0419  0.2644 -0.0124
13540W        W29674   9.593  11.188   3.503  0.1765 -0.1532  0.0654
13541W        W29675  17.884  15.198   1.255  0.0168  0.2875  0.0554
13542W        W29676  10.597   7.561   0.050 -0.1976 -0.0808 -0.0802
13543W        W29677   9.335   1.374   4.896  0.0377 -0.0388  0.0099
13544W        W29678   3.805   2.591   0.075 -0.0672 -0.1068  0.0942
13545W        W29679  15.206   9.951   4.918  0.3250 -0.1068 -0.0895
13546W        W29680   3.078  14.262  14.144 -0.2455  0.0514  0.3037
13547W        W29681  10.557   2.200   3.763  0.1761  0.3848 -0.0275
13548W        W29682  15.438   9.363   0.948  0.2191 -0.1280  0.1741
13549W        W29683   8.237   8.031   5.180 -0.2349 -0.2362  0.1467
13550W        W29684   6.039   2.984  14.536 -0.0039 -0.4094  0.6332
13551W        W29685  16.873  15.422  11.848  0.0190 -0.0047  0.0163
13552W        W29686   5.553   2.771   1.805  0.2959  0.1868 -0.4509
13553W        W29687  15.596   6.322  13.725  0.1586 -0.1659  0.0955
13554W        W29688   2.299  17.812  13.890 -0.0438 -0.0781  0.0439
13555W        W29689   1.555   3.848   3.002 -0.0991 -0.2045 -0.2490
13556W        W29690   2.437  18.095   2.556  0.2462  0.1389 -0.3140
13557W        W29691   9.423  11.642  13.738  0.3079  0.2089  0.0087
13558W        W29692   0.229   0.447  13.768  0.2468 -0.3320 -0.0543
13559W        W29693  17.125  16.902  14.835 -0.0105 -0.2923 -0.1537
13560W        W29694  11.954   0.630   2.652 -0.1895  0.1907  0.1638
13561W        W29695  12.198  10.014   4.813  0.2197  0.0015  0.3342
13562W        W29696  16.885   6.626  10.831 -0.0098  0.1009  0.1113
13563W        W29697   7.355   3.879  13.170  0.1949  0.0736  0.0395
13564W        W29698   0.565  11.877  15.328 -0.2534 -0.1420  0.0227
13565W        W29699   0.170   1.829   0.066 -0.2301 -0.0775 -0.1435
13566W        W29700   1.354   0.018  12.909  0.2186  0.1623  0.0276
13567W        W29701   8.735   2.806  11.824  0.0051 -0.1975  0.0919
13568W        W29702  14.955  17.872  16.335 -0.2461  0.2274 -0.1229
13569W        W29703   8.691  17.461  15.708 -0.0246 -0.0643 -0.0259
13570W        W29704   6.381   4.112   0.417  0.1744 -0.1847 -0.1424
13571W        W29705   5.585  15.102   1.169 -0.1193 -0.3233  0.4918
13572W        W29706   7.949   2.113   4.443 -0.1256 -0.1684  0.2754
13573W        W29707   2.099  17.194  14.984 -0.2018  0.1593 -0.0065
13574W        W29708   1.524  17.721  13.929  0.2602 -0.0828  0.0847
13575W        W29709   2.286  10.637  16.511 -0.2318 -0.3159  0.1274
13576W        W29710   5.049   1.499  16.355  0.0824 -0.0017  0.0850
13577W        W29711   1.537  11.299   4.904 -0.1958 -0.1510 -0.1998
13578W        W29712   1.712   8.428  15.919 -0.0756  0.0732  0.2932
13579W        W29713   8.175  16.353  14.831 -0.0354  0.0926  0.0739
13580W        W29714   7.156   5.700  11.260  0.1894  0.0116  0.1098
13581W        W29715   5.567  13.452   1.362  0.1262 -0.0840  0.2944
13582W        W29716  13.767   2.832   4.161  0.0151  0.1104  0.0246
13583W        W29717  17.867  14.257   4.164  0.2833  0.1449  0.1632
13584W        W29718  15.200  14.528   0.122  0.4162  0.2997 -0.1803
13585W        W29719   3.897   5.721   5.498 -0.1051 -0.1728  0.1489
13586W        W29720  12.488   5.364  13.845  0.2798 -0.1159 -0.0317
13587W        W29721   0.287  10.967   4.390  0.0505 -0.1183  0.1044
13588W        W29722  17.882  13.229   2.553  0.0453 -0.1711  0.0028
13589W        W29723  12.788  11.223   0.448  0.1097 -0.1705  0.3477
13590W        W29724   4.631  12.225  12.614  0.2330  0.0374  0.0324
13591W        W29725   3.310  16.978  14.405 -0.2294  0.0326 -0.0989
13592W        W29726   2.953  10.672   0.775 -0.1902  0.0059  0.0885
13593W        W29727   7.794   2.000   3.065 -0.2001  0.3028 -0.4672
13594W        W29728  13.294   1.564   4.862 -0.2827  0.0672  0.1494
13595W        W29729  15.443  16.356   4.792 -0.1810  0.1373 -0.0262
13596W        W29730   0.264   8.632  13.409 -0.2475  0.1013 -0.1150
13597W        W29731   2.476   2.326   5.759 -0.2914  0.0832 -0.0796
13598W        W29732  15.365   4.023   4.559 -0.0421 -0.1391 -0.3129
13599W        W29733   6.804   1.333   1.820  0.0218 -0.0784  0.0443
13600W        W29734  16.101  17.380  11.495 -0.0743 -0.0873 -0.1834
13601W        W29735  12.408   3.089   0.377 -0.2595 -0.1359  0.1308
13602W        W29736   3.956   1.286   0.258 -0.2130  0.2275 -0.0022
13603W        W29737  16.984   5.631  14.782  0.0792 -0.1242  0.1623
13604W        W29738   7.503  12.093   1.812 -0.2477  0.0972  0.1794
13605W        W29739   4.347   3.895  15.888  0.0317 -0.2411 -0.0060
13606W        W29740   9.907  14.675   5.008  0.1644 -0.1156  0.0634
13607W        W29741  13.935   5.365   3.153  0.1092 -0.1067 -0.0597
13608W        W29742   9.558  16.613  11.294 -0.0507  0.0313 -0.0497
13609W        W29743   1.206  14.967  12.790  0.2422  0.3733 -0.0843
13610W        W29744  11.356   8.702   1.380 -0.0342  0.0912  0.0990
13611W        W29745  11.360  17.940   3.728  0.1089 -0.3082 -0.2638
13612W        W29746   2.866   1.970  15.671 -0.0543  0.0588 -0.4148
13613W        W29747   4.862   3.734   0.190 -0.2303  0.0743 -0.1916
13614W        W29748  15.557   0.589   2.586  0.0654  0.0281 -0.3634
13615W        W29749   0.522  14.434   4.411 -0.1368  0.2462  0.0068
13616W        W29750  12.319   7.276  11.360  0.2927  0.6066 -0.0539
13617W        W29751   4.032   9.662  12.547  0.2172  0.0604  0.0231
13618W        W29752   3.492   4.559   1.192 -0.1028 -0.0448 -0.1393
13619W        W29753  16.841  12.967   2.725  0.3254  0.1353 -0.0932
13620W        W29754   8.987   1.742  13.714 -0.0914 -0.0370 -0.2934
13621W        W29755  12.639  11.365   4.561 -0.1118  0.0107  0.2440
13622W        W29756   2.168   6.949  13.299  0.2270 -0.0767  0.0092
13623W        W29757   6.840   3.592   4.886 -0.1351 -0.0339  0.0153
13624W        W29758  14.657  12.302   5.312  0.1815 -0.1903 -0.1112
13625W        W29759   9.389   1.356   0.050 -0.0495  0.0569  0.2336
13626W        W29760   5.383   9.733   0.947  0.2290 -0.0546  0.2555
13627W        W29761   0.769   2.817  14.051 -0.1944 -0.2184 -0.2759
13628W        W29762   4.071  17.669  14.835 -0.2213 -0.0245 -0.4456
13629W        W29763  16.443   5.694   4.654  0.2896  0.0704 -0.2697
13630W        W29764   9.825   2.806  12.369 -0.0997 -0.1472  0.2330
13631W        W29765  11.294   6.953  15.226  0.2103  0.1386 -0.4080
13632W        W29766  10.348  13.882   2.863  0.1426  0.1007  0.2861
13633W        W29767  17.830  10.651   1.720 -0.3770  0.4372  0.2154
13634W        W29768  12.674   7.157  14.311  0.2305  0.1112  0.0221
13635W        W29769   7.217  12.937  12.247 -0.1085 -0.3324  0.0605
13636W        W29770   6.236   4.006  14.212  0.0253  0.0793  0.0420
13637W        W29771   9.572   1.166   4.279 -0.1437 -0.1672  0.2721
13638W        W29772   0.190   2.302  14.033  0.1978  0.4513 -0.0332
13639W        W29773  13.069  11.804  11.796 -0.3956  0.1707 -0.0154
13640W        W29774  10.048  17.545   1.484  0.1152 -0.4352 -0.0703
13641W        W29775   6.262  17.576  15.178  0.0629 -0.0442 -0.1068
13642W        W29776   8.287  11.909  15.545 -0.0234 -0.0142 -0.0011
13643W        W29777   0.910  14.777  13.597 -0.0443 -0.1375 -0.3348
13644W        W29778  10.920   3.319   5.442 -0.2783 -0.0560 -0.3492
13645W        W29779   9.258   9.021  15.228 -0.0801  0.3064  0.4302
13646W        W29780   2.891  17.532  11.655  0.4260 -0.0720  0.2191
13647W        W29781   0.450  13.454  11.334  0.0781  0.0460  0.0464
13648W        W29782  12.481  16.824   0.469 -0.1831 -0.1741 -0.0574
13649W        W29783  11.253   7.143   0.555  0.0173 -0.1377  0.2161
13650W        W29784   1.103   0.850   2.740 -0.1131  0.2093 -0.1439
13651W        W29785  10.146   3.211  16.103  0.1010  0.2704 -0.2553
13652W        W29786   3.695  10.401  14.073  0.0882 -0.1366  0.1874
13653W        W29787   0.121   6.065   3.036  0.1619 -0.1980 -0.0795
13654W        W29788   1.681   7.445  15.007  0.0978 -0.0806 -0.3214
13655W        W29789  12.984   2.369  13.985 -0.0558 -0.0515  0.0300
13656W        W29790   8.610  14.396   2.386 -0.0738  0.2223 -0.2845
13657W        W29791  10.458   5.762   2.632  0.0257  0.0408  0.1255
13658W        W29792  17.372   5.662  15.795  0.0586  0.1738  0.1836
13659W        W29793   0.418  14.712  16.291 -0.2170 -0.0653 -0.1967
13660W        W29794   7.691   8.253  12.633  0.0080  0.4134  0.1273
13661W        W29795  10.873  15.653  13.171 -0.2996  0.0009  0.0293
13662W        W29796   7.979   3.327   3.720  0.2789 -0.4918 -0.1101
13663W        W29797  12.683   2.776   2.585 -0.1713 -0.3682  0.0580
13664W        W29798  10.488   4.645  15.172 -0.1795 -0.0935 -0.0279
13665W        W29799   0.758   3.663   5.003 -0.2778  0.3470 -0.0891
13666W        W29800   0.727   6.450  13.950 -0.1965  0.1115 -0.0689
13667W        W29801  16.082  13.959   4.957  0.0132  0.1551 -0.0115
13668W        W29802   3.156  10.815  15.177 -0.3347  0.1522  0.0814
13669W        W29803  14.848  15.616  14.168  0.0513  0.0822 -0.2374
13670W        W29804   2.848  12.891  15.183 -0.1508  0.0325 -0.2477
13671W        W29805   1.064  17.027   4.713 -0.0424  0.3314 -0.1487
13672W        W29806  15.312   5.868   1.821  0.1175 -0.0507  0.0051
13673W        W29807   4.633  11.216  12.975  0.1993 -0.3397  0.1036
13674W        W29808   9.489  16.781  14.537  0.3086  0.2040  0.0860
13675W        W29809  15.732  16.752   2.022 -0.0299  0.1786 -0.0566
13676W        W29810   4.270  12.488   5.567  0.0512  0.2508 -0.1686
13677W        W29811   0.247   3.291   3.649  0.1368 -0.1518 -0.3029
13678W        W29812  12.432  15.086   0.721  0.1628  0.2129  0.0153
13679W        W29813  14.043   0.458  13.541  0.2141 -0.2397 -0.0563
13680W        W29814   8.912   5.490  15.217 -0.2017  0.3508  0.1436
13681W        W29815   4.608  14.113   6.135  0.1125  0.0328  0.0464
13682W        W29816   3.604  13.684   3.331  0.0914 -0.1542  0.0441
13683W        W29817  15.771   9.063   3.807  0.1741  0.0755 -0.0993
13684W        W29818   0.622   1.500   5.484  0.2308 -0.3250 -0.1327
13685W        W29819   0.074  10.081  12.206 -0.1626 -0.2319  0.1423
13686W        W29820   7.925   3.464  14.149  0.3187  0.2282 -0.2260
13687W        W29821  10.862   1.076   1.188 -0.1332  0.0474  0.1227
13688W        W29822   2.409   9.138  15.361  0.0399 -0.1231  0.1306
13689W        W29823   5.212   7.715  11.071 -0.1896  0.1967  0.0843
13690W        W29824   5.692  14.604  15.153  0.0472  0.0695  0.3424
13691W        W29825  13.989   6.425  15.363  0.2096 -0.1048  0.2641
13692W        W29826   8.336   8.883  10.410  0.2210 -0.0846  0.2662
13693W        W29827   4.638   5.713   1.964  0.1831  0.0347 -0.0483
13694W        W29828  11.741  11.613  13.571 -0.1782  0.2993  0.0781
13695W        W29829  17.711   9.111  11.874  0.2866 -0.4540  0.1308
13696W        W29830   1.603   7.441   4.938 -0.1392  0.0807 -0.0947
13697W        W29831   4.504  11.288  11.227  0.0655  0.1418  0.3867
13698W        W29832  16.290  16.629   5.456 -0.1073 -0.2189  0.1324
13699W        W29833  16.103   9.113  15.847 -0.1523 -0.0681  0.1336
13700W        W29834   0.177  10.144   4.883 -0.0845 -0.2915 -0.0077
13701W        W29835  16.457   8.421   3.102  0.0195  0.0322  0.0418
13702W        W29836   2.242   9.635  13.357  0.0756 -0.3171 -0.0468
13703W        W29837   6.882   8.191  11.787 -0.2461 -0.2973 -0.2266
13704W        W29838  12.711  14.938  11.980 -0.1431  0.0979  0.1435
13705W        W29839   2.948  17.309   3.331  0.0960 -0.1696 -0.1052
13706W        W29840  11.634  15.215   0.080  0.0133  0.1258  0.1825
13707W        W29841  11.974  11.224  11.172 -0.0873  0.1583 -0.2840
13708W        W29842  11.016  12.637  15.576 -0.1621  0.0259 -0.3199
13709W        W29843  10.573   3.054  13.503  0.1056 -0.4664  0.1549
13710W        W29844  17.074  13.772  15.050 -0.0395  0.0015 -0.0768
13711W        W29845  11.129  11.787  15.846 -0.0440  0.1157 -0.0976
13712W        W29846   7.718  14.412  14.497 -0.2010 -0.0419  0.3382
13713W        W29847  12.972   9.368   3.993 -0.0605 -0.0818 -0.0193
13714W        W29848  11.423   9.215   3.989 -0.1237  0.1205 -0.1264
13715W        W29849  10.304   1.320  13.664  0.2126  0.1043  0.0785
13716W        W29850  16.315  13.002   6.433  0.3660  0.0477 -0.0657
13717W        W29851   1.044   7.197   4.566 -0.2237 -0.1100  0.4387
13718W        W29852  11.050   9.557   1.213  0.0913 -0.2139 -0.0198
13719W        W29853  15.204  14.225   6.036  0.1137  0.0827 -0.0687
13720W        W29854  14.927   6.430  15.237  0.0447 -0.2408  0.3220
13721W        W29855   5.205  10.664   2.156  0.1843 -0.0759  0.1431
13722W        W29856   6.891   7.572   2.567  0.1427  0.0845 -0.2129
13723W        W29857  17.665  10.452  14.680  0.1066 -0.1157 -0.0725
13724W        W29858   1.057   6.659   5.170  0.1723  0.2424  0.0679
13725W        W29859   3.062   2.483   1.801  0.0729  0.3187 -0.0442
13726W        W29860   1.409   6.469   1.182  0.2256  0.0866  0.1806
13727W        W29861   3.523  12.355  11.878 -0.3471 -0.0921  0.0305
13728W        W29862  13.438   7.035   4.036  0.0450  0.1463  0.0817
13729W        W29863   7.361   7.280  11.763 -0.0458  0.3643 -0.0433
13730W        W29864  17.463   2.729  13.712 -0.1850 -0.1366  0.0952
13731W        W29865   4.142  16.841  14.185  0.0532 -0.0932 -0.2872
13732W        W29866   0.208   4.286   0.439 -0.0215  0.0930 -0.0225
13733W        W29867   4.441   8.193   2.348 -0.2571 -0.2821  0.0393
13734W        W29868   3.436  16.855  13.442  0.2766  0.0234 -0.0754
13735W        W29869  16.662  10.451  13.203 -0.0071  0.0682 -0.3581
13736W        W29870   6.518   8.138   2.879  0.3693 -0.0703 -0.0214
13737W        W29871   1.763  12.755  12.430 -0.0741  0.0548  0.1496
13738W        W29872   4.584  15.316   5.945 -0.3312 -0.1963 -0.2184
13739W        W29873  10.497   2.694  13.885  0.0868  0.1758  0.1568
13740W        W29874  17.388  16.840   3.404 -0.3468  0.0062 -0.1777
13741W        W29875   1.636   1.169   2.853  0.0373  0.0872  0.1976
13742W        W29876   8.440  12.621  10.040 -0.4602  0.1286 -0.1425
13743W        W29877  15.257  12.237  13.391 -0.4749  0.0142 -0.0426
13744W        W29878   1.813   7.435   5.418 -0.0226 -0.0967 -0.0795
13745W        W29879   5.995  16.556   0.974  0.2776  0.2513  0.0039
13746W        W29880   8.382   9.287   3.902  0.0682 -0.1773  0.3273
13747W        W29881   4.120  10.437  13.127  0.0871 -0.0932  0.1335
13748W        W29882  16.201  17.575   1.206 -0.1637  0.1047 -0.0924
13749W        W29883   2.091   3.056  15.269  0.0336  0.0830 -0.0829
13750W        W29884  16.779  16.778   1.126  0.1563  0.0671  0.0137
13751W        W29885  14.598   5.410   4.010  0.0417  0.3583 -0.0520
13752W        W29886   3.332  16.890  15.254 -0.0868 -0.0055 -0.0299
13753W        W29887  11.909  14.314   2.300  0.0800 -0.0797 -0.0835
13754W        W29888  13.911   7.071  10.885  0.0542  0.1830  0.3754
13755W        W29889  12.680   2.631  12.352  0.1868 -0.0536 -0.3509
13756W        W29890  11.368   5.261   0.349  0.4234 -0.1002  0.2567
13757W        W29891   6.916   3.097   4.533  0.3727 -0.1244  0.0817
13758W        W29892   0.316   3.687  13.104 -0.3620  0.2671  0.0092
13759W        W29893   4.132  17.369   1.377  0.0259 -0.1542  0.0815
13760W        W29894  15.578  16.968  14.021 -0.2419  0.2650  0.0415
13761W        W29895  17.525  16.963   0.428  0.1249 -0.0407  0.0884
13762W        W29896  10.285  17.991   4.563 -0.0734 -0.1872  0.1556
13763W        W29897  18.162   3.129  15.569  0.4246 -0.1381 -0.2014
13764W        W29898   5.534  12.261   1.587 -0.4201  0.0814 -0.0707
13765W        W29899   4.827  13.459   3.824  0.2036  0.0782 -0.1125
13766W        W29900  10.794   0.900  12.255  0.1130  0.0500  0.2414
13767W        W29901  11.521   7.947  13.079 -0.1982  0.1462 -0.2704
13768W        W29902   1.418  13.949   5.571 -0.0197  0.0987  0.0845
13769W        W29903  10.079  10.450  16.181 -0.2284 -0.1230  0.0778
13770W        W29904  18.129  13.901   3.702 -0.0753  0.3616 -0.0409
13771W        W29905   6.943  16.193   4.795 -0.0858  0.0328  0.1163
13772W        W29906   4.928   5.977   2.235 -0.0328 -0.1545 -0.1177
13773W        W29907   7.130  12.133  11.163  0.0447  0.4338 -0.0922
13774W        W29908  11.848   2.764   3.725 -0.2708  0.2152 -0.0943
13775W        W29909  12.969   6.055   2.553  0.2616 -0.3111 -0.0383
13776W        W29910   0.420  12.996  11.666 -0.2562 -0.2332  0.0175
13777W        W29911   9.775   2.546   5.166 -0.1220 -0.1133  0.1737
13778W        W29912  12.556   0.468   1.636 -0.1449  0.0322 -0.1529
13779W        W29913  17.765  12.446   4.614  0.0924  0.0740 -0.0619
13780W        W29914   0.260  17.697  16.518 -0.0359  0.0355 -0.0260
13781W        W29915   8.316  13.843  12.996  0.1697 -0.1249  0.2132
13782W        W29916  13.103  10.658  11.823 -0.0362  0.2533 -0.0671
13783W        W29917   8.300   3.127   0.861 -0.2952 -0.0446  0.1775
13784W        W29918  18.107   7.929   4.185  0.2716  0.0589 -0.1857
13785W        W29919  13.250   8.128   1.437 -0.0824 -0.2839  0.1985
13786W        W29920  18.160  10.451  11.974 -0.0063  0.0123  0.1236
13787W        W29921   5.253   1.037  16.472 -0.1111  0.2399 -0.1270
13788W        W29922   7.454  10.541   2.849 -0.1217  0.2069 -0.0618
13789W        W29923  10.418  11.366  10.963  0.0615  0.0888 -0.1339
13790W        W29924   0.347   4.963   1.622  0.0144 -0.3091  0.0769
13791W        W29925   2.235   1.470   3.369 -0.2670 -0.1910 -0.0722
13792W        W29926   5.369   9.110   3.458  0.2686  0.0509  0.0609
13793W        W29927  16.937   3.599  12.433  0.0098 -0.1441 -0.1146
13794W        W29928   9.446  14.293   2.783 -0.2704 -0.2655 -0.0187
13795W        W29929  15.421   3.477  12.410 -0.0864 -0.1915  0.0602
13796W        W29930  12.224  14.269  11.945  0.2090 -0.2056  0.0296
13797W        W29931  17.791  10.112   2.324  0.0633  0.0998 -0.0669
13798W        W29932  16.488  10.404  15.740  0.1032 -0.0497  0.2931
13799W        W29933  11.334  12.048  12.250  0.3549  0.1537  0.0289
13800W        W29934  13.771  14.003   6.813 -0.2013 -0.1626  0.1168
13801W        W29935   0.373   0.856   1.109  0.1947 -0.2841 -0.2896
13802W        W29936   6.979   5.492   1.329 -0.2223  0.2899  0.2222
13803W        W29937   5.861  13.304  15.391 -0.2509 -0.1255  0.1938
13804W        W29938   6.484  12.863  12.599 -0.3130 -0.1703  0.1365
13805W        W29939  17.267  12.234   5.685  0.0890  0.2025  0.0142
13806W        W29940  10.910   1.893   2.911  0.1582  0.2694 -0.0894
13807W        W29941  16.734  17.487   4.043 -0.1725  0.0215  0.0919
13808W        W29942  17.146   3.170  12.726 -0.0523  0.1790  0.0249
13809W        W29943   5.594   9.638   1.427 -0.1381  0.3549 -0.0615
13810W        W29944   4.285   2.612  13.533  0.0931 -0.3001  0.2895
13811W        W29945  15.135   5.049   2.349 -0.1342 -0.1650 -0.1468
13812W        W29946   2.094   0.277   2.480  0.2500  0.1750 -0.1846
13813W        W29947  12.186   3.882   2.086 -0.0190  0.0546 -0.1821
13814W        W29948   4.177   3.674  12.428  0.0278  0.2434 -0.0845
13815W        W29949  11.761   9.086   0.422 -0.0627  0.0395 -0.3033
13816W        W29950  13.971   2.692   5.824  0.1082 -0.0123 -0.1740
13817W        W29951  14.478   1.150   2.198 -0.1323 -0.0635  0.0528
13818W        W29952  17.482   2.349   2.012 -0.1283 -0.2040 -0.3088
13819W        W29953  10.093  17.240  13.808 -0.1479 -0.2839 -0.1168
13820W        W29954  17.304   7.546   1.136 -0.1845 -0.3611 -0.2854
13821W        W29955   8.368   1.544  15.908  0.0997  0.1246 -0.0292
13822W        W29956  15.574   7.154  14.213  0.1476 -0.2805  0.0974
13823W        W29957   8.319   0.451  13.177 -0.0916  0.0751  0.0529
13824W        W29958  17.549  11.418   1.757  0.0736  0.2491 -0.2608
13825W        W29959  12.940  11.215   2.629  0.1272  0.1704 -0.0743
13826W        W29960   7.026   0.095   1.222 -0.1694  0.0871  0.1774
13827W        W29961  13.130  17.123  14.846  0.2622  0.1283 -0.2411
13828W        W29962   7.030   8.347  13.601 -0.1230  0.1296 -0.1201
13829W        W29963   6.071  10.988   1.422  0.5101 -0.0009 -0.2659
13830W        W29964  17.694   8.609   0.103  0.2273  0.0090 -0.1443
13831W        W29965   0.260  11.328   5.817  0.1493 -0.0961  0.1764
13832W        W29966   6.100   2.210   2.139 -0.1342 -0.0515  0.0660
13833W        W29967  14.256   2.369  12.134  0.0990  0.0679 -0.2567
13834W        W29968  16.166  14.659  14.576  0.2412  0.0732  0.0222
13835W        W29969  14.883  16.109  15.010 -0.1393  0.1348 -0.2821
13836W        W29970   9.048   5.538   3.738  0.2984 -0.2641 -0.4388
13837W        W29971  17.585  15.256   5.731 -0.0728 -0.0466 -0.0404
13838W        W29972   4.909  15.415  13.626  0.0894 -0.1400  0.2946
13839W        W29973  16.802   7.133  15.016  0.4627  0.1010 -0.1168
13840W        W29974   7.064  11.894   2.870  0.1070  0.1807  0.1537
13841W        W29975  17.181  13.889  13.839 -0.0148 -0.3012  0.0008
13842W        W29976   1.484  10.539   6.014  0.0406  0.0625 -0.2433
13843W        W29977   6.926  17.986   1.734  0.0723  0.0233  0.0755
13844W        W29978  10.879   2.812   0.977  0.0282  0.2569  0.0749
13845W        W29979  17.393   8.643   0.484  0.5458 -0.1340  0.0027
13846W        W29980  15.886   7.540   0.960 -0.2775  0.0118 -0.4110
13847W        W29981   4.123   1.736  16.533  0.1805 -0.2397 -0.0453
13848W        W29982  11.687  13.711  11.069 -0.3766  0.0904  0.0903
13849W        W29983   3.040   4.308  13.882 -0.1728 -0.1089 -0.4698
13850W        W29984   3.570   3.592   0.650  0.2199 -0.0849  0.3170
13851W        W29985   0.736  10.330   5.090 -0.0328 -0.2498 -0.2378
13852W        W29986  15.906   8.338  13.549  0.1302  0.2014  0.0880
13853W        W29987   3.464  10.034  11.125  0.1614 -0.2361  0.5160
13854W        W29988  17.852   1.437  12.916  0.0348  0.0756 -0.1107
13855W        W29989  17.349   9.634   0.122  0.0684 -0.2385  0.0277
13856W        W29990   9.897  14.040  13.822  0.2789  0.1879  0.0141
13857W        W29991  11.384  14.156   1.943 -0.1451  0.0175 -0.2266
13858W        W29992   5.772   8.944  13.275  0.1454 -0.0319  0.1543
13859W        W29993   3.842   0.487  15.048 -0.2585  0.3695  0.1360
13860W        W29994   7.313  11.312  15.135 -0.1027 -0.3204 -0.0446
13861W        W29995   8.392  16.267   4.588  0.3573 -0.1046  0.2119
13862W        W29996   6.125  12.036   0.871 -0.2039  0.0944 -0.0764
13863W        W29997   3.547  16.526   0.226 -0.1105 -0.0332 -0.0150
13864W        W29998  11.492   2.089   4.793  0.2387  0.2686 -0.0643
13865W        W29999  12.212   1.428   5.333  0.0361 -0.0949  0.5294
13866W        W30000  15.571   9.585  14.018  0.2668  0.0492  0.3129
13867W        W30001   8.566  17.743   0.172 -0.1776  0.1344  0.0538
13868W        W30002   3.972   3.286  16.003 -0.3105 -0.1486 -0.0436
13869W        W30003  17.450   6.412  11.723  0.2084 -0.1875  0.1841
13870W        W30004  13.850  17.452   3.146 -0.1124 -0.3104  0.1329
13871W        W30005  17.729   8.956  11.081  0.2341  0.0890  0.1123
13872W        W30006   8.019   6.452  11.848 -0.0141  0.0136 -0.0179
13873W        W30007   2.209  13.164  11.563 -0.1986  0.0212  0.0211
13874W        W30008  10.757   1.282   4.038 -0.4290 -0.0587 -0.1452
13875W        W30009  13.934   3.799   1.173  0.1598  0.1627 -0.0240
13876W        W30010   5.068  15.522   6.208 -0.2007  0.0869  0.1600
13877W        W30011   7.582   1.129  12.403 -0.0375 -0.5220 -0.0343
13878W        W30012   4.395  10.357  12.146 -0.0992  0.1213 -0.0479
13879W        W30013  15.801   7.153   2.602  0.0143 -0.2540  0.0588
13880W        W30014  13.828   9.023   2.847  0.0639 -0.0825  0.1903
13881W        W30015  10.077   8.755  15.816  0.0691 -0.1260  0.0426
13882W        W30016   8.876   0.604   0.244 -0.0342  0.3185 -0.0623
13883W        W30017  15.034  10.764  15.496 -0.0998 -0.0836  0.1212
13884W        W30018   1.917   1.062  15.511 -0.1071 -0.0863 -0.1514
13885W        W30019  10.409   1.728   2.786 -0.1970 -0.3397 -0.4162
13886W        W30020  17.845   0.190   2.944  0.1219 -0.0842 -0.0719
13887W        W30021   4.018  14.017  13.486 -0.0088  0.1937 -0.2880
13888W        W30022  15.592   3.664   0.184  0.0086 -0.0114 -0.1352
13889W        W30023   4.753   1.294  12.497 -0.1769  0.0623 -0.1457
13890W        W30024   0.856   3.071  13.271  0.0528  0.1334  0.3358
13891W        W30025  15.119  17.444   2.134  0.1193 -0.0047  0.1938
13892W        W30026  12.540   9.744  13.760 -0.0739  0.1957  0.1169
13893W        W30027   4.839   6.602  16.054  0.0717 -0.0279 -0.1319
13894W        W30028   2.985   4.858   5.189 -0.2154  0.0850  0.1632
13895W        W30029   2.573   6.485  15.582  0.3252 -0.0322 -0.1896
13896W        W30030  17.894   0.449  12.808 -0.0828 -0.0173  0.0486
13897W        W30031   2.153  14.469  13.975  0.2428 -0.0279  0.0520
13898W        W30032  12.576   3.589   1.377  0.0971  0.1031 -0.0422
13899W        W30033   5.937  14.937   0.246  0.0976  0.0587  0.2257
13900W        W30034   7.866   1.309  16.144 -0.1032 -0.2130 -0.0064
13901W        W30035  12.222  11.298  14.232  0.0312  0.2151 -0.3960
13902W        W30036  17.033   0.885   4.194  0.1196  0.0623 -0.0277
13903W        W30037  16.386   7.591  10.926  0.0224 -0.0926 -0.3113
13904W        W30038  17.044  13.279  12.743 -0.3926  0.1780  0.1143
13905W        W30039  12.548   8.446  14.946  0.0585 -0.2510  0.0594
13906W        W30040   9.642   5.795   3.360 -0.2349 -0.0603 -0.0973
13907W        W30041   9.980   2.186  15.500  0.1702  0.2133  0.1975
13908W        W30042  13.013   6.695  14.263  0.1223  0.2568 -0.2308
13909W        W30043   0.748   9.968  15.144  0.0310 -0.0290  0.3293
13910W        W30044  13.146   0.211  14.149  0.0947  0.0511 -0.1942
13911W        W30045   5.761   4.212  11.944  0.1600  0.2135  0.1391
13912W        W30046   9.814   1.687   2.174 -0.1027  0.3251  0.2235
13913W        W30047  14.806   7.691  16.201 -0.1226  0.0151  0.0812
13914W        W30048  11.105  14.528   0.704 -0.0193 -0.2602 -0.1392
13915W        W30049   3.763   4.901  15.382 -0.0907 -0.1484  0.1381
13916W        W30050   8.304   5.369  14.484 -0.0778 -0.1391  0.1318
13917W        W30051   4.349  13.033  12.074 -0.2405  0.1169  0.0230
13918W        W30052   2.117   2.709  12.821 -0.0087  0.3582 -0.0122
13919W        W30053   6.798  17.183  16.493 -0.2127 -0.0108 -0.1125
13920W        W30054   0.797  15.932   0.246  0.1916 -0.0808  0.0703
13921W        W30055  12.329   6.042  15.290 -0.0517  0.0901 -0.0716
13922W        W30056   8.188   9.226  13.853 -0.2282 -0.1970 -0.1210
13923W        W30057   1.486   9.603  10.907  0.2696  0.1518 -0.4926
13924W        W30058  10.924  17.495   1.093  0.3538  0.2243 -0.1518
13925W        W30059  13.585   4.521  13.963  0.1070 -0.1653  0.3448
13926W        W30060  18.088  15.436   3.254 -0.2225 -0.3222  0.0278
13927W        W30061   8.890   4.149   4.489  0.3459 -0.0635 -0.0284
13928W        W30062   2.989  12.857   3.265  0.1517 -0.3384  0.3934
13929W        W30063  15.232   0.766  11.645 -0.1302  0.1122 -0.0713
13930W        W30064  14.575   4.070  11.006  0.0702 -0.0901 -0.1655
13931W        W30065   5.717  17.611   1.353  0.1510  0.2662  0.0355
13932W        W30066  18.045   6.629  14.590  0.0256  0.3956  0.0182
13933W        W30067   9.658  17.505  15.690  0.2415  0.1456  0.0465
13934W        W30068  18.164   6.419  13.106  0.0398 -0.0921  0.2421
13935W        W30069   7.517   8.667   3.036 -0.1481  0.0055  0.0752
13936W        W30070   3.798  15.824  10.744 -0.0152 -0.0882  0.0408
13937W        W30071   3.978   6.836   4.617 -0.0674 -0.0421  0.2189
13938W        W30072  10.751   3.456  13.212 -0.0021  0.3380  0.0777
13939W        W30073   3.980   5.715   3.051  0.0669 -0.0457 -0.0201
13940W        W30074  17.437  16.272   4.983  0.2058 -0.0776  0.1229
13941W        W30075  17.589  13.742   5.960  0.2088  0.1324  0.0304
13942W        W30076  16.873  11.896   5.801  0.1098  0.0138 -0.1657
13943W        W30077  13.624   0.872   0.342  0.3062  0.1127  0.0554
13944W        W30078  15.806   5.425  13.517 -0.0200  0.1230 -0.0239
13945W        W30079  10.786  12.487  13.070  0.0860  0.4023 -0.4849
13946W        W30080   1.567   7.872  15.335 -0.0782 -0.2561 -0.2271
13947W        W30081   4.283   2.264   3.439  0.2856 -0.0723  0.0141
13948W        W30082   3.080  10.024  11.452  0.0231  0.1544 -0.1019
13949W        W30083  14.686  14.457  15.193  0.1959  0.0759  0.1358
13950W        W30084  11.244   8.708   3.911 -0.0433 -0.0508 -0.0856
13951W        W30085  16.792   3.080   0.990 -0.1672 -0.2366 -0.2230
13952W        W30086   8.273  18.105  16.033 -0.2503  0.0620 -0.1881
13953W        W30087   6.979   6.887  15.362 -0.0288  0.2005  0.4124
13954W        W30088   2.217  15.213  12.980 -0.2952  0.0856 -0.1597
13955W        W30089  15.942   7.392  14.543 -0.1332  0.0146 -0.0813
13956W        W30090   8.752   4.987   2.569 -0.1525 -0.0688 -0.1173
13957W        W30091   6.988  10.655   3.696  0.3950  0.0370  0.0965
13958W        W30092   8.637  15.566  14.991 -0.0172 -0.2265  0.1105
13959W        W30093   2.371  17.779   4.109 -0.0843  0.0020 -0.0057
13960W        W30094  17.824   8.570   0.742  0.1391 -0.0532  0.2550
13961W        W30095   4.640   4.788  11.997 -0.1001  0.1550  0.0098
13962W        W30096   1.845  15.842   4.601 -0.1246  0.3629  0.1638
13963W        W30097   2.848   9.628  15.871 -0.1747 -0.1623  0.0396
13964W        W30098   0.571  13.755  15.423  0.0815  0.1015 -0.0428
13965W        W30099  15.179  13.199  13.614  0.0648 -0.0935 -0.0332
13966W        W30100   7.292   1.294   1.964 -0.2056  0.0035  0.0056
13967W        W30101   1.249  12.424   2.104 -0.1192  0.3272  0.2055
13968W        W30102   5.231   4.247   2.047 -0.0351  0.0138 -0.0985
13969W        W30103  12.235  14.841  12.291  0.1414  0.2324  0.0464
13970W        W30104   7.428  13.839   4.767 -0.0534  0.0138  0.3054
13971W        W30105   5.449  14.326  14.426  0.3718 -0.1600  0.1738
13972W        W30106  17.388   3.588   2.066 -0.0794 -0.1060  0.0992
13973W        W30107   5.830   9.155   3.206 -0.0558  0.1659  0.2028
13974W        W30108  14.677  12.947   2.733 -0.2921  0.2833  0.1818
13975W        W30109   7.097   2.211   3.077 -0.1683  0.4178  0.0272
13976W        W30110  16.789  11.385   1.289 -0.1425  0.2516  0.0130
13977W        W30111  10.368   4.259   0.788  0.1161 -0.2117  0.0622
13978W        W30112  14.583   4.093  14.379 -0.1922 -0.2053  0.1497
13979W        W30113   1.871   8.363  15.286 -0.0884  0.2579 -0.0293
13980W        W30114   0.343  16.241  15.204 -0.1986  0.0825 -0.0012
13981W        W30115   8.469   3.618   0.921  0.3971  0.1121  0.0203
13982W        W30116  12.159  13.682  12.744 -0.0922  0.0122 -0.1599
13983W        W30117   1.695  16.553  12.105 -0.4443  0.1079 -0.2207
13984W        W30118   1.519   1.406  15.382  0.1262 -0.1500 -0.1356
13985W        W30119   1.291  13.289  12.929  0.1130  0.1363 -0.2308
13986W        W30120   0.837  15.241  11.625 -0.1141 -0.0256  0.2165
13987W        W30121   7.655  15.658  14.247  0.0396 -0.0409 -0.0187
13988W        W30122   8.774   3.467  11.563  0.0879  0.2598 -0.0831
13989W        W30123   7.592   9.068   3.514 -0.2045  0.1836  0.1742
13990W        W30124  12.637  11.813   4.325  0.1460 -0.0308  0.2298
13991W        W30125  15.352   2.254   2.627 -0.3353 -0.0464  0.3222
13992W        W30126  10.431   1.338  15.567  0.2889  0.0294  0.2006
13993W        W30127   6.566  17.386  13.214 -0.4226  0.0459 -0.0132
13994W        W30128  12.982  16.962  13.815  0.3674 -0.2780  0.2430
13995W        W30129   1.842  12.917  14.474 -0.3595 -0.0148  0.1428
13996W        W30130  18.039   0.405   1.817 -0.1887  0.0285 -0.0410
13997W        W30131   6.218  11.095  11.319  0.0084 -0.3091 -0.1344
13998W        W30132  15.399   5.426   0.038 -0.1248 -0.0472  0.2290
13999W        W30133  17.860  17.425   1.761 -0.1553  0.0750 -0.1030
14000W        W30134   5.661   6.898  15.392 -0.0124  0.2245 -0.1801
14001W        W30135   4.055   2.043   4.476  0.2144  0.1016 -0.1856
14002W        W30136  17.601   7.275  13.171 -0.3459 -0.1492 -0.2436
14003W        W30137   9.732  16.785  16.321  0.1063 -0.4236 -0.2146
14004W        W30138   6.167  15.363   3.220  0.0224 -0.0221  0.2351
14005W        W30139  13.344  11.233   0.723  0.0619 -0.1614  0.0043
14006W        W30140   7.969   1.116   2.946  0.1623  0.0935 -0.0379
14007W        W30141  18.068   5.307  15.599 -0.0885  0.1216 -0.1265
14008W        W30142   8.750   2.214   0.431  0.0647  0.1811 -0.1729
14009W        W30143  14.753   1.930   0.477 -0.2340  0.0386  0.0978
14010W        W30144  11.427  15.942  13.977  0.2130  0.3839  0.3272
14011W        W30145  12.070  11.228  12.661 -0.2228  0.0547  0.1344
14012W        W30146  10.896   3.186   1.344 -0.0188 -0.0774 -0.1202
14013W        W30147  13.484   3.148   1.699  0.6385  0.2882 -0.2369
14014W        W30148   7.633  12.032   5.126 -0.2073  0.1029  0.2448
14015W        W30149   2.343  12.625   0.531  0.1693  0.0826  0.0130
14016W        W30150   5.997   3.224  12.007 -0.1600 -0.4911 -0.1014
14017W        W30151  11.366  11.172   3.906 -0.1592  0.0548 -0.3715
14018W        W30152  16.799  13.963  12.186  0.3526 -0.3175  0.0172
14019W        W30153  14.577   0.632   2.052  0.1395  0.0709  0.0698
14020W        W30154  11.519  13.683   3.412  0.0321  0.2001 -0.0636
14021W        W30155   7.377   7.794   5.001 -0.1423 -0.0681 -0.3863
14022W        W30156   4.257  12.040  12.992 -0.0298 -0.3952 -0.0289
14023W        W30157  13.382   5.957   2.849  0.2294  0.1058 -0.0373
14024W        W30158   0.798  10.975   4.501  0.0739 -0.0916 -0.0937
14025W        W30159  16.168   1.797   5.586  0.3978 -0.1434  0.0544
14026W        W30160   8.324   2.129   3.074  0.3132 -0.1274  0.1760
14027W        W30161   2.179   7.359  15.321 -0.1112  0.0437 -0.2113
14028W        W30162   6.033   0.855   1.383  0.1111  0.1272 -0.0016
14029W        W30163  15.131   3.803  14.221  0.2896  0.4346 -0.1087
14030W        W30164  15.188   5.312   1.164  0.0196 -0.1046 -0.3785
14031W        W30165  15.163   4.084  14.798  0.0399  0.1658 -0.0284
14032W        W30166   4.385   8.595   1.893 -0.0065  0.3841  0.2699
14033W        W30167   8.907   1.802   5.348  0.1535 -0.0721 -0.1956
14034W        W30168   4.954   7.592  15.134  0.2417  0.0812  0.0968
14035W        W30169   5.944   7.476  15.564  0.1070  0.2747  0.0769
14036W        W30170   6.721   3.820   3.700  0.1798  0.0170  0.3897
14037W        W30171   8.296   6.553   0.492  0.3577 -0.0652  0.0070
14038W        W30172  13.573   4.044   2.813 -0.0656 -0.3975  0.2388
14039W        W30173   7.374   2.830   5.186 -0.2147  0.0574  0.0604
14040W        W30174  14.978   9.008   0.983 -0.0585 -0.1668  0.4249
14041W        W30175   6.430  14.195  14.071 -0.1486 -0.0038  0.0087
14042W        W30176   8.438   3.318  12.876 -0.2583 -0.0596 -0.0685
14043W        W30177   0.096  10.165  15.762 -0.0924 -0.2365  0.0264
14044W        W30178  12.674   7.256   5.060  0.2322  0.0273 -0.3130
14045W        W30179  16.358  13.392   4.190 -0.0232 -0.1205  0.1746
14046W        W30180  15.799   8.198   4.751  0.0108 -0.3133  0.0943
14047W        W30181   0.532  16.224   3.683  0.0251 -0.0241  0.3546
14048W        W30182   6.692  10.852   3.259  0.3181  0.0464  0.0918
14049W        W30183   0.022  11.053  14.448  0.0793 -0.0344 -0.2431
14050W        W30184   0.658  17.821   0.856 -0.1125 -0.2100 -0.2416
14051W        W30185   3.058  15.787   4.037 -0.3506 -0.0721  0.0015
14052W        W30186  13.551   7.618   4.575 -0.0488  0.1431 -0.1162
14053W        W30187   2.823  13.059  12.178 -0.1286  0.1477 -0.0964
14054W        W30188  10.513  12.973  14.693  0.0913  0.3670  0.1011
14055W        W30189   9.201  11.944   4.205 -0.0535 -0.1375 -0.0154
14056W        W30190  15.851   0.872   2.190  0.0505 -0.1843 -0.2819
14057W        W30191   5.219   1.458   5.211  0.0054  0.0505 -0.0305
14058W        W30192   1.357  10.700  12.713 -0.0684  0.0675  0.1440
14059W        W30193   7.797   9.535  12.438 -0.3167 -0.0578  0.5495
14060W        W30194   3.615  15.426  12.883 -0.1100  0.0580 -0.2594
14061W        W30195  13.785   0.039   1.904 -0.2480 -0.2617  0.2094
14062W        W30196   8.815  10.171   4.838 -0.4301 -0.3118 -0.0658
14063W        W30197  12.004   4.223   0.609 -0.2394  0.0010 -0.0233
14064W        W30198   6.408   7.411   0.396 -0.0494 -0.0377  0.0194
14065W        W30199   1.900   9.755  11.116 -0.0782  0.0520  0.2442
14066W        W30200  15.418  11.286   1.586 -0.1403  0.0713 -0.0789
14067W        W30201   7.500  11.883   2.260 -0.0562 -0.0477  0.2040
14068W        W30202   8.768  16.201   4.117 -0.4432 -0.0233  0.2686
14069W        W30203  14.442   7.946  13.771  0.5059  0.1014  0.1043
14070W        W30204  12.094   2.633   4.189  0.2292 -0.1007  0.0005
14071W        W30205   9.120  10.039  16.004 -0.1032 -0.1819 -0.1714
14072W        W30206   5.307   8.016   3.597  0.1979  0.1249 -0.1385
14073W        W30207   6.457  10.957  13.523  0.0841 -0.2655  0.0276
14074W        W30208  17.079  17.716  15.512 -0.2034  0.0691 -0.2968
14075W        W30209   7.011   1.414   3.036  0.1010 -0.2344  0.1820
14076W        W30210  10.866   9.838   0.780  0.0157 -0.1151 -0.0358
14077W        W30211  12.310   1.864  15.844 -0.0546 -0.1290 -0.0244
14078W        W30212  13.845   4.952  13.351 -0.0273  0.0313  0.1124
14079W        W30213   6.837   9.229   4.309 -0.0138 -0.1450 -0.0560
14080W        W30214  11.679  13.213  15.776 -0.2227 -0.3369 -0.2026
14081W        W30215   5.269   3.738  15.447 -0.0100 -0.0651 -0.1080
14082W        W30216  14.389   9.032   4.951 -0.0308 -0.2264  0.0077
14083W        W30217  14.606   5.265  12.496  0.2886  0.0324  0.2107
14084W        W30218  10.572   0.960   1.622 -0.0142  0.1164 -0.0564
14085W        W30219   5.887   0.079   4.183 -0.1246  0.0078 -0.0811
14086W        W30220   1.334   0.812  16.301 -0.1381  0.2130  0.0618
14087W        W30221   4.636  12.611  11.712 -0.1687  0.0415  0.1487
14088W        W30222  15.984  11.491   3.437  0.2426  0.0884  0.0296
14089W        W30223  11.083   1.937   1.968  0.2168  0.0385  0.1122
14090W        W30224  15.779  16.692   5.499 -0.1598 -0.1232 -0.0516
14091W        W30225  15.382  16.463  16.338  0.3028  0.3326 -0.0374
14092W        W30226  15.062  11.074  13.369  0.0716  0.0327 -0.3264
14093W        W30227  11.593  10.286  16.238  0.3107 -0.1144  0.0544
14094W        W30228  15.503   0.357  13.473 -0.3666  0.0491  0.0930
14095W        W30229  11.607   4.962  13.813  0.0325 -0.0088  0.1504
14096W        W30230  13.949   3.254   5.071 -0.4512  0.1137 -0.5234
14097W        W30231  14.129   5.045  15.901  0.0480  0.2220  0.1344
14098W        W30232   9.906   1.755  12.020 -0.2454  0.2091 -0.1144
14099W        W30233  15.477  15.087  12.457 -0.0802  0.2155  0.1274
14100W        W30234   3.926  12.678   2.919  0.2652 -0.0156 -0.1123
14101W        W30235   6.945   0.613  13.252 -0.0720  0.1494  0.3127
14102W        W30236   4.578   1.457   1.997  0.1287  0.2494 -0.0256
14103W        W30237  14.171  13.144  16.079  0.0512 -0.0970 -0.5899
14104W        W30238  16.361  15.507  12.539  0.4211  0.4341 -0.0591
14105W        W30239   5.921   4.313  15.023  0.2240 -0.0136  0.1269
14106W        W30240   8.994   9.777   4.526  0.0286 -0.0479  0.0972
14107W        W30241   7.714  15.270   1.390 -0.1965 -0.4132 -0.1120
14108W        W30242   6.983   8.970  12.639  0.1369 -0.2847 -0.0515
14109W        W30243   1.033  18.106   5.790 -0.1555  0.0596  0.3767
14110W        W30244   6.293   9.052  11.841 -0.4815 -0.0652 -0.1190
14111W        W30245   2.748  12.152  13.478  0.1818 -0.0508 -0.0697
14112W        W30246   8.883   4.280  12.516  0.1772 -0.1018 -0.3429
14113W        W30247  12.012   2.216  15.050 -0.0883 -0.0984  0.0404
14114W        W30248   6.036   7.997  10.749 -0.0175  0.1002 -0.1019
14115W        W30249   7.721   0.845   4.217 -0.2139 -0.2405  0.0562
14116W        W30250   0.316   9.500   4.111  0.1891 -0.0133 -0.0445
14117W        W30251   9.957   7.695  15.700  0.0789 -0.2207  0.0606
14118W        W30252   9.696  14.095   4.195 -0.0373  0.0670  0.4503
14119W        W30253  13.953  12.605   0.926 -0.0993  0.2646  0.2212
14120W        W30254  13.341  11.690   1.038  0.0362  0.2263 -0.0153
14121W        W30255   8.509  15.016  14.447  0.4263 -0.4170 -0.0277
14122W        W30256  10.228  11.519  12.728 -0.0198 -0.0012 -0.0543
14123W        W30257  17.305  14.836   0.398  0.0058  0.0482  0.1102
14124W        W30258   6.518   0.835   3.136 -0.1298 -0.0251  0.0418
14125W        W30259   0.052   8.623   4.062  0.1104 -0.1014 -0.1449
14126W        W30260  16.360   0.308  11.935 -0.0048  0.1539  0.1473
14127W        W30261  15.289   3.654   5.199 -0.1099  0.0240  0.2004
14128W        W30262  13.167   3.125  13.945 -0.0748  0.0766 -0.0532
14129W        W30263   6.450  17.216  15.970 -0.1189  0.1532 -0.0020
14130W        W30264   5.831   1.517   2.645 -0.2264 -0.0067 -0.0696
14131W        W30265   3.470  12.031   0.093  0.1315 -0.1344 -0.0815
14132W        W30266  11.062   9.225   1.601  0.1198 -0.2999 -0.2925
14133W        W30267   4.583  17.968   2.385 -0.1199 -0.0254  0.2040
14134W        W30268  15.629   1.826   1.584  0.1438  0.0277 -0.2341
14135W        W30269  15.003   7.416  13.104 -0.2684 -0.1219  0.0028
14136W        W30270   5.216  15.279   0.785  0.0967 -0.1084  0.2006
14137W        W30271   7.232   6.537   1.405  0.1437  0.1319 -0.0241
14138W        W30272   5.953  10.088  13.331 -0.0414 -0.0731 -0.1048
14139W        W30273   5.592   5.875   0.769 -0.1342 -0.0969 -0.0234
14140W        W30274  18.082   0.732   1.268 -0.0080 -0.3788  0.1418
14141W        W30275   5.973   7.359   1.735  0.0204 -0.2052 -0.2234
14142W        W30276   6.239  11.619   0.143 -0.1940  0.0713  0.0807
14143W        W30277   1.471   9.964  14.384 -0.1425 -0.1168 -0.2207
14144W        W30278   1.579   6.863  11.844 -0.3836  0.1828  0.1813
14145W        W30279   6.143   7.237   4.470  0.0459  0.0841  0.2087
14146W        W30280   6.517  11.482  11.176 -0.1660 -0.3300  0.1383
14147W        W30281  16.539   9.809  15.800  0.2299 -0.4233  0.1590
14148W        W30282   1.737   1.496   3.202 -0.1688  0.2525  0.2669
14149W        W30283   5.993  10.145  14.956 -0.1131 -0.2384  0.2354
14150W        W30284   5.445   6.464   3.515 -0.0494  0.0501 -0.0024
14151W        W30285  15.307  17.582   4.220  0.2654 -0.1409  0.3699
14152W        W30286  16.514   1.555  12.436  0.2557 -0.4075  0.0476
14153W        W30287  10.632  12.437  11.711  0.0402 -0.1075  0.2678
14154W        W30288  12.535  16.458  13.224 -0.2028 -0.0442 -0.1113
14155W        W30289   2.586  13.006   0.294  0.0060 -0.2686  0.1281
14156W        W30290   3.961   7.856  13.804  0.0371  0.0757  0.1917
14157W        W30291  17.726   7.508  12.746  0.2865  0.1226  0.0450
14158W        W30292   9.168   4.357  14.435 -0.4109  0.0733  0.2349
14159W        W30293  17.834  17.862  13.727  0.0433  0.0368  0.0434
14160W        W30294  11.022  11.358   5.193 -0.2116 -0.1942  0.2055
14161W        W30295  16.602   2.078  12.137  0.1640  0.0123 -0.0722
14162W        W30296   7.559   1.150  13.521  0.2518  0.0400  0.0311
14163W        W30297   1.962  11.532   4.816 -0.1234  0.5849 -0.0132
14164W        W30298   3.018   1.843  14.694  0.0403 -0.0501  0.3305
14165W        W30299  11.484  18.119   0.810  0.1390 -0.1105  0.1037
14166W        W30300   4.670   2.850   0.082 -0.0636  0.0413 -0.1121
14167W        W30301  15.854  16.163   0.124  0.0250 -0.0371  0.1889
14168W        W30302   8.441  11.497   5.146 -0.1815 -0.1104 -0.1110
14169W        W30303   9.215  17.003  13.107  0.0234 -0.1447  0.0392
14170W        W30304  15.317  11.714  12.443  0.0347 -0.2728 -0.0124
14171W        W30305  16.021   2.411   3.438 -0.3366 -0.0745 -0.1575
14172W        W30306  14.353  13.375   5.049 -0.1073  0.1015  0.0791
14173W        W30307  10.612   0.214  13.893  0.1795 -0.0364 -0.0561
14174W        W30308   1.107   1.281   1.613 -0.3849  0.1889 -0.1093
14175W        W30309   1.267   3.734   3.451  0.0737  0.0038 -0.2321
14176W        W30310   5.721   5.819  14.601  0.0845  0.0507  0.1361
14177W        W30311   7.686   3.027  16.246  0.0407 -0.0052  0.3966
14178W        W30312  14.244  13.488  14.634 -0.0892  0.2384 -0.1556
14179W        W30313  14.970  14.454  13.128 -0.2221  0.0349  0.2598
14180W        W30314  17.545   7.118   0.241 -0.0795 -0.3050  0.1722
14181W        W30315  16.231   7.618  15.826  0.0916  0.0043 -0.0064
14182W        W30316   9.265  17.373  13.470 -0.1763  0.0751 -0.3875
14183W        W30317  14.213  15.611   4.229  0.0711  0.0827 -0.0255
14184W        W30318  14.827   0.094  14.174  0.0680 -0.0794  0.3127
14185W        W30319   1.184  15.160  13.343 -0.2245 -0.1003  0.0386
14186W        W30320   7.034   5.438  14.946 -0.2976  0.3283 -0.0187
14187W        W30321  16.979  12.475   1.123  0.2559 -0.0986  0.0364
14188W        W30322  16.445   5.377   2.793 -0.1671  0.0600  0.1911
14189W        W30323   1.086   8.401   4.191 -0.2799 -0.1369 -0.0015
14190W        W30324   3.123   6.999   0.911  0.0792 -0.1196  0.2038
14191W        W30325   2.777   7.564   2.968  0.2873  0.1830 -0.0819
14192W        W30326  12.710  10.709   0.367 -0.4635 -0.0412  0.2843
14193W        W30327   3.658   0.853  11.449  0.0144 -0.0929 -0.2660
14194W        W30328   6.031   5.759   5.201 -0.0374  0.2325 -0.2035
14195W        W30329  12.594  15.772  14.721 -0.0956 -0.1633 -0.1608
14196W        W30330  13.352   1.423  12.704  0.0213 -0.1650 -0.0843
14197W        W30331  13.177   8.253  12.840 -0.2458  0.0083  0.1393
14198W        W30332  10.313   3.681   3.584  0.1968  0.0118  0.0709
14199W        W30333   4.844   8.332   4.538  0.1126 -0.1790 -0.0381
14200W        W30334   7.792   2.649   2.517  0.2375  0.0696  0.1256
14201W        W30335   9.295   3.838  12.475  0.1197 -0.0318 -0.2485
14202W        W30336   6.744   0.273   6.117 -0.0437 -0.1501 -0.2495
14203W        W30337   8.821  12.424   2.163  0.1500  0.2458  0.0310
14204W        W30338  16.878  15.726   1.694 -0.2093 -0.2299  0.2187
14205W        W30339   4.280  14.760  12.840 -0.0074  0.0382  0.1431
14206W        W30340   6.174   6.008   3.407 -0.0629 -0.1284 -0.3813
14207W        W30341   8.066  16.765   5.574  0.0565  0.3787 -0.0411
14208W        W30342   8.369   0.270   0.377  0.4445  0.1986 -0.2503
14209W        W30343  15.916  17.104  12.444 -0.0492  0.0849  0.1717
14210W        W30344   4.914  12.782  12.929  0.2400  0.4722 -0.0121
14211W        W30345   7.253  17.544   6.140 -0.1240  0.4929 -0.1227
14212W        W30346   7.421  15.619   4.690  0.3673  0.4982 -0.2147
14213W        W30347   5.696  14.035   5.097 -0.0128  0.2291  0.0304
14214W        W30348  15.509  13.365  15.622 -0.1957  0.0154  0.0460
14215W        W30349  17.859   0.203  15.033 -0.0686  0.0023  0.1620
14216W        W30350   5.994  13.947  14.907 -0.1091  0.1304 -0.2577
14217W        W30351  15.084  17.948   0.260  0.2268 -0.1149  0.2600
14218W        W30352  17.583  15.848  14.695 -0.1273  0.0891 -0.2552
14219W        W30353   9.229  16.406  14.369  0.2504  0.2259 -0.1177
14220W        W30354   7.559  11.362   5.144 -0.1371 -0.2300 -0.1160
14221W        W30355   0.100  17.066  14.837  0.0539 -0.1299  0.1447
14222W        W30356  12.795  11.894   2.143  0.1443  0.0133  0.0286
14223W        W30357   7.810  13.173   4.556 -0.1374  0.1377 -0.0257
14224W        W30358  12.651   4.218   4.692 -0.2191  0.1812 -0.0377
14225W        W30359  17.814   5.002  11.666  0.0214 -0.0632 -0.0781
14226W        W30360   7.979   8.526   0.927  0.3408  0.2370  0.1523
14227W        W30361   9.547   7.052   2.893 -0.1886 -0.1184 -0.4478
14228W        W30362   0.244  11.457  13.253 -0.0423  0.0414 -0.0817
14229W        W30363   2.319  13.508  15.468 -0.1805  0.0542 -0.0278
14230W        W30364  10.646   1.337   1.968 -0.1415 -0.2743 -0.0216
14231W        W30365  12.891   1.094  14.006 -0.3191 -0.2216 -0.0380
14232W        W30366   6.416   6.510   3.262  0.0252  0.2073 -0.0670
14233W        W30367  17.363  11.845   2.903 -0.0898 -0.2039  0.1200
14234W        W30368  17.209   6.438  14.303  0.4072  0.2474  0.0723
14235W        W30369   6.404  17.193   3.232 -0.0844  0.3237  0.2403
14236W        W30370   2.725   6.346   0.908 -0.1492  0.1666  0.1008
14237W        W30371  10.339   0.334  15.581  0.0857 -0.3078 -0.1592
14238W        W30372   6.322   8.572  14.532 -0.0396  0.0020  0.2655
14239W        W30373   4.066  14.129   2.776  0.0252  0.0578 -0.3090
14240W        W30374   8.448  14.796   2.585 -0.1307  0.0466 -0.2776
14241W        W30375   8.867  16.492   4.521  0.0656 -0.1531  0.0522
14242W        W30376   2.098  16.316  12.209 -0.0171 -0.1141 -0.1416
14243W        W30377   4.876  11.046  12.577  0.0474 -0.7032  0.1398
14244W        W30378  12.637   4.879  11.844  0.0127  0.2367  0.0576
14245W        W30379   3.516   2.559   3.415 -0.2146 -0.1583  0.1171
14246W        W30380   0.529   6.926  11.180  0.0658  0.1361  0.0861
14247W        W30381   5.221  12.588  15.143 -0.0251  0.3930  0.1845
14248W        W30382   0.045  10.943   2.381  0.1265 -0.0824 -0.0233
14249W        W30383  16.838   2.037  13.702 -0.0324 -0.0981  0.0318
14250W        W30384   9.299  14.849   3.096  0.1103 -0.5039  0.2644
14251W        W30385   1.066   1.438   5.313  0.1898 -0.3785  0.0324
14252W        W30386   7.653  10.840  14.721  0.0648  0.1685 -0.0619
14253W        W30387   3.867   6.661   0.740 -0.1089 -0.2517  0.0487
14254W        W30388  13.012   0.125  13.675  0.0740  0.0040 -0.0181
14255W        W30389   1.224   2.147  13.831 -0.0118  0.2671 -0.3150
14256W        W30390  14.560   7.508   2.262  0.4398 -0.3092 -0.0937
14257W        W30391   5.201   4.981  15.433 -0.0661  0.2107  0.1305
14258W        W30392   8.701  12.857  11.383 -0.1859  0.4087 -0.3160
14259W        W30393  10.428   5.556   4.214  0.3584 -0.0086 -0.0488
14260W        W30394  10.418  15.420   3.805  0.0196  0.0630  0.1607
14261W        W30395  11.664   2.557  13.646 -0.2031 -0.6328 -0.4791
14262W        W30396   8.448  16.629   4.220 -0.1106 -0.0441 -0.0174
14263W        W30397   0.366   1.089   5.422  0.0094  0.3609  0.0485
14264W        W30398  13.562  12.616  12.048  0.0657 -0.1197 -0.0392
14265W        W30399   4.995  11.041  14.623 -0.0056 -0.3282 -0.1280
14266W        W30400  13.931   5.067   4.822  0.0310 -0.0528  0.0767
14267W        W30401  12.880   7.331   3.321  0.0700  0.1724  0.1490
14268W        W30402   3.543   6.550  11.345 -0.0327  0.1150  0.0090
14269W        W30403   9.256  17.924   2.009 -0.0701  0.0118  0.2357
14270W        W30404   7.626   7.619  15.196  0.2013 -0.0920 -0.0581
14271W        W30405  15.093   0.431  15.583 -0.2662  0.1834 -0.0719
14272W        W30406  15.570  13.790  12.380 -0.1768  0.0110 -0.0959
14273W        W30407   6.814   4.294   0.651  0.1836 -0.4811  0.2898
14274W        W30408  16.719   6.824   2.680  0.0910  0.2135 -0.1000
14275W        W30409  16.187  16.350   3.697  0.1620 -0.1240  0.0458
14276W        W30410   7.182   0.134   5.283 -0.0470  0.1920 -0.1771
14277W        W30411   3.952  14.534   3.676 -0.0036  0.2739 -0.4265
14278W        W30412  15.056  12.713  16.319 -0.0832 -0.0614  0.0240
14279W        W30413   2.960  18.083   2.784  0.0181  0.3306  0.0241
14280W        W30414   4.611  15.354   1.455  0.1988  0.1583  0.0258
14281W        W30415   5.008   5.184   3.379 -0.1016 -0.1487  0.2848
14282W        W30416  13.653   6.433   2.647 -0.0942 -0.1603  0.3554
14283W        W30417   5.964   5.650   6.213  0.2454  0.0210  0.3242
14284W        W30418   0.521   1.585  12.813 -0.3875  0.2066 -0.2669
14285W        W30419   4.851  10.974  13.330 -0.2039 -0.2155 -0.0244
14286W        W30420   7.910   8.692  14.548 -0.0318  0.0027  0.0927
14287W        W30421   4.174   3.523   2.645  0.0084 -0.1497  0.0715
14288W        W30422  14.823   3.879   3.285  0.0909  0.1170  0.2780
14289W        W30423  12.403   2.265  10.861  0.1614 -0.0967 -0.0407
14290W        W30424   7.425  12.266  12.541 -0.0273  0.0459  0.1040
14291W        W30425  10.607   2.825   4.197  0.2054 -0.1341 -0.0627
14292W        W30426  10.216  15.556   1.964 -0.2502 -0.1169  0.2951
14293W        W30427   8.468   0.861   3.725  0.0154 -0.1978 -0.2734
14294W        W30428   8.494   7.733  11.449  0.3040 -0.1116 -0.0339
14295W        W30429   4.719   6.306   0.516  0.1804 -0.2416  0.2401
14296W        W30430   0.394  17.561  14.611  0.3125  0.2749 -0.0727
14297W        W30431  17.265  15.528   2.427 -0.1736 -0.0260 -0.0101
14298W        W30432   1.624   9.018   0.361 -0.0686 -0.2663 -0.4392
14299W        W30433   7.828  15.477   5.454 -0.2406 -0.0073 -0.1547
14300W        W30434  12.669  14.548   5.629 -0.0252 -0.2564  0.1190
14301W        W30435   9.249  16.499  13.055  0.1772  0.3022 -0.3731
14302W        W30436   0.489  17.273  11.906  0.1203  0.1996 -0.2406
14303W        W30437  12.346  17.914   0.337  0.2066  0.1026 -0.2511
14304W        W30438  14.902   3.592   2.047  0.2093  0.0687 -0.0029
14305W        W30439   7.484   8.641  13.000  0.1109  0.1690 -0.2322
14306W        W30440  11.637  16.973   2.026 -0.2944  0.1282  0.0875
14307W        W30441   4.289  14.970  13.366  0.1307 -0.0265 -0.1009
14308W        W30442   7.348  11.397  13.635 -0.0561  0.1550 -0.2291
14309W        W30443   4.978   7.644  14.097  0.2006 -0.1623 -0.0228
14310W        W30444  12.550  17.118  13.067 -0.0394 -0.2187 -0.1521
14311W        W30445  15.626   8.041  15.146 -0.0086  0.0982 -0.3769
14312W        W30446   0.931  16.116  15.441 -0.0023 -0.0399  0.2045
14313W        W30447   0.752  15.319  13.178 -0.0840  0.0476 -0.0075
14314W        W30448   6.552   7.742  12.490 -0.0860 -0.0660 -0.2378
14315W        W30449   9.627  14.024  11.466 -0.1759  0.2967 -0.0382
14316W        W30450  11.342  10.106   2.304  0.0413  0.2032 -0.1114
14317W        W30451   8.982   1.244  15.538  0.0868 -0.0930 -0.0159
14318W        W30452  13.229   8.187   2.119  0.0237 -0.1029  0.0828
14319W        W30453  10.968  17.020  14.053 -0.1252  0.1383 -0.0928
14320W        W30454   1.754   7.323  16.440  0.0236  0.2317 -0.1648
14321W        W30455  17.321   1.077  12.949 -0.0701 -0.4153  0.3864
14322W        W30456  16.992   1.508   3.507  0.0887 -0.0590  0.0132
14323W        W30457  13.839   5.838  16.097  0.1770 -0.2177 -0.2536
14324W        W30458  16.991   6.342  11.429  0.3101  0.1401 -0.2105
14325W        W30459   4.272   4.621   5.016 -0.2277  0.3076 -0.0741
14326W        W30460   6.117   2.753   0.286 -0.1327 -0.2835  0.2009
14327W        W30461   9.753  14.283  15.997 -0.0520  0.3352  0.0362
14328W        W30462   6.540   4.566   0.228 -0.0182 -0.0927 -0.3171
14329W        W30463  11.522  18.005   4.944  0.2462  0.0622 -0.0438
14330W        W30464  16.007   4.913   5.304  0.0980  0.1214 -0.0340
14331W        W30465  12.365  12.604   4.160  0.0038 -0.0461  0.1072
14332W        W30466   8.709  12.591   3.861 -0.2063  0.0688  0.0236
14333W        W30467  15.130  10.484   1.925  0.4077 -0.3243 -0.2327
14334W        W30468  15.309  12.887   5.490 -0.0745 -0.1604  0.1390
14335W        W30469   0.299  16.466  11.762  0.0400 -0.3833  0.0300
14336W        W30470  16.290  16.664  12.000 -0.2278 -0.4428  0.0001
14337W        W30471  15.321  15.107   2.593  0.1519 -0.0032 -0.1964
14338W        W30472  14.824  13.040   3.181  0.0228 -0.0896 -0.1335
14339W        W30473  13.628   2.927   0.569  0.4662  0.1672 -0.3100
14340W        W30474   8.031   4.196   2.389 -0.0796  0.1517 -0.0130
14341W        W30475   5.392   0.706  13.951  0.1228  0.0798  0.1759
14342W        W30476  15.477  11.097   0.113 -0.2095  0.0004  0.2688
14343W        W30477  11.560   5.647   0.610  0.0998  0.2545  0.0002
14344W        W30478   0.037   8.724   0.262  0.0084 -0.2248 -0.1899
14345W        W30479  10.834   4.192   5.218 -0.1691  0.2813  0.2194
14346W        W30480   5.194  16.752   2.222  0.1161  0.1270  0.0543
14347W        W30481   0.354   8.873  15.519 -0.1874  0.1289  0.0144
14348W        W30482   8.598  14.801  11.292 -0.0237 -0.0725  0.0032
14349W        W30483   8.290   4.920   2.950 -0.0210 -0.1252  0.0468
14350W        W30484   7.426  12.259   4.772 -0.3995  0.1021 -0.0391
14351W        W30485   4.685  16.747   3.590  0.0943 -0.0263 -0.0955
14352W        W30486   1.007   4.352  16.074 -0.1295 -0.0009  0.1323
14353W        W30487  13.219   2.620  15.639 -0.1305 -0.3525  0.1826
14354W        W30488  12.779   2.178  14.474 -0.3336  0.0048  0.1059
14355W        W30489  14.066  16.363   4.614  0.2553  0.3301 -0.3212
14356W        W30490  16.879  17.079   3.421  0.2883 -0.0606 -0.0222
14357W        W30491   3.566   6.734  13.033  0.3547 -0.1289  0.0070
14358W        W30492   9.122   3.315   4.852  0.1897 -0.1900  0.2701
14359W        W30493   3.467  11.767   5.772 -0.1082  0.1060  0.0418
14360W        W30494  12.896   3.145   0.067  0.2278 -0.0843  0.1853
14361W        W30495  10.545   5.185   0.566 -0.1521 -0.1396 -0.2096
14362W        W30496  12.942   0.623   5.194 -0.1090  0.0543  0.0106
14363W        W30497  16.637   3.824   3.338 -0.0364  0.0592  0.0015
14364W        W30498  13.955   9.196   1.716 -0.2268  0.2549 -0.1756
14365W        W30499   6.570   7.262  12.268 -0.1506  0.2311  0.1656
14366W        W30500  10.236  12.395  13.604  0.2683  0.0536 -0.2114
14367W        W30501   1.941  15.328   0.030  0.0666  0.1882 -0.0533
14368W        W30502   2.243   8.051   5.375 -0.1118  0.1725  0.1110
14369W        W30503  10.925   0.050   3.905 -0.0230  0.1396  0.0321
14370W        W30504  10.292   8.921   3.780 -0.0187 -0.2013  0.1858
14371W        W30505   5.623  14.731   4.474 -0.1954  0.3617 -0.3288
14372W        W30506  14.993  10.715   4.624  0.1548 -0.2435  0.1212
14373W        W30507  14.276  17.726   4.291 -0.1686 -0.4706  0.1040
14374W        W30508   7.948  12.512   0.934  0.1390  0.0970  0.0544
14375W        W30509   6.716   9.684   3.292  0.0646  0.1397  0.1198
14376W        W30510   6.732   6.482   4.318 -0.0393 -0.0942  0.0085
14377W        W30511  15.342  14.328  15.298  0.0724  0.2886  0.0246
14378W        W30512   8.789   8.924  11.050 -0.0227 -0.0131  0.0177
14379W        W30513   4.516  13.684   1.213  0.1296  0.0056 -0.1922
14380W        W30514  10.945   2.174  15.141  0.1026 -0.0186  0.2045
14381W        W30515  11.035   0.606   1.072  0.1062  0.4051  0.2527
14382W        W30516   2.143  12.456  13.650  0.0252 -0.0421  0.2192
14383W        W30517  17.877  13.311  12.206 -0.0935  0.0062 -0.0091
14384W        W30518   4.288  13.662  14.796 -0.3013  0.0040  0.1313
14385W        W30519   3.954   5.679  15.822 -0.1239 -0.0200  0.1030
14386W        W30520  15.590   9.338  12.982 -0.2746 -0.0614 -0.2468
14387W        W30521  17.683   0.990   4.009 -0.0812 -0.4087 -0.1014
14388W        W30522   9.034   0.830   1.237  0.1372 -0.2101  0.1556
14389W        W30523   3.834  13.874  12.996 -0.2454 -0.1353  0.1183
14390W        W30524   0.387  14.786   4.818  0.0641  0.2125  0.0507
14391W        W30525   8.583  13.545  12.188  0.2968  0.2905  0.1235
14392W        W30526   4.451   6.286  15.301 -0.0487  0.1615  0.2181
14393W        W30527   8.317   1.078  14.188 -0.1600 -0.0689 -0.0353
14394W        W30528   3.616  13.276   3.046  0.1684  0.0431 -0.2329
14395W        W30529   0.189   4.501   1.435 -0.1773 -0.0064  0.1309
14396W        W30530   8.995  15.607   1.109  0.2073 -0.0974  0.4547
14397W        W30531   1.361  14.031  15.777 -0.2536  0.0620 -0.1650
14398W        W30532  13.777  10.709  15.174 -0.5254  0.2136  0.0796
14399W        W30533  10.030  11.707   3.297  0.1148  0.0298  0.0093
14400W        W30534   9.263   0.864  12.754 -0.0647 -0.2728 -0.3569
14401W        W30535   1.975   8.025  15.656 -0.0930 -0.2973  0.2122
14402W        W30536   4.749   3.369   1.871 -0.0116 -0.0038  0.1650
14403W        W30537  15.199  17.504   3.369 -0.1805  0.0059 -0.2877
14404W        W30538   6.361   4.291   5.455  0.2035 -0.1933 -0.2579
14405W        W30539   6.619  11.990   3.698  0.0725  0.1027 -0.0675
14406W        W30540  14.705   3.845   2.725  0.1438 -0.0751  0.1423
14407W        W30541  10.530   2.277  12.760  0.1327  0.1889 -0.1367
14408W        W30542   2.379  12.818  12.462  0.0808  0.1899  0.1006
14409W        W30543   6.681  14.528  16.384 -0.3001 -0.0371 -0.1529
14410W        W30544  16.443   2.437   2.079  0.2121  0.0648  0.0604
14411W        W30545  10.064   5.439   5.302  0.0551  0.0807  0.2296
14412W        W30546  13.168  18.006   0.944  0.2644  0.0255 -0.1885
14413W        W30547   6.686  17.150   1.386  0.2020  0.1326  0.1007
14414W        W30548  17.568   4.239  15.686  0.1514  0.0223 -0.1091
14415W        W30549  15.126   7.559  11.636  0.0212  0.0411 -0.0351
14416W        W30550  13.237   2.655   0.314 -0.1190 -0.2297 -0.0769
14417W        W30551   6.454   4.390  13.988 -0.3024 -0.0004 -0.0374
14418W        W30552  11.870   1.010   1.352  0.1829 -0.2742 -0.1970
14419W        W30553   3.928   8.096  15.989  0.0998  0.1868 -0.0151
14420W        W30554   9.805   6.268   3.937  0.0603  0.2738 -0.1197
14421W        W30555   0.944   4.357  11.957  0.1791  0.1288 -0.0683
14422W        W30556  14.044  10.211  11.879 -0.1302 -0.0024 -0.0503
14423W        W30557  17.477  18.131   2.577 -0.2643  0.0869 -0.0504
14424W        W30558  16.628  17.224   5.902 -0.1565 -0.0051 -0.0345
14425W        W30559  10.544   6.337   2.396  0.2468 -0.0203 -0.0947
14426W        W30560   9.949   4.980   3.046  0.1864  0.1678  0.2564
14427W        W30561   4.730  11.817  14.014  0.1539  0.0400 -0.0339
14428W        W30562  11.755  14.489  16.031 -0.1380 -0.0072 -0.3342
14429W        W30563   8.400   4.352   0.714 -0.3016  0.1102  0.2173
14430W        W30564  15.199   4.274   3.905 -0.1211 -0.0326 -0.1416
14431W        W30565   1.214  10.863  16.052 -0.0935 -0.2037  0.2352
14432W        W30566   1.573   3.357   3.087  0.2755 -0.1382 -0.0599
14433W        W30567  11.594  12.525  15.660 -0.0204  0.1757  0.2919
14434W        W30568   9.229   0.240   2.607  0.0403 -0.3521  0.2332
14435W        W30569   2.975   6.434  11.446 -0.0597  0.0622  0.1770
14436W        W30570  16.330   5.571  15.563 -0.2303 -0.1346 -0.2083
14437W        W30571  17.534  11.098   3.983 -0.3390  0.0569  0.1308
14438W        W30572  14.731   7.221  14.321 -0.1913 -0.0073  0.0021
14439W        W30573   9.811  14.321   1.481 -0.4059  0.0601 -0.2301
14440W        W30574  12.073  16.278   5.649 -0.2191  0.2010  0.3828
14441W        W30575   0.692   1.525  14.691 -0.4977  0.0203  0.3900
14442W        W30576  14.762   9.049  15.360 -0.1639  0.1890 -0.2438
14443W        W30577   6.023  17.290  15.750 -0.1663  0.0234 -0.0234
14444W        W30578  12.617  14.561  11.604  0.0857  0.0689  0.1332
14445W        W30579  15.438   0.504   2.036  0.2361 -0.3484 -0.2644
14446W        W30580  10.249   8.167  11.866  0.0397  0.3903 -0.5494
14447W        W30581  14.714  15.640   4.492  0.1943  0.1560 -0.0882
14448W        W30582   8.211  16.522   1.788 -0.0259 -0.2653 -0.2712
14449W        W30583   9.986   2.649  14.655  0.0608  0.3028  0.0064
14450W        W30584  13.373   1.399  14.699  0.1505  0.0666  0.2109
14451W        W30585  11.233   0.601   5.725  0.2400 -0.0587  0.1090
14452W        W30586  17.701  12.487   4.005  0.0381 -0.0536  0.0979
14453W        W30587   8.480   7.026  16.056  0.0057  0.1107  0.0217
14454W        W30588  11.389   5.621   3.065 -0.0629 -0.2698  0.4528
14455W        W30589   6.036  17.522   5.209  0.0142  0.0904  0.0289
14456W        W30590  16.672  13.730   1.728 -0.0237 -0.3111  0.1929
14457W        W30591  16.070   6.574  13.614  0.2163  0.0955  0.0044
14458W        W30592   6.700   8.237  10.349  0.1893 -0.1736 -0.1454
14459W        W30593  16.895   7.315   0.921  0.1275 -0.0098 -0.0232
14460W        W30594  14.179  10.787  15.501 -0.1719  0.0703 -0.0751
14461W        W30595   6.876  10.446  14.755 -0.0460 -0.3236  0.1892
14462W        W30596   9.384  12.206  11.454 -0.0285  0.1942  0.1246
14463W        W30597  14.975  14.040   2.749 -0.2474 -0.0488  0.1696
14464W        W30598   8.416   6.817  15.187 -0.0013  0.1565 -0.0218
14465W        W30599   7.834   5.873  11.895 -0.0077  0.0619  0.2822
14466W        W30600  13.352  13.577  13.093 -0.1141  0.0797  0.0477
14467W        W30601   3.274  14.734   2.693  0.1007 -0.2788 -0.0420
14468W        W30602   1.788  15.435   1.875  0.1704 -0.0098 -0.0267
14469W        W30603  15.001   7.659  11.127 -0.1300 -0.3527  0.2242
14470W        W30604   4.834   6.396  12.349 -0.3704  0.1657 -0.1054
14471W        W30605  15.258   1.502  15.365  0.1940  0.0836 -0.1469
14472W        W30606   3.878  11.762   0.309 -0.0364 -0.3166 -0.1882
14473W        W30607  10.858  12.097   2.786 -0.0847 -0.1448 -0.0095
14474W        W30608   1.554   5.273  12.488 -0.0442  0.0916 -0.2150
14475W        W30609  16.528   7.510   0.694  0.0221 -0.0647  0.0339
14476W        W30610   7.881  16.418  11.875 -0.0093 -0.0529  0.0937
14477W        W30611  11.480  17.767  13.508  0.2972  0.3239 -0.0752
14478W        W30612  10.002  17.402   0.497 -0.2178 -0.1795  0.0337
14479W        W30613   4.883  13.312   5.017  0.0115  0.1368  0.1780
14480W        W30614   6.393  10.405  13.522 -0.0652  0.0898 -0.1143
14481W        W30615   8.906  10.054  13.153 -0.0384 -0.0978  0.1384
14482W        W30616   6.086  11.018  10.146  0.0675 -0.0159 -0.2910
14483W        W30617  12.306  13.209   1.174 -0.0054  0.1316  0.1196
14484W        W30618   5.467  11.827  12.368 -0.1397  0.0524 -0.0084
14485W        W30619  10.034   5.859  11.637 -0.2430 -0.0169 -0.0271
14486W        W30620   3.260  14.108   3.279 -0.3298  0.2665  0.3212
14487W        W30621   2.409   9.097  13.696  0.3256 -0.1868 -0.0679
14488W        W30622   3.403   9.451   3.969  0.2303  0.2408 -0.0735
14489W        W30623   7.042  14.686   3.845  0.0404  0.0470 -0.0362
14490W        W30624   0.845  18.136   2.777  0.1279  0.0916 -0.1481
14491W        W30625  17.590  10.124  10.950  0.2307  0.0979 -0.3726
14492W        W30626  11.600   9.087  14.540  0.1933 -0.1258  0.2482
14493W        W30627   6.842   0.103  15.030  0.2149  0.1342 -0.1948
14494W        W30628  13.055  12.740  15.207  0.2128 -0.1421 -0.1656
14495W        W30629   9.320  11.514  14.193 -0.1505 -0.2755 -0.1918
14496W        W30630   0.109  16.035   1.051 -0.4383  0.2400 -0.3891
14497W        W30631  11.232  11.039   5.944 -0.0115 -0.1809 -0.0715
14498W        W30632  15.929  10.675   5.991 -0.0216 -0.2012 -0.1160
14499W        W30633   9.926   4.030  16.184 -0.0326  0.2994  0.1869
14500W        W30634  11.083   9.626   4.214 -0.1401  0.0463 -0.1721
14501W        W30635  13.614   0.855   2.634 -0.0811 -0.0967 -0.0412
14502W        W30636   2.645  17.294   4.279  0.1838  0.4081 -0.3096
14503W        W30637  17.366   7.558   4.892  0.1970 -0.4174 -0.0864
14504W        W30638  18.111   9.761  13.937  0.0434 -0.2557  0.2936
14505W        W30639   3.792   5.638  14.011 -0.1518 -0.1569  0.0497
14506W        W30640  16.978   4.207   4.797  0.0633  0.0701  0.2354
14507W        W30641   2.096   8.925   2.741 -0.0825  0.4966  0.1523
14508W        W30642   0.064  10.054   2.772 -0.0763  0.2794  0.0430
14509W        W30643   9.513   9.670  14.554 -0.0422 -0.1924 -0.1705
14510W        W30644   5.867   6.213  12.468 -0.0121 -0.1645 -0.0341
14511W        W30645   7.276   7.651  15.960 -0.0730  0.0173  0.2669
14512W        W30646  16.252  13.232  15.858  0.3086 -0.0730 -0.0725
14513W        W30647   7.109   9.253  11.770  0.2571 -0.2846  0.0087
14514W        W30648   7.644   4.279  11.931  0.1704  0.2379 -0.0246
14515W        W30649   4.045   6.663  12.142 -0.3023  0.3431  0.1178
14516W        W30650   9.992   4.191   2.448 -0.2233 -0.0984 -0.0611
14517W        W30651   7.907   5.284  13.772  0.0720  0.1406  0.0234
14518W        W30652  13.378   0.212   3.301  0.3179  0.0640 -0.1670
14519W        W30653  17.259  12.062   1.120 -0.2421  0.0426 -0.0646
14520W        W30654   1.873  15.969  14.233  0.0971  0.0060  0.0945
14521W        W30655   7.615  16.146  15.049 -0.1307  0.0058  0.3246
14522W        W30656   2.127  10.084  14.604  0.1187 -0.0397 -0.0059
14523W        W30657  14.522  17.966   5.364  0.2383 -0.1888  0.1929
14524W        W30658   1.600   8.655   5.977  0.0553 -0.1212 -0.0927
14525W        W30659  12.461   0.105  12.273 -0.0159  0.0213 -0.0529
14526W        W30660  13.817  17.711   4.110  0.2811  0.1136  0.0778
14527W        W30661  13.426  10.557  15.564 -0.1177 -0.1762  0.0372
14528W        W30662   4.165  12.564  14.456  0.3255  0.3429  0.1825
14529W        W30663   9.361   7.575   1.768 -0.0377  0.2191  0.0222
14530W        W30664  15.761   1.125   0.015  0.0333 -0.0463 -0.2590
14531W        W30665  14.700   5.058   0.563 -0.1461  0.1549  0.1525
14532W        W30666   9.478   2.748  14.420 -0.1881  0.0316 -0.3556
14533W        W30667  12.026   0.524   1.441 -0.0041  0.0618  0.0239
14534W        W30668  11.166   6.904  10.785  0.0982  0.0765  0.0576
14535W        W30669   1.438  16.488  15.153 -0.0972 -0.0883  0.2395
14536W        W30670  12.809   7.249   0.689  0.0076  0.0359  0.0376
14537W        W30671  10.905   0.959   5.670  0.0985 -0.0376  0.2021
14538W        W30672   1.282  17.422   4.985 -0.1695 -0.2503 -0.1888
14539W        W30673  15.479  12.945   6.639  0.0782 -0.1172  0.1469
14540W        W30674   7.196   5.516   5.783  0.0644  0.0514  0.3709
14541W        W30675   1.965   6.276   1.318 -0.0020 -0.0678 -0.1499
14542W        W30676  12.873   8.249   3.133 -0.0719 -0.0611  0.0044
14543W        W30677  12.619  10.850  13.420  0.0501 -0.0264 -0.0676
14544W        W30678   2.751  10.810  14.442  0.1842  0.0488 -0.2196
14545W        W30679   7.155  13.461  14.069  0.1814 -0.1291  0.0804
14546W        W30680  12.141   9.495   2.198 -0.1354  0.0565  0.1007
14547W        W30681   3.103  13.351   0.227 -0.0848  0.1283  0.0016
14548W        W30682  14.384  14.129   0.948 -0.1185 -0.0715 -0.1067
14549W        W30683   5.697   6.219  10.351  0.0902 -0.0402 -0.0621
14550W        W30684  13.472   4.183   4.288 -0.0639 -0.1981  0.0863
14551W        W30685   4.669  13.290   0.128  0.1382  0.0647 -0.2628
14552W        W30686   9.541  11.680   0.743 -0.1303  0.1354 -0.0795
14553W        W30687   7.329   8.496  11.556  0.3823  0.2167 -0.2177
14554W        W30688   2.012  10.097   0.112 -0.3752 -0.0702  0.1053
14555W        W30689   4.264   9.559  14.862  0.3486  0.3040  0.1758
14556W        W30690   5.647  11.287  11.356  0.1692 -0.4460 -0.1343
14557W        W30691  17.852  12.701   2.773  0.1900 -0.1163 -0.1791
14558W        W30692   1.610   3.857   5.534  0.3346  0.0215  0.1790
14559W        W30693   3.410  16.528   1.950  0.0349  0.1402 -0.0123
14560W        W30694   6.908   9.888  15.025  0.2161 -0.1674 -0.0241
14561W        W30695  17.959   2.685   5.551 -0.1642 -0.0206  0.4372
14562W        W30696  17.808   7.424   5.062 -0.2859  0.0932  0.2343
14563W        W30697   1.012  12.109   1.755  0.0922  0.0216  0.2309
14564W        W30698  17.247   2.008  15.901 -0.3655  0.0666 -0.4199
14565W        W30699  14.702  12.408   2.156 -0.0337 -0.1303  0.1448
14566W        W30700  17.807   8.634   3.809  0.3132 -0.1302  0.2552
14567W        W30701   8.797   3.800  12.264  0.0023 -0.3077 -0.0760
14568W        W30702   5.880   5.678  11.909 -0.2684 -0.1176 -0.2617
14569W        W30703   9.470   5.087   6.086 -0.1049 -0.0862  0.4062
14570W        W30704  14.638   4.737   3.127 -0.1078  0.1500 -0.0167
14571W        W30705  13.673   9.611   4.550 -0.0050 -0.0712  0.3453
14572W        W30706   6.137   5.494   3.353  0.0614 -0.0204 -0.2632
14573W        W30707   1.019   3.273   5.331 -0.0776 -0.2159 -0.2602
14574W        W30708   1.201   5.689  12.446  0.2525 -0.0391 -0.3879
14575W        W30709   5.473  11.920   3.485  0.0956 -0.0736  0.0554
14576W        W30710  10.096   1.137   1.598  0.2851  0.1855 -0.2626
14577W        W30711  12.991  16.271   3.725  0.0730  0.0651 -0.1400
14578W        W30712   0.608  13.089   2.164  0.3206  0.0555  0.3017
14579W        W30713   0.847   4.670  11.547 -0.0408 -0.1751 -0.0657
14580W        W30714  16.909  16.984   0.080 -0.2814  0.0853 -0.1485
14581W        W30715  17.959  16.463   1.975  0.1183 -0.1263  0.0873
14582W        W30716   1.780  10.516  13.432  0.0809  0.0116 -0.1735
14583W        W30717  16.359  16.557   4.683 -0.4879  0.1606 -0.2176
14584W        W30718  12.269   5.124   5.716 -0.5209 -0.1215 -0.2862
14585W        W30719   3.156   3.622   5.667  0.0330 -0.2816  0.2884
14586W        W30720  15.529  17.726   0.986 -0.2333 -0.2372 -0.1434
14587W        W30721   6.313   4.916   2.320 -0.1723  0.1778 -0.4607
14588W        W30722   2.660  16.025  12.937  0.2361  0.0920  0.0210
14589W        W30723   3.822   6.272   3.468  0.0392 -0.0371  0.2511
14590W        W30724  11.340   6.281  13.206 -0.2523 -0.2160 -0.1495
14591W        W30725   4.868   9.171   3.480  0.3619  0.1825  0.0926
14592W        W30726   2.655  17.772   4.725  0.0766  0.1282 -0.1718
14593W        W30727  17.462  11.296  16.507 -0.2794 -0.1489  0.0269
14594W        W30728  17.080   6.527   0.645  0.1084 -0.1478 -0.1708
14595W        W30729   5.566   9.194  11.358  0.0899  0.0110  0.2108
14596W        W30730   7.781  15.759  14.718  0.1839  0.2626 -0.3182
14597W        W30731   5.886  16.908  12.473 -0.0434  0.1608  0.2048
14598W        W30732   5.131  16.281  15.582  0.2195 -0.1970 -0.0349
14599W        W30733   4.083   1.190   2.310  0.2560 -0.0885  0.2002
14600W        W30734  17.381  13.473  12.160  0.2969  0.1748 -0.0431
14601W        W30735   3.559   5.919  16.120  0.3611 -0.1117 -0.0726
14602W        W30736  10.262   1.703   6.052  0.0459 -0.2163  0.3264
14603W        W30737  12.428   7.926  12.365  0.1544 -0.2072  0.1176
14604W        W30738  16.725   0.633   0.731 -0.4196  0.0895 -0.1419
14605W        W30739   2.499  15.207  12.082  0.4176  0.0420  0.0874
14606W        W30740   6.368   6.634  14.587  0.3959  0.0113  0.3713
14607W        W30741  10.582  16.445   2.235 -0.0900 -0.1231 -0.0426
14608W        W30742   1.180   7.825  11.421  0.0256  0.3557 -0.1275
14609W        W30743  15.758   3.494   1.207 -0.1259  0.0757 -0.0262
14610W        W30744   9.725  16.210   2.637  0.0388  0.0148  0.0859
14611W        W30745   8.663   9.205  11.805  0.2128  0.2533 -0.0108
14612W        W30746   8.098   7.391  11.420  0.0742  0.2206  0.0780
14613W        W30747   3.902  13.430   3.969 -0.0303 -0.2165 -0.3099
14614W        W30748   9.717   0.277   1.261  0.1767  0.1667 -0.1562
14615W        W30749   5.714  14.908  13.355 -0.0925 -0.1580  0.1752
14616W        W30750   1.262  16.344  12.146 -0.1101  0.1617 -0.2590
14617W        W30751  15.195  16.900   2.283 -0.1939  0.1735 -0.0561
14618W        W30752  14.597  15.650   0.959 -0.0739  0.1703 -0.0436
14619W        W30753   1.963   6.527  13.114  0.0435 -0.1027 -0.1864
14620W        W30754   3.972  13.759  15.670 -0.0038  0.0174  0.4126
14621W        W30755  14.388  14.102  12.402  0.1275  0.1871 -0.0998
14622W        W30756  14.328   5.149   2.339 -0.0787  0.1811 -0.0662
14623W        W30757  16.632   7.955  15.951  0.3116  0.0917  0.0893
14624W        W30758   2.379  15.451  14.491  0.1112 -0.0266 -0.2884
14625W        W30759   3.000   6.986   3.697  0.0576 -0.0720  0.3360
14626W        W30760   9.071   0.696  13.495 -0.0610 -0.0827  0.3388
14627W        W30761   7.877  14.370  14.990 -0.3962 -0.2218 -0.0249
14628W        W30762   0.685   8.752   5.692 -0.0097 -0.1241  0.0187
14629W        W30763  11.401   3.189   1.400 -0.1595  0.3627 -0.0042
14630W        W30764  12.571   9.297  11.487  0.0542 -0.0633 -0.0436
14631W        W30765  12.983   1.940   5.415  0.0185  0.1625 -0.2373
14632W        W30766  13.718   4.688   5.013  0.0157  0.0950 -0.0872
14633W        W30767   5.192   8.022  16.263  0.1070 -0.3806  0.4139
14634W        W30768   2.921  10.821  15.872  0.0711 -0.1859 -0.0985
14635W        W30769   7.661  11.584   1.796 -0.0492 -0.2497  0.0718
14636W        W30770  12.071  13.174  16.132 -0.0206 -0.2888  0.3965
14637W        W30771  10.664   9.008  13.273  0.0745 -0.0843  0.2408
14638W        W30772   4.917   2.267  14.777 -0.0684  0.2728  0.2199
14639W        W30773  16.564   3.982  12.797  0.0733 -0.0518 -0.0900
14640W        W30774  17.475  13.109   1.144 -0.1619 -0.3245  0.0210
14641W        W30775   4.195   5.805  13.268 -0.3396 -0.1357 -0.1033
14642W        W30776  15.580  16.403  15.772 -0.0639  0.1904 -0.0947
14643W        W30777   1.719  11.096  11.985 -0.4861  0.0984 -0.1806
14644W        W30778   7.643   7.916  14.040 -0.1511 -0.1148  0.1827
14645W        W30779  14.434  16.204  15.292 -0.3393 -0.2401 -0.0790
14646W        W30780  17.201  14.110  13.406 -0.0098 -0.2794  0.0621
14647W        W30781  16.593   9.803   5.231  0.1245 -0.2065 -0.1920
14648W        W30782   3.825   5.836  12.541 -0.2071 -0.1985 -0.3230
14649W        W30783  10.895  16.136  15.242  0.0458 -0.0598  0.1233
14650W        W30784   1.721   2.913  14.293  0.1896  0.0176 -0.0087
14651W        W30785  14.459  16.422   5.918  0.1373  0.0355  0.0564
14652W        W30786   9.161  16.774  15.432 -0.1719 -0.1004  0.3488
14653W        W30787  17.427  16.056  11.091 -0.1884  0.2727 -0.1412
14654W        W30788   6.529   1.177   1.408 -0.0353  0.2022 -0.2144
14655W        W30789   9.678  12.862  12.115  0.2537 -0.2132  0.0234
14656W        W30790  13.355   4.947  14.258  0.2675 -0.0816  0.0905
14657W        W30791   1.611   7.898   1.909 -0.1555 -0.2042  0.0826
14658W        W30792  12.946  10.073  13.807  0.1601  0.0902  0.2652
14659W        W30793   4.838  12.262   2.056 -0.1038  0.0480  0.1661
14660W        W30794   2.237  13.683  14.868  0.2408 -0.0909  0.0647
14661W        W30795  15.118   6.147  13.653 -0.0409 -0.1266 -0.0125
14662W        W30796  12.430   4.770   6.077  0.1875 -0.0177  0.0236
14663W        W30797   5.790   4.487   4.420  0.1427 -0.0799  0.1462
14664W        W30798   9.746   5.063   4.016 -0.2238  0.1338  0.2305
14665W        W30799  13.557   7.565   4.026  0.2229  0.5163 -0.2055
14666W        W30800  11.112   7.641   1.332  0.0216  0.0548 -0.0854
14667W        W30801  12.597   5.662  15.518  0.0601 -0.1049 -0.1076
14668W        W30802   3.628   5.964   1.874  0.0610  0.2065 -0.0609
14669W        W30803  16.838   5.323   5.492 -0.1472  0.0043  0.0190
14670W        W30804  16.942   1.659   0.051 -0.2157  0.0593  0.0398
14671W        W30805  17.315  15.121  16.389 -0.0625  0.0464  0.1139
14672W        W30806   9.477   3.868  15.747  0.3737 -0.1122 -0.1460
14673W        W30807   0.045  11.694  15.465 -0.2055 -0.2399 -0.0079
14674W        W30808  13.326  13.518   2.785 -0.3153 -0.1619 -0.1325
14675W        W30809  10.043   3.382  12.333 -0.2420 -0.1651 -0.2277
14676W        W30810  14.070  18.126  13.300 -0.2173  0.3428 -0.1294
14677W        W30811   3.324  12.380   2.212 -0.0802 -0.2472  0.2245
14678W        W30812   7.411   4.630   1.330  0.2398  0.0732  0.1763
14679W        W30813   0.981  11.474  13.336  0.0270  0.0639  0.5507
14680W        W30814  13.588  11.901   4.135  0.0764 -0.1068 -0.0678
14681W        W30815   1.771  13.530   5.691  0.2338  0.1431  0.3281
14682W        W30816  16.712   1.513   2.946  0.0632 -0.1124  0.0497
14683W        W30817  17.133  12.296   3.764 -0.1092  0.1912  0.4115
14684W        W30818  12.965   2.026  13.475 -0.1304 -0.3556  0.0338
14685W        W30819  17.654   7.963   5.035  0.0017 -0.0684 -0.1005
14686W        W30820  11.273   7.816  10.747 -0.0219 -0.1161  0.3020
14687W        W30821  17.131  12.321   2.539  0.1642 -0.1195  0.0318
14688W        W30822   7.989   6.143  11.459 -0.3426 -0.1561  0.0187
14689W        W30823  14.207  14.955  13.196  0.1964  0.0167  0.4323
14690W        W30824  12.692   2.861   3.182  0.1324  0.1540  0.2381
14691W        W30825  14.150   2.755  15.813 -0.0159  0.2558 -0.0664
14692W        W30826   5.824   0.943  14.369  0.2817  0.0982  0.2353
14693W        W30827  12.969   7.135  13.917 -0.1341 -0.3142 -0.2242
14694W        W30828  10.205   9.463  13.283 -0.1243 -0.0327 -0.1449
14695W        W30829  10.876  18.165  14.896  0.0058 -0.2989  0.0060
14696W        W30830   4.083  11.366   3.846  0.3339  0.0889  0.1009
14697W        W30831  12.152  13.884   0.042  0.2652  0.0656 -0.0196
14698W        W30832   3.863  12.834  14.716 -0.1252  0.2375  0.2013
14699W        W30833   2.004  12.752  15.653 -0.0697 -0.0135 -0.1791
14700W        W30834  17.014  11.049   3.509  0.3009  0.0814  0.0339
14701W        W30835   7.630   9.942  12.728 -0.2510 -0.1022  0.0045
14702W        W30836   7.010  18.069  12.019  0.3378 -0.0402 -0.0940
14703W        W30837   1.221   5.610   3.202 -0.1039 -0.3219  0.1979
14704W        W30838  14.125   7.317  16.102  0.2118 -0.1510  0.2920
14705W        W30839   9.910  15.830  14.537  0.2582  0.2263  0.0476
14706W        W30840  10.410   6.909   1.220 -0.2018 -0.1771 -0.1808
14707W        W30841   5.145   9.292   3.878 -0.2606  0.0438 -0.0225
14708W        W30842   1.731   8.820  10.899 -0.2592 -0.1230 -0.2228
14709W        W30843   3.665   9.175   5.015  0.3118 -0.1363 -0.1460
14710W        W30844   1.222   5.901  10.820  0.2884 -0.0981 -0.2961
14711W        W30845   0.239   2.702   1.894 -0.0952  0.1304  0.3295
14712W        W30846   4.493   2.009  14.779 -0.0691  0.1479  0.0233
14713W        W30847   9.744  10.767  11.672 -0.3379  0.4673  0.0498
14714W        W30848   7.707   6.019  12.481  0.0900  0.1509  0.1238
14715W        W30849  11.449   4.142  13.440  0.1824  0.3347 -0.1376
14716W        W30850  16.594   4.066   1.614  0.1815 -0.0893  0.0493
14717W        W30851  10.021   5.491  14.336 -0.0187 -0.1357 -0.1387
14718W        W30852   8.600  17.468   5.310 -0.1617  0.2900  0.1689
14719W        W30853   1.764  15.377   2.854  0.2240 -0.2514 -0.1622
14720W        W30854  14.923   8.135  15.989  0.2783 -0.0322 -0.1703
14721W        W30855  15.922  11.027  15.888 -0.2889  0.1234 -0.2483
14722W        W30856   2.176  11.556  14.973  0.0495 -0.2435  0.0531
14723W        W30857  13.853   6.286  13.689 -0.1213  0.0557 -0.1500
14724W        W30858  17.314  11.371   2.706 -0.3147 -0.2537 -0.0976
14725W        W30859   0.136  18.165  11.976  0.2385  0.1576 -0.0540
14726W        W30860  10.952  14.718  16.347  0.0505 -0.1433  0.1173
14727W        W30861  14.443  16.087   0.457 -0.1555  0.0911 -0.0560
14728W        W30862   9.056  10.368  11.387 -0.0639  0.0326  0.0402
14729W        W30863  13.456   6.481  12.499  0.4564 -0.0139 -0.0927
14730W        W30864   4.317  16.062  11.999  0.0359 -0.0904 -0.0168
14731W        W30865  15.734  16.360  11.255  0.1195  0.1299 -0.0157
14732W        W30866  11.843  14.499   5.542 -0.0970  0.1311  0.0167
14733W        W30867  10.003  16.697   5.149  0.0665 -0.2003  0.0063
14734W        W30868  14.388   1.322  15.645 -0.2558  0.1128  0.1431
14735W        W30869   8.060   3.669   2.390 -0.2884  0.1281  0.0361
14736W        W30870  16.339   3.253  11.103  0.2152  0.2464  0.0611
14737W        W30871   7.565   9.970   5.573  0.0672 -0.1445  0.3410
14738W        W30872  17.388   6.450  16.267  0.0412 -0.3122 -0.0766
14739W        W30873   0.246  12.339   4.831  0.1482 -0.1766 -0.3355
14740W        W30874   6.479  13.126  13.829 -0.0126 -0.1068  0.2394
14741W        W30875  16.676   7.092  15.528  0.0791  0.1098 -0.1843
14742W        W30876  16.019   5.758   2.786 -0.1397 -0.1007 -0.3822
14743W        W30877  11.529  17.618   4.090  0.0332 -0.0376 -0.1102
14744W        W30878   6.369   3.047   3.606  0.0618 -0.1194 -0.4315
14745W        W30879  12.904   8.374  15.993  0.0110 -0.0225  0.0836
14746W        W30880   3.295   7.264  16.018  0.0671 -0.0184 -0.0124
14747W        W30881   2.652  16.327   5.820  0.1881  0.1876  0.0374
14748W        W30882   7.686   0.172   5.684  0.0866 -0.2919 -0.0333
14749W        W30883  13.221  15.809  13.553 -0.1146  0.0240  0.2910
14750W        W30884  10.481   0.472  13.429 -0.1304 -0.1616 -0.1293
14751W        W30885  16.949  17.365   0.947 -0.0611  0.0736  0.0412
14752W        W30886  11.020   8.951  14.513 -0.0578 -0.1639  0.2370
14753W        W30887  17.706  12.011   4.829  0.1803  0.2603 -0.2402
14754W        W30888  16.311  11.248   1.043 -0.0398  0.1445  0.0809
14755W        W30889   1.889   3.196  12.046 -0.4837  0.1283  0.0189
14756W        W30890  12.029  13.643  14.515 -0.2402 -0.0766  0.0625
14757W        W30891   6.931  10.025  14.226  0.1421 -0.2083  0.0186
14758W        W30892   5.551  16.810   3.563  0.1380 -0.1500  0.1306
14759W        W30893   4.086   6.263   5.371 -0.0948 -0.0734 -0.2630
14760W        W30894  16.107   8.256   3.933 -0.1852  0.1279 -0.1065
14761W        W30895   5.518  11.419  10.838 -0.1240 -0.1272 -0.0999
14762W        W30896  10.084   9.231  14.111 -0.1504 -0.0527 -0.1880
14763W        W30897  11.062  12.456  16.410  0.0012 -0.3191 -0.0892
14764W        W30898  16.233   3.972   1.981  0.0907  0.1368 -0.3575
14765W        W30899   5.722  16.714   4.569  0.0187  0.0120 -0.0203
14766W        W30900   8.558  10.695  15.605 -0.0759 -0.1549  0.1454
14767W        W30901   4.880  14.432  12.490  0.0148 -0.0819 -0.3396
14768W        W30902   6.904  10.468  15.723  0.0168 -0.0273 -0.1600
14769W        W30903   5.437  17.173   0.115 -0.0804  0.0301 -0.1251
14770W        W30904   9.301  10.155   3.565 -0.1939  0.1057 -0.3008
14771W        W30905  12.910   5.444   5.064 -0.0049 -0.0471  0.3209
14772W        W30906  11.500   5.440   1.039 -0.1097  0.0613  0.3153
14773W        W30907  16.622   8.788   5.023  0.1738  0.1191 -0.1103
14774W        W30908   0.577  17.332   0.993  0.2105  0.1556 -0.1873
14775W        W30909   2.823   2.986  15.813  0.0017 -0.2176  0.3889
14776W        W30910   6.857   1.883  14.735 -0.0956 -0.0254  0.0576
14777W        W30911  17.048   3.165   2.920 -0.0584  0.0781  0.0097
14778W        W30912   7.973  10.434  11.830  0.1250 -0.0902  0.1230
14779W        W30913  10.070   8.605  15.282  0.0208 -0.1860 -0.2071
14780W        W30914   3.998   1.400   1.854 -0.3071 -0.0318  0.0644
14781W        W30915   0.195  17.406  13.369 -0.1547  0.0873  0.1308
14782W        W30916   2.155  16.274  14.657 -0.2864 -0.1350  0.0517
14783W        W30917  15.766  13.320   1.237 -0.1533 -0.2174 -0.2162
14784W        W30918   6.825   5.584   3.194  0.1226 -0.1753  0.0721
14785W        W30919   0.423   7.975  12.829 -0.1285 -0.0085 -0.1992
14786W        W30920  15.726  13.428  11.514  0.1831 -0.2217 -0.2509
14787W        W30921  12.877   0.144   3.241 -0.1291 -0.1664 -0.2924
14788W        W30922   3.496  10.064   0.636  0.0411 -0.2073 -0.1035
14789W        W30923   5.191   4.283  15.245 -0.4233  0.0760 -0.1025
14790W        W30924  14.830  17.685   3.057 -0.1830 -0.2431 -0.0931
14791W        W30925   5.736  16.987  15.217 -0.0346 -0.0101 -0.0673
14792W        W30926   3.728   4.924  11.454  0.1194  0.0098 -0.0874
14793W        W30927  12.471   1.244  13.476  0.1817  0.2589  0.0183
14794W        W30928  15.093   7.051   1.115 -0.2320 -0.1674 -0.1859
14795W        W30929  16.230  13.246  15.347  0.2275 -0.0908  0.0083
14796W        W30930   6.773   8.783   4.529  0.1647  0.1664  0.1626
14797W        W30931   8.708   2.263  14.647 -0.1536  0.2113 -0.0241
14798W        W30932   0.015   6.987  16.297  0.1083  0.2043 -0.0856
14799W        W30933   1.244   6.916  13.371 -0.1403 -0.3307  0.0262
14800W        W30934  17.056  11.588  16.240 -0.1662  0.2121  0.0639
14801W        W30935  14.261  16.969   4.974 -0.1414  0.1525  0.0713
14802W        W30936   5.625   0.671   0.995 -0.0416 -0.1103  0.1068
14803W        W30937   7.301   0.795   3.430 -0.1247 -0.0247  0.1362
14804W        W30938   8.081   0.120   2.823 -0.0904 -0.0267  0.3750
14805W        W30939  13.786  10.497   4.298  0.0670  0.2279  0.1696
14806W        W30940  16.510   4.090   5.073  0.1255 -0.0056 -0.0387
14807W        W30941  16.212   4.965  14.303 -0.1820 -0.0479  0.1671
14808W        W30942  11.456  12.624   2.485  0.3645 -0.2149 -0.0314
14809W        W30943  15.416  10.274  13.757 -0.1161  0.2952  0.1603
14810W        W30944  12.071  17.025  13.158  0.0444 -0.1096 -0.1080
14811W        W30945   8.871  13.415  11.300 -0.0871 -0.0130 -0.0209
14812W        W30946   9.823   6.864   3.267  0.5578 -0.1069 -0.5121
14813W        W30947  18.139   0.438   0.242 -0.1308 -0.1713 -0.1170
14814W        W30948   1.512  13.752  12.221 -0.0484  0.1062  0.0787
14815W        W30949  10.002  12.123   2.951  0.0576 -0.0100 -0.3077
14816W        W30950   9.041   3.773   4.140 -0.1227 -0.1706  0.0925
14817W        W30951   6.588   8.765   1.849 -0.0938 -0.0691 -0.0481
14818W        W30952  17.265   9.662   0.682  0.0932  0.0765  0.1544
14819W        W30953   0.971  10.686   1.237  0.0425  0.3140 -0.3062
14820W        W30954   7.051   4.551  11.828  0.3377 -0.2582 -0.0446
14821W        W30955   5.180   8.739   5.335  0.1401  0.1371 -0.4331
14822W        W30956   3.806   0.275   2.333 -0.0970  0.2992 -0.0302
14823W        W30957  11.920  17.706  16.073  0.1593 -0.0652  0.1053
14824W        W30958  16.467   6.814   4.138  0.1057  0.0395 -0.2705
14825W        W30959   6.120  13.753  12.610 -0.2221  0.2354 -0.1516
14826W        W30960  15.425  17.562  14.759 -0.3589 -0.1487 -0.0659
14827W        W30961   8.248  10.414   1.309 -0.1770  0.0607 -0.0015
14828W        W30962  17.116   4.254  13.312  0.1012 -0.0052 -0.1129
14829W        W30963   9.512   7.736  11.354  0.0794  0.1991  0.1986
14830W        W30964  12.143   9.881   0.735 -0.5451 -0.0130 -0.0275
14831W        W30965  12.686   0.694   4.502  0.1551  0.2630  0.0203
14832W        W30966   0.489   1.736   4.167  0.0570  0.1739  0.1929
14833W        W30967   6.428   7.279   3.991  0.0414  0.1168 -0.2595
14834W        W30968  18.134  16.012  15.906  0.1025 -0.0891 -0.2431
14835W        W30969  14.985  17.152   4.302  0.3432  0.0970 -0.4409
14836W        W30970  11.068   5.660  12.797 -0.3413 -0.1924  0.0112
14837W        W30971  16.725   3.552  14.802 -0.0231  0.1581  0.1794
14838W        W30972   2.163  17.133   1.733  0.0121 -0.0540  0.0395
14839W        W30973   0.565  15.704   1.264 -0.0220  0.1961 -0.1326
14840W        W30974   1.422   4.745   4.143  0.3630  0.1563  0.1386
14841W        W30975   4.749  12.862  15.133 -0.2854  0.0307  0.2106
14842W        W30976   4.583  10.119   0.825  0.2123 -0.1524 -0.2613
14843W        W30977  11.440  17.056  14.196 -0.1940  0.0210  0.1939
14844W        W30978   7.131  16.633  13.308  0.3519 -0.2796 -0.1270
14845W        W30979   4.425  11.023   0.333 -0.0464 -0.1384 -0.0834
14846W        W30980   7.675   7.945   3.546 -0.3873 -0.1215 -0.0705
14847W        W30981   9.761  17.047   5.973  0.3336  0.0055 -0.0086
14848W        W30982   8.878  10.924  11.343  0.1426 -0.1380 -0.2008
14849W        W30983  14.836  15.429  13.683  0.1025  0.0614 -0.1671
14850W        W30984   4.577  15.723   2.364  0.0259  0.2913  0.0492
14851W        W30985  16.382  16.959  12.769 -0.0457 -0.2010 -0.2676
14852W        W30986   1.967  11.418  15.499 -0.2098  0.2553  0.0566
14853W        W30987  11.263   1.005   0.587 -0.0242  0.0951  0.1284
14854W        W30988   8.484   2.208   3.589  0.1565  0.1287 -0.0502
14855W        W30989  11.898   7.762   3.409  0.0135  0.0125  0.0209
14856W        W30990   8.249  16.325   5.265  0.0911 -0.3666 -0.0365
14857W        W30991   3.973   2.839   1.573 -0.0443  0.1878  0.1769
14858W        W30992   1.289  14.889   5.929 -0.3038  0.0041  0.0827
14859W        W30993  10.123  13.561  15.171 -0.0649 -0.1199  0.1492
14860W        W30994   7.320   7.482  14.040 -0.0288  0.1538 -0.2612
14861W        W30995  13.869  15.627  14.042  0.1135 -0.1553  0.1215
14862W        W30996   1.157   5.920  10.323  0.1803 -0.1807 -0.0874
14863W        W30997   2.009   4.852   4.744  0.1186 -0.1126 -0.3713
14864W        W30998  14.467   4.242   1.435 -0.1302 -0.2614  0.1210
14865W        W30999  15.473  15.415  16.091 -0.5657 -0.1096 -0.1587
14866W        W31000   0.322  17.090  12.709 -0.0717  0.0198 -0.1961
14867W        W31001   8.253   8.867  13.589  0.1391  0.2102  0.0887
14868W        W31002  13.574   7.485  11.358  0.0179  0.0841  0.4704
14869W        W31003  11.810  13.065   0.209  0.1526  0.1457 -0.1981
14870W        W31004   6.585  17.929   3.659  0.1764  0.1047 -0.0098
14871W        W31005  10.438   3.704  12.423 -0.1554 -0.0592  0.1348
14872W        W31006   6.210   6.449   1.887  0.0979 -0.1629  0.0796
14873W        W31007  17.126  14.946   4.232  0.2072  0.1377  0.0785
14874W        W31008  12.909   1.243  13.060 -0.2889  0.1874  0.0787
14875W        W31009  12.391  17.407   4.822 -0.3049 -0.0326 -0.1094
14876W        W31010   8.429  18.082   2.530 -0.0331 -0.1887 -0.4486
14877W        W31011   6.710   8.737   3.300 -0.0819  0.3064  0.1651
14878W        W31012  10.173  16.009  16.488 -0.0717 -0.0756 -0.1992
14879W        W31013  15.667   1.197  13.768  0.0202 -0.3519  0.0425
14880W        W31014   8.827   7.752   2.456  0.1290  0.2773  0.0038
14881W        W31015   6.197  15.638   1.978 -0.1287  0.2695 -0.0047
14882W        W31016   0.798  13.949  15.005 -0.0276  0.0786 -0.0947
14883W        W31017  15.878   9.036   1.866  0.0220  0.1258  0.0948
14884W        W31018  13.169   7.390  12.578 -0.0580  0.0009 -0.1811
14885W        W31019  13.806  14.172   1.933 -0.0237  0.2982  0.1102
14886W        W31020  10.460  15.869   0.546  0.4278 -0.4089 -0.1445
14887W        W31021   8.828  17.311  14.732  0.2254 -0.3359  0.0154
14888W        W31022   1.601   6.071   0.887 -0.2840 -0.3124 -0.1852
14889W        W31023   6.928  17.836   5.267  0.2127 -0.2482  0.4316
14890W        W31024   0.543   1.505   0.311  0.0880 -0.3205  0.3676
14891W        W31025   7.367  10.128  16.197  0.0087 -0.3903 -0.1708
14892W        W31026   1.381   1.350  14.914 -0.1353 -0.1336  0.2910
14893W        W31027   4.663   6.978   2.660 -0.1148 -0.0403 -0.1005
14894W        W31028   7.748   2.238  16.173  0.1750  0.3227 -0.2422
14895W        W31029   9.258  16.504   1.964 -0.0993 -0.2516 -0.1849
14896W        W31030   6.225  14.880   2.993 -0.3129  0.2029  0.1897
14897W        W31031   6.486  17.638   1.723  0.1326 -0.0015 -0.1934
14898W        W31032  12.562   3.682  13.069  0.0757 -0.0452  0.0352
14899W        W31033  14.126   3.370  15.587 -0.1581  0.0587 -0.0282
14900W        W31034   8.939  14.291   3.079 -0.0777 -0.2277  0.2003
14901W        W31035  16.387   4.360  15.900 -0.0733 -0.1547  0.3028
14902W        W31036   6.074   5.492   6.678  0.0034 -0.0119 -0.0208
14903W        W31037  12.532   8.845   4.641  0.1447  0.0650  0.1499
14904W        W31038   9.571  13.641   0.268 -0.2750 -0.1967 -0.0827
14905W        W31039   9.960  12.381  11.394 -0.1169  0.2636 -0.0040
14906W        W31040  17.396   0.409  12.089  0.1428  0.1049  0.2189
14907W        W31041  10.007  10.283   2.199 -0.1862  0.2642  0.0403
14908W        W31042   1.948  16.311   1.399  0.2129 -0.2052 -0.0745
14909W        W31043  11.030  17.304  12.429 -0.1932 -0.1951  0.3236
14910W        W31044   4.340  12.592   3.761  0.0062 -0.0066  0.2659
14911W        W31045  15.687  12.415  14.986 -0.1051 -0.1028  0.1523
14912W        W31046  10.623   1.809  15.268  0.0949  0.1065  0.1249
14913W        W31047  17.613   2.683   3.744 -0.3344  0.1081 -0.1433
14914W        W31048   0.638  13.987  13.035  0.0927 -0.1139 -0.1234
14915W        W31049   6.934  17.914   2.288  0.2349 -0.1296  0.1808
14916W        W31050  12.497  11.000   5.326  0.2104 -0.0175  0.3012
14917W        W31051  17.629  15.925   4.463  0.3245  0.4070  0.2533
14918W        W31052   1.952   9.882  14.148 -0.3117 -0.2709  0.1709
14919W        W31053  11.447  13.872  13.488 -0.0375 -0.2430 -0.0610
14920W        W31054   0.526   6.175  15.836 -0.3841  0.1688 -0.2879
14921W        W31055   8.280  18.022  15.062 -0.1523 -0.4921  0.1798
14922W        W31056   3.144  15.052   0.072  0.1218 -0.2055  0.0348
14923W        W31057   5.626  13.568   3.786 -0.0667  0.2026  0.0370
14924W        W31058  15.960  12.086   2.320 -0.0952  0.2703 -0.0097
14925W        W31059  10.437   5.779   3.671  0.2395  0.0545 -0.3829
14926W        W31060   9.110   3.938   1.508  0.0127  0.0423 -0.4001
14927W        W31061   3.794   7.487  11.995  0.0004 -0.0053 -0.0724
14928W        W31062  13.387  14.905   1.754  0.2349 -0.2227 -0.1739
14929W        W31063   2.230   8.319  12.024  0.1671 -0.1715  0.0008
14930W        W31064   0.840   6.702  15.299  0.0334  0.1207  0.0481
14931W        W31065   0.613  16.682  12.852 -0.0554  0.2738  0.3127
14932W        W31066   7.087  12.015  11.755  0.0702 -0.0083  0.2464
14933W        W31067   7.696   2.432   5.361 -0.0913 -0.1780 -0.1454
14934W        W31068   4.889  16.285   2.500 -0.0452 -0.0478 -0.4278
14935W        W31069  11.289   9.903   0.452 -0.0346 -0.1804  0.0844
14936W        W31070   1.897   4.329  14.597  0.1058 -0.0067 -0.2377
14937W        W31071   3.455   2.906   1.853 -0.0321  0.1632  0.1135
14938W        W31072  12.322   6.207   3.422  0.0063  0.0013  0.1527
14939W        W31073  15.281   3.706  15.152 -0.1033  0.2974 -0.2089
14940W        W31074   4.496   2.767   3.909 -0.0324 -0.0682  0.1846
14941W        W31075   0.138  12.941  14.577 -0.1614  0.0465  0.0354
14942W        W31076   2.606   0.574  13.023  0.0748  0.3360 -0.1615
14943W        W31077  14.912  16.308   1.141 -0.2363 -0.0183  0.1362
14944W        W31078  16.954   7.845   0.911 -0.3726  0.0996  0.0826
14945W        W31079   2.032  11.781  13.984  0.2068 -0.0372  0.0219
14946W        W31080   0.874  13.085  12.747 -0.1127 -0.0805  0.0404
14947W        W31081   0.782  14.819  13.064  0.1347 -0.3812  0.1223
14948W        W31082   5.167   6.211  13.920 -0.2500  0.3461 -0.3859
14949W        W31083   8.048   4.735  15.596 -0.0792  0.2119 -0.1281
14950W        W31084   6.427   7.538  15.904 -0.3756  0.0255 -0.0622
14951W        W31085  17.595   6.637   0.590  0.1092 -0.1390 -0.2777
14952W        W31086  16.223  15.371   6.086 -0.1253  0.4488  0.0343
14953W        W31087   0.730   3.595  16.388 -0.1388  0.1024  0.0928
14954W        W31088   7.579   0.758  14.663  0.1121 -0.0607 -0.0575
14955W        W31089   2.408  17.104   4.677  0.2316 -0.2565  0.1190
14956W        W31090   9.988   4.642   0.859 -0.1465  0.1606 -0.0316
14957W        W31091   0.188  16.512   4.756  0.2294 -0.1045  0.0255
14958W        W31092  11.866  13.934  15.389  0.0186  0.4352 -0.0261
14959W        W31093   7.041   7.785  12.800  0.0973 -0.0205  0.1059
14960W        W31094  17.601  17.838   1.828  0.3446  0.1048 -0.1741
14961W        W31095   2.584   3.748  15.636 -0.0862  0.1629  0.0621
14962W        W31096  15.594  12.869   6.092 -0.2874  0.1955  0.1278
14963W        W31097   9.786  12.733   1.220 -0.1874 -0.0676  0.0219
14964W        W31098   6.993  13.046   5.690  0.0067 -0.0353  0.2868
14965W        W31099  13.642  11.758   4.933 -0.0348  0.0670  0.1096
14966W        W31100  13.343  12.580   4.457  0.0596 -0.0935  0.0344
14967W        W31101  13.760   2.769   4.823 -0.3525  0.0033  0.1825
14968W        W31102   3.977   8.030  13.312 -0.1551 -0.1425 -0.0314
14969W        W31103   9.479   5.658  11.680 -0.2028 -0.2365 -0.1025
14970W        W31104   5.602   6.378   4.364  0.4195 -0.1093 -0.2704
14971W        W31105   7.931  14.743   1.238  0.1404  0.3756  0.0169
14972W        W31106   1.022  17.937   0.528 -0.0620 -0.2039  0.2104
14973W        W31107  11.928   4.919   4.830 -0.0101 -0.1740  0.2157
14974W        W31108   1.939  14.830  12.757 -0.0332  0.0286  0.2255
14975W        W31109  15.288  16.029   3.148  0.0733  0.1605  0.2964
14976W        W31110   7.761   3.736  13.693  0.0188 -0.0716 -0.1293
14977W        W31111   8.951  16.124  15.603  0.0230 -0.0125  0.1065
14978W        W31112  16.247  17.144   0.317 -0.3062 -0.0043  0.1359
14979W        W31113   4.607   6.901  14.224 -0.2851 -0.1274 -0.1276
14980W        W31114  16.591   0.919   5.349  0.0387 -0.3043 -0.1002
14981W        W31115   9.059  16.141  13.966 -0.2699 -0.0203  0.3604
14982W        W31116  10.982  11.071  14.568  0.0971  0.0011  0.1560
14983W        W31117  16.436  12.813  11.833  0.0462 -0.2633 -0.3444
14984W        W31118  10.797  14.885  13.627 -0.0677  0.3168  0.0118
14985W        W31119   6.767   0.771   1.701  0.2805 -0.1737 -0.0188
14986W        W31120  17.676  15.620   1.003 -0.0792  0.0165  0.3614
14987W        W31121  17.570   7.669   5.440 -0.0377 -0.1878  0.2810
14988W        W31122  18.037   3.011  13.118  0.0917  0.2623  0.2301
14989W        W31123   6.781   0.737  15.829 -0.2211  0.0530  0.1684
14990W        W31124  14.079   2.719   6.398 -0.1915 -0.0705  0.2199
14991W        W31125   5.932   4.399   0.949  0.3216  0.1333 -0.2710
14992W        W31126  17.109  10.388  14.462  0.0610  0.3267  0.2253
14993W        W31127   3.043   8.505   1.345  0.0305 -0.0145  0.0097
14994W        W31128   0.840   8.961  14.788  0.0327  0.0662 -0.4132
14995W        W31129  14.383   6.525   0.695  0.3653  0.1481  0.1207
14996W        W31130   3.167  12.289  15.941 -0.0362  0.4243 -0.0090
14997W        W31131  14.244  14.361   1.668  0.0191  0.0048  0.0247
14998W        W31132  13.041   0.997   6.196 -0.0935 -0.0915 -0.3712
14999W        W31133  10.270   2.682   1.864 -0.0183 -0.1063 -0.1508
15000W        W31134   3.766  14.692   4.792  0.2323  0.0340 -0.1355
15001W        W31135   2.897   8.086  12.281  0.2431 -0.1080 -0.0641
15002W        W31136  14.207   7.611  12.586 -0.0828  0.2352  0.0842
15003W        W31137  17.067   6.058  15.982 -0.0823  0.2080 -0.0194
15004W        W31138   9.645  12.087   4.146 -0.3315 -0.3284  0.0727
15005W        W31139   2.516  13.415  14.519  0.3782  0.1426 -0.0755
15006W        W31140  11.976  17.072  14.281  0.1306 -0.0795  0.4094
15007W        W31141  13.142   8.466  14.838  0.1351 -0.0574 -0.0502
15008W        W31142  11.894   1.731  14.794  0.0572 -0.2654  0.2076
15009W        W31143   6.059   3.979   4.602 -0.1001 -0.4931 -0.2576
15010W        W31144   3.302  12.022  14.525 -0.1542 -0.4252 -0.1704
15011W        W31145   1.125  12.681  13.736 -0.0240 -0.0983  0.2483
15012W        W31146  10.232   3.356  13.291 -0.0136  0.2225  0.1648
15013W        W31147  14.177  11.431  14.656 -0.0624  0.1158 -0.1060
15014W        W31148  11.688   2.835   5.167  0.0931 -0.1917  0.3865
15015W        W31149   3.994  10.275   2.011 -0.1641  0.1152  0.0639
15016W        W31150   8.839  14.875  12.324  0.2602  0.0210  0.0141
15017W        W31151   0.780   9.354   1.766 -0.3293 -0.2037  0.1205
15018W        W31152   0.429   3.852   5.467  0.0061 -0.3241 -0.1173
15019W        W31153  10.597  10.713   2.557 -0.1761 -0.2332 -0.0587
15020W        W31154  17.298   6.061  12.922  0.0480  0.0197  0.4197
15021W        W31155   9.374  13.629  12.937 -0.2268  0.1437 -0.0380
15022W        W31156   6.651   2.380  16.366  0.2504  0.0494  0.2018
15023W        W31157   0.202  14.094   1.454 -0.1074 -0.1873  0.2130
15024W        W31158   8.841   0.441  11.797  0.1219  0.0702  0.2981
15025W        W31159  10.912   4.312  11.888 -0.0767  0.1500  0.1183
15026W        W31160   0.665  11.179  13.097 -0.2167 -0.2283  0.0570
15027W        W31161  14.279   9.369   5.780  0.2378 -0.3439 -0.1331
15028W        W31162  10.448   1.191  16.442  0.1645 -0.0350 -0.2386
15029W        W31163   9.302   3.983   1.022  0.0305 -0.0280 -0.0885
15030W        W31164  16.385  17.448  12.682  0.0941  0.0491 -0.2945
15031W        W31165  10.126  13.041  15.163 -0.0458  0.1707 -0.0591
15032W        W31166   4.493   6.978  11.479  0.1166  0.0543  0.3090
15033W        W31167   0.116   6.442  16.468  0.0660 -0.1396 -0.2380
15034W        W31168  14.689   3.108  13.348 -0.0426  0.0295 -0.4441
15035W        W31169   8.064  16.201  13.552  0.1188 -0.1504 -0.1131
15036W        W31170   2.486   3.206   5.544 -0.1349 -0.1357 -0.2020
15037W        W31171   9.514   0.431  12.067 -0.0847 -0.0408 -0.0496
15038W        W31172   3.182   5.473  14.825 -0.3399 -0.2013  0.5107
15039W        W31173   1.379   3.087  16.317 -0.0924  0.0338  0.0897
15040W        W31174  10.113   4.206   3.076  0.1580 -0.3118 -0.0115
15041W        W31175   3.589   1.543   3.458 -0.2800  0.1174  0.0138
15042W        W31176  12.877   6.577  10.646  0.2087 -0.0483 -0.1282
15043W        W31177  18.043  14.582   1.766  0.2430 -0.0608  0.1060
15044W        W31178  14.547   3.150  14.148 -0.1332 -0.1391  0.2164
15045W        W31179   4.100  14.716   5.568  0.3398  0.1053  0.1947
15046W        W31180   1.025   2.889   4.070  0.2588 -0.2634  0.0912
15047W        W31181  15.596   3.430  14.416 -0.0146  0.2620 -0.0128
15048W        W31182   6.709  13.665  15.959 -0.0699 -0.0544 -0.0800
15049W        W31183  10.161   0.515  11.921  0.1413 -0.2760  0.2286
15050W        W31184  16.526   6.273  11.120 -0.0987 -0.1746 -0.0488
15051W        W31185   5.676  14.171   4.342 -0.1140 -0.3614  0.1197
15052W        W31186  12.784   3.137  16.003  0.2105 -0.2090 -0.1328
15053W        W31187   0.219   2.775   5.999 -0.0288  0.0440 -0.0673
15054W        W31188   8.233  11.510  14.181  0.1026  0.1024 -0.1075
15055W        W31189   0.301  11.888  12.347 -0.1082 -0.1617  0.0956
15056W        W31190  11.828   9.828  10.999  0.1145  0.1069  0.2186
15057W        W31191  17.453  16.036   0.790  0.2340  0.0268  0.0818
15058W        W31192   0.719  11.552   1.058 -0.0911  0.2505 -0.2224
15059W        W31193  17.505   7.162   5.639  0.0002 -0.2632 -0.0855
15060W        W31194  17.708  13.659  13.597  0.1373  0.1149 -0.3161
15061W        W31195  16.110  15.758  12.071 -0.3935  0.2123 -0.3451
15062W        W31196  17.317  14.376   0.931 -0.2883 -0.0389  0.2020
15063W        W31197  10.061  15.250   2.959 -0.1760 -0.1289  0.1718
15064W        W31198   5.154  10.331   5.141 -0.3843  0.1074 -0.2750
15065W        W31199   1.706   8.812  12.539  0.2226 -0.0182  0.1732
15066W        W31200  10.956  16.415   1.826  0.0211 -0.0826  0.0315
15067W        W31201  13.998   7.626   3.049 -0.1382  0.1930  0.2650
15068W        W31202   8.913   2.292  13.716 -0.0583 -0.1708 -0.3731
15069W        W31203   1.286   1.048   5.084 -0.2154  0.3523 -0.1777
15070W        W31204  13.992   7.565  15.008  0.3197 -0.1621  0.1122
15071W        W31205   9.956  12.979   2.546  0.3334  0.1560 -0.0334
15072W        W31206   9.844   4.458  13.352 -0.2536 -0.2873 -0.2501
15073W        W31207   3.435  10.500  12.845  0.1862 -0.3544  0.0460
15074W        W31208   8.008  10.467   0.657 -0.0937  0.2083  0.0796
15075W        W31209   3.136   3.941  15.841 -0.0126  0.0046 -0.2616
15076W        W31210  12.757  15.875   0.148 -0.0327  0.0407 -0.1093
15077W        W31211   7.615   6.662  13.871  0.0892 -0.3354  0.0045
15078W        W31212  12.921   7.701  15.142 -0.2786 -0.0237 -0.2651
15079W        W31213   1.106   0.095   6.286  0.0351  0.1360 -0.2310
15080W        W31214  10.831  15.456  13.785 -0.3280 -0.0494 -0.1731
15081W        W31215  17.628   0.694  11.735 -0.0929 -0.2417 -0.1130
15082W        W31216   7.769   4.954   5.614 -0.1192  0.5645  0.1540
15083W        W31217  11.476  15.453   5.771  0.2612 -0.2436  0.2596
15084W        W31218   1.786  11.049  16.119 -0.0579  0.0526  0.2411
15085W        W31219   0.556   5.889   2.588 -0.1095 -0.0714 -0.2834
15086W        W31220  12.669   6.350  14.332  0.2175  0.0941  0.0115
15087W        W31221   8.795   9.049  13.464  0.1033 -0.4755  0.1770
15088W        W31222   3.846   3.129  15.523 -0.1494 -0.0635 -0.1143
15089W        W31223   4.427  10.599  14.504  0.2406  0.2627 -0.2377
15090W        W31224  10.897   1.957   5.440  0.0091  0.0707 -0.2766
15091W        W31225   8.170   2.792  14.126 -0.0677 -0.0705 -0.1268
15092W        W31226   6.566   6.846  13.712  0.1427  0.1407 -0.0408
15093W        W31227   8.378   9.071   2.994 -0.1615  0.1833 -0.0618
15094W        W31228   5.578   2.932  15.409 -0.0970 -0.1196  0.1402
15095W        W31229   9.276  15.070   2.270 -0.1674 -0.0777  0.0605
15096W        W31230  12.694  12.872   1.280  0.0335 -0.0547  0.0604
15097W        W31231   5.040  14.354   1.574 -0.0387  0.0074  0.0710
15098W        W31232   2.078   9.251  16.406 -0.0446 -0.2529 -0.0272
15099W        W31233   5.734   5.300  14.506 -0.3780  0.1019  0.0593
15100W        W31234  12.375   1.851   0.238 -0.1110 -0.0070 -0.4701
15101W        W31235   5.595  10.679   0.416 -0.0218  0.3434 -0.1713
15102W        W31236  17.971   3.153  11.365  0.0163 -0.1308 -0.1514
15103W        W31237   1.097   5.560   5.863  0.1032  0.2570 -0.2934
15104W        W31238  11.630   4.856   3.566 -0.0322 -0.0515 -0.1188
15105W        W31239   9.513  16.520  13.992  0.0956 -0.0788 -0.0850
15106W        W31240  13.585  13.230  13.350  0.2734 -0.0105 -0.0776
15107W        W31241   3.643   2.190  15.959 -0.0977 -0.1568 -0.0394
15108W        W31242  15.779   4.194   1.971 -0.2240 -0.1455  0.0361
15109W        W31243  17.301  15.786   4.996  0.1276 -0.2236  0.0051
15110W        W31244   1.505   8.109  11.773 -0.3785 -0.0063  0.0134
15111W        W31245   3.541   2.348   2.175  0.0164  0.0793 -0.0191
15112W        W31246  15.910   0.157   1.336 -0.3765  0.2178 -0.1522
15113W        W31247  14.274  15.235   3.559 -0.0933 -0.0020  0.1556
15114W        W31248   0.744  12.220   2.189  0.0761 -0.0075 -0.1138
15115W        W31249  12.539  18.172   3.605  0.0237  0.1017  0.0627
15116W        W31250   5.189   9.880   0.081 -0.0645 -0.0404  0.0883
15117W        W31251   3.708  10.731   2.889  0.1335 -0.3015 -0.0423
15118W        W31252  12.378   0.801  16.174 -0.0124 -0.2845  0.2936
15119W        W31253   9.457   2.235   5.368 -0.4153 -0.3887  0.2018
15120W        W31254   7.299   5.790  16.353 -0.1735 -0.0693  0.1603
15121W        W31255   7.387  16.378   3.225 -0.2908 -0.0068 -0.1180
15122W        W31256   5.977  12.274   4.887  0.2459 -0.1661  0.1738
15123W        W31257   0.723  13.185   5.494 -0.0467  0.0640  0.1825
15124W        W31258  10.920  15.525   1.694  0.3953 -0.2521 -0.0853
15125W        W31259   0.683  16.813  11.743 -0.1403 -0.2941  0.3537
15126W        W31260  10.954   9.502  13.872  0.1965 -0.0662  0.3657
15127W        W31261  17.294  15.367  13.609  0.0104 -0.0046  0.0614
15128W        W31262   8.530   0.380   1.969  0.1039  0.1264 -0.1633
15129W        W31263  17.553  13.897  13.158  0.3544 -0.0483  0.1110
15130W        W31264  10.733   4.872   6.003  0.0498  0.5019  0.2568
15131W        W31265   6.126  13.554   3.985 -0.2436 -0.0199  0.1200
15132W        W31266   0.714   6.977  13.372  0.0871 -0.0648 -0.0985
15133W        W31267  16.894   6.602  15.010 -0.1102  0.0527 -0.2815
15134W        W31268   0.863  11.562   0.476 -0.1395  0.1644  0.0815
15135W        W31269   1.313  12.001  12.451  0.0181  0.1409 -0.1129
15136W        W31270   7.426  13.962  14.229 -0.2180 -0.2111 -0.0358
15137W        W31271  10.867  16.895   2.337  0.2876 -0.0902  0.1182
15138W        W31272   0.947   0.790   3.348 -0.2881 -0.0124  0.0123
15139W        W31273  15.585  12.459   1.460  0.0935 -0.1708  0.3436
15140W        W31274   7.197  16.109  13.353 -0.1158 -0.1060  0.0438
15141W        W31275  12.983   6.406   2.181 -0.1022 -0.2162 -0.2185
15142W        W31276   2.818  10.453   5.081 -0.2279 -0.0540 -0.2239
15143W        W31277   4.865   0.386   3.491 -0.0396  0.1345 -0.0605
15144W        W31278   6.502  12.770  14.320 -0.3133 -0.0552 -0.0298
15145W        W31279   1.054  13.065   3.806 -0.1070  0.2237 -0.3722
15146W        W31280   9.546   6.813   1.543  0.0642  0.0778  0.1080
15147W        W31281  14.008   3.170   5.993 -0.2407 -0.1957 -0.0787
15148W        W31282   5.178  14.520  14.013 -0.2500  0.2834  0.0371
15149W        W31283  11.842   5.794   1.982 -0.1280  0.1905 -0.2212
15150W        W31284   3.959   5.119   4.227  0.3412  0.0531  0.0328
15151W        W31285   7.106   5.185   2.320 -0.1007  0.2769 -0.1067
15152W        W31286   0.827  10.710  12.908 -0.3084  0.0672 -0.2468
15153W        W31287  12.210   2.613   2.640  0.1554 -0.3468 -0.3167
15154W        W31288  13.214   5.179   5.917 -0.0333  0.2055  0.2056
15155W        W31289  17.843   4.103   3.574 -0.0510 -0.6276  0.1264
15156W        W31290   3.708  16.426   2.418 -0.1890 -0.0826  0.1032
15157W        W31291   7.077   3.728  13.580  0.0675 -0.1203  0.1282
15158W        W31292   1.775   1.089   3.551  0.0448  0.0080 -0.3345
15159W        W31293  13.499  16.895  14.014  0.1976 -0.1410  0.2000
15160W        W31294   2.783  10.353   4.173  0.1772 -0.0814  0.1929
15161W        W31295   2.408  10.420  12.264 -0.2105 -0.4891  0.0573
15162W        W31296  14.833   5.493  11.230  0.0296 -0.1275 -0.1559
15163W        W31297   2.971   6.598   0.573 -0.1178 -0.2417  0.0830
15164W        W31298  10.579   7.617   1.695 -0.0602  0.2950  0.0367
15165W        W31299   1.941   2.688  11.871 -0.0256 -0.0207  0.2376
15166W        W31300  17.229   5.186   3.817  0.0422 -0.0109 -0.0775
15167W        W31301  11.845   8.858   0.009  0.0241 -0.0495  0.4310
15168W        W31302  13.008  12.665  13.643 -0.0518 -0.2402 -0.4049
15169W        W31303   4.036  10.026   4.540 -0.0215  0.2488  0.0915
15170W        W31304   1.925   8.240   1.219 -0.3365 -0.1514 -0.1513
15171W        W31305  12.609   3.546   2.925 -0.2383 -0.1465  0.1206
15172W        W31306  15.916   4.399  12.763  0.1007 -0.1120 -0.0140
15173W        W31307   4.580   1.480   3.025  0.0612  0.1187 -0.0918
15174W        W31308   4.739  15.543   0.095  0.1128  0.0815 -0.0647
15175W        W31309  13.488  15.996  14.087  0.1887 -0.1101  0.0678
15176W        W31310   4.186   0.206   4.387  0.3158 -0.0870 -0.2224
15177W        W31311  12.913   9.339   0.949  0.2805  0.1277  0.2664
15178W        W31312  13.540  14.789   2.953  0.0614  0.1335  0.0147
15179W        W31313   0.332  17.363  15.521 -0.4393 -0.1992  0.2002
15180W        W31314   0.636   1.103  16.241 -0.1981 -0.2014  0.0078
15181W        W31315  13.807  13.726   0.254 -0.0206  0.1021 -0.0569
15182W        W31316  11.433   7.724   4.881 -0.0891 -0.0556 -0.1026
15183W        W31317  11.355   4.275   4.977  0.3578  0.4401  0.1956
15184W        W31318  16.524   5.196  14.685 -0.3281  0.0952 -0.0904
15185W        W31319   5.706   6.930  11.088 -0.2527 -0.0712  0.1054
15186W        W31320   1.253   9.617  13.394  0.0287 -0.0567 -0.0783
15187W        W31321  10.993  17.166   0.249 -0.2385 -0.0102 -0.0584
15188W        W31322  18.078   2.010  15.586 -0.1783 -0.1195 -0.1989
15189W        W31323   8.232   9.019  16.183 -0.1209 -0.0935 -0.2888
15190W        W31324   0.547   5.300  11.965  0.2369 -0.1352  0.0455
15191W        W31325   1.388  13.413  11.889 -0.0620 -0.0364  0.3242
15192W        W31326   4.712   3.643   4.158 -0.0597  0.0599 -0.0097
15193W        W31327   9.442   7.867  15.006  0.1809 -0.0047  0.0675
15194W        W31328   6.482  10.669  15.539 -0.1308 -0.1281  0.0639
15195W        W31329  11.734  17.395  12.420  0.1785 -0.2568  0.1975
15196W        W31330   3.344  17.933  13.261 -0.1188  0.2853  0.1766
15197W        W31331   9.622   7.227  13.325 -0.1277 -0.0578 -0.2212
15198W        W31332   6.136   0.553   4.001 -0.3113  0.1672 -0.2805
15199W        W31333   9.709  11.785  12.775  0.1949  0.1650 -0.0166
15200W        W31334   5.722  16.020   0.792 -0.5773  0.1110 -0.1186
15201W        W31335   5.265   1.525   3.943 -0.1180 -0.0912 -0.1947
15202W        W31336  16.381  14.342  15.020 -0.2647 -0.0872  0.0695
15203W        W31337  16.321   3.640  13.098 -0.2280  0.2213  0.1726
15204W        W31338   6.768   8.133  10.887 -0.0431 -0.0662  0.2931
15205W        W31339   7.187   6.032   1.227 -0.0796 -0.0178  0.3303
15206W        W31340   1.318   4.620  15.839 -0.1358  0.1346 -0.0648
15207W        W31341  12.221   8.394   3.791 -0.0603  0.2281 -0.0194
15208W        W31342   4.207   0.393   0.010 -0.2138  0.0605 -0.0015
15209W        W31343  17.120   3.340  11.960  0.2053  0.1015 -0.0651
15210W        W31344   3.650   9.691  12.155  0.0862 -0.0432 -0.2052
15211W        W31345   7.511  16.932  13.426 -0.1664  0.0630  0.1155
15212W        W31346  17.351   9.769   3.015  0.1160  0.0111  0.1485
15213W        W31347   3.305  16.675   6.105 -0.2598  0.2275 -0.1117
15214W        W31348  12.424   5.737   4.288  0.1794  0.0807  0.0523
15215W        W31349  16.143  16.105  15.801 -0.4085  0.2698  0.1035
15216W        W31350  10.421   8.808   2.045  0.0150  0.1894 -0.1039
15217W        W31351  14.073  17.326   1.838  0.2768  0.0647  0.0695
15218W        W31352   4.911   9.089  12.280  0.5180  0.0948  0.1413
15219W        W31353  16.111   5.738   5.022 -0.2454 -0.3364 -0.3257
15220W        W31354   2.402  17.994   0.604  0.0112  0.1862 -0.0663
15221W        W31355   3.411   6.142   3.809  0.1932 -0.1688 -0.1665
15222W        W31356   5.602   3.242   5.096 -0.3349 -0.3037  0.2126
15223W        W31357   4.779  11.644   5.905 -0.1348  0.0320  0.2375
15224W        W31358   9.565  15.997   0.200 -0.1030  0.0552  0.0062
15225W        W31359   4.141  15.818   4.823  0.0140  0.0190  0.2231
15226W        W31360   3.408   8.954   1.968  0.1665 -0.0395 -0.0486
15227W        W31361  16.773  11.380   1.790  0.1094 -0.0457  0.1615
15228W        W31362  12.929   6.082  15.032  0.2377 -0.0382 -0.2813
15229W        W31363   2.092  17.384   3.973  0.1490 -0.2317 -0.0885
15230W        W31364   2.976   7.199  14.930 -0.1844  0.3718 -0.1230
15231W        W31365  16.003  17.068  15.399  0.0039  0.0574  0.0406
15232W        W31366  16.111   4.235   3.476 -0.4497  0.0996 -0.0159
15233W        W31367  17.019   0.209  12.822  0.0878  0.2915  0.1543
15234W        W31368  13.768   8.261  10.960 -0.0440  0.0977 -0.0698
15235W        W31369  11.623  12.454  12.408  0.1069 -0.3843 -0.1141
15236W        W31370   4.475  17.390  15.113  0.2311 -0.2541 -0.1027
15237W        W31371  11.562   0.004  13.802  0.0490  0.0624 -0.0675
15238W        W31372   3.356   6.471   0.906  0.1532  0.2000  0.4844
15239W        W31373  15.814   7.250   5.807 -0.1689  0.1699 -0.2179
15240W        W31374   1.439   2.072   4.514  0.1341  0.0551  0.2718
15241W        W31375  16.554   7.038  11.765 -0.0413  0.1200 -0.0283
15242W        W31376  14.133  13.313  13.416  0.0835  0.3394  0.0942
15243W        W31377  16.930   9.394  13.320 -0.1415  0.2680  0.0138
15244W        W31378   7.710   3.449  15.976 -0.1723 -0.2409  0.0921
15245W        W31379  13.769  13.305  13.845 -0.1455 -0.0946 -0.1075
15246W        W31380   7.228   0.190  12.369  0.0636 -0.1105 -0.1834
15247W        W31381  10.150  13.510   0.763 -0.1485 -0.0335  0.0756
15248W        W31382   2.708   4.446   5.359  0.1189  0.0019 -0.0725
15249W        W31383   2.032  15.381  11.788  0.0568  0.2621 -0.0301
15250W        W31384  17.913  17.381  11.768  0.4000 -0.0059 -0.4785
15251W        W31385  12.957  16.450  12.042  0.2781 -0.1096  0.1372
15252W        W31386   8.187   5.406   3.221  0.0151 -0.2082 -0.0199
15253W        W31387   3.416   9.336   2.422 -0.0826 -0.3275  0.1505
15254W        W31388  12.707  11.257  14.380 -0.0493 -0.2110  0.3715
15255W        W31389  12.293   1.864  12.367 -0.0791 -0.3004  0.3591
15256W        W31390  17.514  15.356  14.855  0.4509  0.0986 -0.2727
15257W        W31391  17.171   4.706  13.475 -0.3941  0.0378 -0.2069
15258W        W31392  11.991  17.834  13.700 -0.0981 -0.1408 -0.0533
15259W        W31393  17.081   0.673  15.652  0.1128  0.2994  0.0134
15260W        W31394   9.558   3.095  16.299 -0.0923 -0.0636 -0.1357
15261W        W31395   5.551  17.948  13.657 -0.2736  0.2567 -0.1976
15262W        W31396   2.935  12.658  15.621 -0.0705 -0.0183  0.3481
15263W        W31397   4.122  17.895   4.749 -0.0989  0.1656 -0.0924
15264W        W31398   2.263   0.951   4.057 -0.1196  0.1156  0.2409
15265W        W31399   7.444   8.343   0.737 -0.2219  0.3462  0.1321
15266W        W31400   0.514   4.633   3.762  0.0501  0.2026 -0.1165
15267W        W31401   8.065   8.201  15.664  0.1208 -0.0073 -0.0032
15268W        W31402   1.826   3.854  16.341  0.0229 -0.2225  0.0368
15269W        W31403   2.102  15.732  15.852 -0.1406  0.1172  0.3091
15270W        W31404  13.217  18.090  14.526  0.1298 -0.1420  0.0227
15271W        W31405   7.493   2.905   1.454  0.1518  0.3333  0.3070
15272W        W31406  17.289   5.467   2.664 -0.0115  0.1182  0.1495
15273W        W31407   7.669   8.141   1.148 -0.0748  0.0176 -0.0533
15274W        W31408   4.891   0.905  11.321  0.3169 -0.2282 -0.0040
15275W        W31409  12.747   3.394  13.802 -0.0155  0.0801 -0.1907
15276W        W31410  12.857  17.346   5.641  0.0272 -0.0848  0.0370
15277W        W31411  17.825   6.337   0.125  0.1261 -0.4507  0.0095
15278W        W31412  12.521   1.871   0.802  0.4784  0.0413 -0.0321
15279W        W31413   7.486  12.702   1.458  0.4740  0.0388 -0.0499
15280W        W31414  18.083  11.303   3.987  0.1162  0.3263 -0.1963
15281W        W31415  16.366   6.017  13.127 -0.0563 -0.0500 -0.1561
15282W        W31416  12.773  12.659   2.200  0.0220 -0.1477 -0.1480
15283W        W31417   3.437   0.742   0.672 -0.1370  0.0230 -0.1383
15284W        W31418   0.364  10.753   0.340 -0.1057  0.0353 -0.1723
15285W        W31419  14.852   2.114   2.940 -0.1278 -0.4301  0.0832
15286W        W31420  15.290   3.757   0.827 -0.2918  0.1468  0.0607
15287W        W31421  11.594   7.238   0.144 -0.3526 -0.1558 -0.3000
15288W        W31422   1.703   2.369  13.208 -0.1858 -0.0959  0.1973
15289W        W31423  11.700   1.411   1.125 -0.1870 -0.0889  0.1499
15290W        W31424   4.973  11.313  15.563  0.2019 -0.0900 -0.0919
15291W        W31425  16.611  17.763   3.076  0.2748  0.1065 -0.0014
15292W        W31426   1.698   1.311  15.994 -0.3931  0.3613  0.4880
15293W        W31427   9.431   9.838   1.852 -0.1175  0.2300 -0.0002
15294W        W31428   7.990  14.766   0.744 -0.4338 -0.0669 -0.4945
15295W        W31429   4.421   5.124   4.964  0.2095 -0.0301  0.2374
15296W        W31430   0.824  15.764  12.742 -0.0620 -0.1068 -0.1174
15297W        W31431  16.247  17.209   2.573  0.0314 -0.0863 -0.0043
15298W        W31432   0.081   6.455   4.817 -0.0566  0.2136 -0.2041
15299W        W31433   0.417  10.343  15.347  0.0651 -0.0803  0.1240
15300W        W31434  11.189   4.226  14.820 -0.4016  0.3298 -0.1618
15301W        W31435   6.673  13.631  13.743 -0.3420 -0.1858 -0.1165
15302W        W31436  12.182   9.327   3.480 -0.0586 -0.2284  0.1055
15303W        W31437   7.380   8.324   3.705 -0.2471  0.0299 -0.0532
15304W        W31438   3.763  17.893   2.381  0.0859  0.1967 -0.1545
15305W        W31439  17.334   9.986   2.552  0.2641 -0.2993 -0.0488
15306W        W31440   5.420   1.531   4.735  0.0703  0.0111 -0.4237
15307W        W31441  14.941   6.209   0.041 -0.0648 -0.0704  0.1122
15308W        W31442  17.497  11.795   5.643  0.0386 -0.1662  0.0202
15309W        W31443   0.330   9.285   1.502 -0.1132  0.3384 -0.0572
15310W        W31444   2.391  17.906   0.035  0.2903  0.1819  0.1204
15311W        W31445  14.007   0.900   2.122  0.1149 -0.2294 -0.1947
15312W        W31446   7.267  16.006   0.917  0.0743 -0.2596 -0.0529
15313W        W31447  14.586  17.614  14.780  0.1324 -0.0104  0.2544
15314W        W31448   1.146   7.448   2.402  0.0057 -0.3795  0.2544
15315W        W31449   6.244   0.545   2.769  0.3140  0.1186 -0.2800
15316W        W31450  15.462  13.460   2.693  0.1132  0.2464  0.2360
15317W        W31451  17.276   4.570   0.125 -0.0253 -0.0863  0.0221
15318W        W31452   4.800   6.352  10.353  0.0954 -0.2738  0.1436
15319W        W31453  17.415   9.092   1.539  0.0442 -0.1008 -0.0645
15320W        W31454   8.982   4.713  12.368  0.1165 -0.2298 -0.0864
15321W        W31455   0.890  17.111  12.707  0.3989  0.1857  0.0224
15322W        W31456   7.796  11.421  13.191 -0.0433 -0.0249  0.1218
15323W        W31457  17.202  13.168   0.335 -0.0668  0.1880  0.2683
15324W        W31458   4.961   5.359  16.118  0.1896  0.3302 -0.1187
15325W        W31459  18.045   3.511   2.865 -0.1288  0.3807  0.4913
15326W        W31460  16.588   3.590  12.069  0.2542  0.0003  0.1029
15327W        W31461  14.016  13.741  12.494 -0.0393 -0.1636 -0.2820
15328W        W31462   4.538   4.993   2.536  0.1409 -0.3063 -0.1433
15329W        W31463  17.889   1.093   4.513  0.1141 -0.0922 -0.0442
15330W        W31464  15.199  15.513   3.129  0.0910 -0.0519  0.1704
15331W        W31465  15.415  10.018  11.627  0.0314  0.1034  0.0438
15332W        W31466   9.137   3.309  12.393  0.1235 -0.2098 -0.1731
15333W        W31467   5.134   4.938   1.574 -0.1685  0.1667 -0.1646
15334W        W31468  13.832  15.871   1.676 -0.0922 -0.0377  0.0664
15335W        W31469   8.569   2.367  15.556  0.0112 -0.1097  0.0725
15336W        W31470   2.269  13.997  13.506  0.0723 -0.1847  0.1596
15337W        W31471   1.301   8.566   4.659 -0.2387 -0.3145 -0.1909
15338W        W31472  17.661   4.949  15.462  0.1970  0.0898 -0.0110
15339W        W31473   2.779  11.366  11.640 -0.0490  0.0241  0.1620
15340W        W31474   1.647   5.795  16.020 -0.0033  0.0641  0.1142
15341W        W31475   5.050  13.555  15.501 -0.1538 -0.2003  0.1256
15342W        W31476  17.473  12.064  13.487 -0.2010 -0.0440  0.0947
15343W        W31477   9.669   0.068  13.084  0.0102  0.1428  0.2220
15344W        W31478  13.918   2.153   3.282 -0.2382  0.0110 -0.1700
15345W        W31479  16.604  17.532   3.538 -0.0738  0.2325  0.1665
15346W        W31480   7.800   1.550  12.847  0.0207 -0.2319 -0.1983
15347W        W31481   2.824   3.311  12.285 -0.1604 -0.2351  0.1741
15348W        W31482  17.168  16.477   1.145  0.1659  0.1857 -0.1197
15349W        W31483  11.645   4.151  16.088 -0.0993  0.1320 -0.1528
15350W        W31484  11.349  17.345   1.356 -0.1802 -0.3404  0.0246
15351W        W31485   2.884   1.726  12.883  0.0488 -0.2010 -0.0920
15352W        W31486   3.715  14.321  13.235 -0.1247  0.1016 -0.3046
15353W        W31487   9.193   9.120  11.846  0.0517 -0.0040  0.0965
15354W        W31488  13.891   9.358  11.800  0.1007  0.0151 -0.0615
15355W        W31489  10.307  14.199   0.424 -0.1114  0.2610 -0.2495
15356W        W31490  13.172  10.646   4.539 -0.0192 -0.1660  0.0409
15357W        W31491  15.264   0.807   0.670  0.2052 -0.0485  0.0784
15358W        W31492   4.782   0.081  16.212  0.2595  0.1843 -0.2383
15359W        W31493  10.470   7.588  15.824  0.1347  0.2495 -0.1977
15360W        W31494  12.386  11.074  16.185 -0.0689 -0.1384  0.0149
15361W        W31495  10.355  13.289  13.862 -0.3072  0.0125  0.1873
15362W        W31496  15.175   1.080  13.885  0.1901  0.0985 -0.1680
15363W        W31497  17.368   5.572  12.763 -0.0943  0.0250 -0.0518
15364W        W31498   4.179   2.301  13.050  0.2993  0.1787 -0.1065
15365W        W31499   5.209  13.672  11.159 -0.0532 -0.0160  0.2259
15366W        W31500   7.616   1.240  14.826  0.0169  0.0686 -0.0343
15367W        W31501  11.335  16.270   3.917 -0.0169 -0.2215  0.1260
15368W        W31502  15.330  14.792   2.210 -0.0569  0.3050  0.1830
15369W        W31503  14.760  12.483  13.497 -0.0456 -0.0883  0.2208
15370W        W31504  17.109  17.842   0.936 -0.3643  0.0979 -0.3276
15371W        W31505   1.837  15.522   0.991 -0.2738  0.3901 -0.2461
15372W        W31506  16.090  16.538  15.521  0.0044  0.1807 -0.1442
15373W        W31507   7.670   2.571  11.626 -0.1082  0.2494  0.0350
15374W        W31508   6.894  16.997   5.007  0.1189 -0.0950 -0.1837
15375W        W31509   2.457  11.419  15.831 -0.0027  0.1190 -0.3540
15376W        W31510   0.852  16.504  14.573 -0.3468 -0.0223  0.0567
15377W        W31511  10.703   3.343  15.066  0.1017 -0.1851  0.2410
15378W        W31512  16.453  11.462   2.685 -0.2176  0.2714  0.1521
15379W        W31513  15.186   7.735  15.863  0.0656  0.5095 -0.1899
15380W        W31514  14.510  12.790  11.823 -0.1570  0.1408 -0.1231
15381W        W31515   5.989  11.286  12.685 -0.0673 -0.3204 -0.0007
15382W        W31516   7.397   2.056  15.203 -0.1401  0.1921 -0.0281
15383W        W31517   4.875  17.954   1.976 -0.0748  0.1023 -0.0762
15384W        W31518   6.434  17.217   0.916  0.0339 -0.0980  0.1865
15385W        W31519   6.409   3.573   1.880  0.2343  0.3305  0.1011
15386W        W31520   4.728   7.070   3.720 -0.1006  0.3786 -0.1592
15387W        W31521   1.958  12.689   1.114 -0.0301  0.2798  0.1575
15388W        W31522  17.836   5.061  14.537 -0.1220 -0.5186  0.2524
15389W        W31523   5.021   8.935   4.338  0.3918 -0.2437  0.0053
15390W        W31524   0.497  11.859   3.457 -0.1068  0.1092  0.0586
15391W        W31525   0.010  14.364   2.473 -0.3436  0.3244 -0.1153
15392W        W31526  10.485   4.115   1.610  0.1428  0.2074  0.0226
15393W        W31527  17.308   2.563  16.002 -0.1312  0.3028  0.1529
15394W        W31528  16.884   7.567  12.395  0.2170  0.0462 -0.0194
15395W        W31529  13.153   0.742   3.434  0.0540 -0.0107  0.0584
15396W        W31530   1.586  12.622   0.180 -0.1308 -0.0293  0.1327
15397W        W31531   1.895  14.761  15.054  0.2957  0.0347  0.2724
15398W        W31532   4.285   3.592   1.601  0.1720 -0.0068  0.0728
15399W        W31533   7.897  14.174  12.208 -0.0819  0.1969 -0.0885
15400W        W31534   0.224  11.104   0.866  0.2852 -0.0463 -0.2310
15401W        W31535  13.361   5.995   4.292 -0.0388  0.2579 -0.0515
15402W        W31536  17.910   6.927   4.917 -0.1898 -0.2976 -0.1103
15403W        W31537  15.596  12.602   4.651 -0.1593  0.0984  0.1409
15404W        W31538   3.984  14.265   2.315  0.0143  0.1571  0.3957
15405W        W31539  13.472   3.747   0.783  0.2043 -0.4584  0.2288
15406W        W31540  17.049  12.871   4.087 -0.1750 -0.1571  0.1865
15407W        W31541  11.196   8.174  11.838 -0.1247 -0.0787 -0.2936
15408W        W31542   7.169  15.521   4.066 -0.0640  0.1713  0.2349
15409W        W31543  16.484  11.661  15.983 -0.0221 -0.0677  0.0447
15410W        W31544  15.256  18.030   3.247  0.1061 -0.1851  0.0269
15411W        W31545   7.583   1.399   4.240 -0.1907 -0.4423 -0.0929
15412W        W31546   3.468  11.514   3.233  0.1837 -0.1219  0.0633
15413W        W31547   2.524  17.925   3.595 -0.0686  0.2220 -0.1032
15414W        W31548  14.067   4.684   1.697 -0.1681 -0.0802 -0.0069
15415W        W31549  15.497   1.241  11.580 -0.3496 -0.1575  0.3609
15416W        W31550   2.460   4.596  15.910 -0.0712  0.2237  0.0912
15417W        W31551   4.691  14.942   4.518 -0.1439  0.0207 -0.0919
15418W        W31552   8.772   8.253   0.826 -0.1453 -0.2125 -0.1499
15419W        W31553  12.708  15.445   0.385 -0.2200  0.1544  0.0936
15420W        W31554  16.540   1.702   3.753 -0.0725 -0.0940 -0.1290
15421W        W31555  14.015  14.653  10.982 -0.3919 -0.0570 -0.1235
15422W        W31556   6.216  13.345  11.808  0.2597  0.1871 -0.1509
15423W        W31557   1.417  16.845  13.289 -0.0832 -0.0248 -0.0571
15424W        W31558  16.789   9.083  10.893  0.0247 -0.0795  0.0297
15425W        W31559   5.522   2.779  14.218 -0.0231 -0.1012 -0.0184
15426W        W31560  13.965   2.883   2.893  0.5309 -0.3107 -0.2681
15427W        W31561   7.144   9.288  13.664  0.0333  0.0161  0.0437
15428W        W31562   4.475  11.086   3.825  0.0916  0.4058  0.0698
15429W        W31563  14.688  15.853   3.206  0.1424 -0.2163 -0.3840
15430W        W31564   6.254  12.567   0.851  0.1313  0.1366  0.4928
15431W        W31565   5.193  13.505   0.407  0.0425  0.0835  0.0086
15432W        W31566   3.666   2.521   6.022  0.1403  0.0544 -0.3706
15433W        W31567   1.860   9.788  10.527 -0.2119  0.2314  0.1310
15434W        W31568   6.062  12.594  15.085 -0.0758  0.0773 -0.0201
15435W        W31569  17.631  15.156   3.380  0.0599 -0.0955  0.1358
15436W        W31570  11.534   8.970  13.115 -0.2669  0.2749  0.0335
15437W        W31571   6.099  14.569  16.345  0.2070  0.1102 -0.0593
15438W        W31572   6.079   1.477  13.658 -0.1171 -0.0784 -0.0253
15439W        W31573  16.230   2.530  14.318 -0.0217  0.0111 -0.2350
15440W        W31574   5.333   7.254   3.163 -0.3247 -0.2802  0.4213
15441W        W31575  10.827  17.080  12.936 -0.1129 -0.0851  0.0121
15442W        W31576   9.462   4.860   5.161 -0.2376 -0.0623 -0.2413
15443W        W31577  11.385  11.903   5.406 -0.0061 -0.3088 -0.0274
15444W        W31578   4.885  15.305   2.582 -0.2114  0.0914 -0.4161
15445W        W31579   0.213  13.395  16.179  0.0952 -0.1289  0.3215
15446W        W31580  14.704   9.174  13.350  0.1584 -0.2329 -0.4041
15447W        W31581   1.433  17.830   4.176 -0.0123 -0.0431  0.0308
15448W        W31582   3.733   5.438   2.639 -0.2662 -0.5228  0.0669
15449W        W31583   0.713  13.882   2.637  0.4237  0.2367  0.1822
15450W        W31584   7.155   6.347  13.850  0.0858  0.3961  0.3955
15451W        W31585   3.662   0.724   1.546 -0.2335 -0.1451 -0.0302
15452W        W31586   9.003  17.981  16.457 -0.2708  0.0611 -0.0892
15453W        W31587   8.191  15.689  14.282  0.0012  0.0064  0.0770
15454W        W31588  12.563   4.707   1.233  0.2685  0.1714 -0.0779
15455W        W31589   4.924   8.225  14.332  0.2966  0.0465 -0.0629
15456W        W31590   6.918   1.712  14.243  0.2740 -0.1903 -0.1483
15457W        W31591   7.019   5.014   6.367 -0.0374 -0.1069 -0.2601
15458W        W31592   6.323  13.789   3.189 -0.0080  0.1744 -0.1022
15459W        W31593   0.822   1.499  16.438  0.2745  0.0057  0.1937
15460W        W31594   5.279   4.593   4.557 -0.2403 -0.0865  0.5255
15461W        W31595   5.758  15.709   0.053  0.2552 -0.0245 -0.0269
15462W        W31596   2.780   4.234  13.140 -0.0986  0.0947 -0.1887
15463W        W31597   3.335   5.748   1.476 -0.2581 -0.0652 -0.3425
15464W        W31598  10.136  12.918   1.578 -0.0072  0.0609 -0.1885
15465W        W31599   1.050   0.266  15.175  0.1013 -0.0970 -0.1314
15466W        W31600   0.517   6.134  14.671 -0.1942  0.2981 -0.0362
15467W        W31601   7.640  12.803   4.853 -0.2234  0.0246 -0.1666
15468W        W31602   0.958  15.674  13.601  0.3041 -0.2562  0.3323
15469W        W31603   3.427   4.177   1.984 -0.2251  0.1234 -0.2244
15470W        W31604  14.102  11.061   1.423 -0.4194  0.0441 -0.0177
15471W        W31605  14.572   0.439  16.094 -0.1188 -0.0483  0.0067
15472W        W31606   6.229  10.142  11.016 -0.0188  0.2318  0.0410
15473W        W31607   1.787   6.141  13.664 -0.1593 -0.0017  0.1743
15474W        W31608   2.722  13.483  10.618 -0.0683  0.1688 -0.0211
15475W        W31609   7.280   0.956   0.979 -0.0983 -0.2589 -0.0625
15476W        W31610   1.507  13.743  13.186 -0.1068  0.2336  0.2471
15477W        W31611   7.381   2.360   1.689 -0.1352 -0.0403  0.0978
15478W        W31612   5.437  14.691   1.395  0.2354  0.1910 -0.1076
15479W        W31613   7.376  17.996   1.481 -0.2291 -0.0574 -0.0488
15480W        W31614   3.958   0.066  13.092  0.0313 -0.1832  0.3689
15481W        W31615   1.617  10.192   5.163  0.1398  0.0628  0.2087
15482W        W31616  12.795  16.055   5.087  0.0205 -0.0198  0.0585
15483W        W31617  11.046   5.842   5.142 -0.0024  0.1662 -0.0827
15484W        W31618  12.884  11.046   1.552 -0.0657  0.0133 -0.0714
15485W        W31619   3.419   8.333  10.814  0.0195  0.1355  0.2010
15486W        W31620   1.726   9.405  13.991  0.3253 -0.1881 -0.0758
15487W        W31621   9.801   6.661  14.922 -0.0461  0.2132 -0.0895
15488W        W31622  11.082  10.305  12.985 -0.0261 -0.1124 -0.2140
15489W        W31623  10.469   7.460   1.130 -0.1844 -0.2802 -0.1223
15490W        W31624  16.210   1.566   2.730  0.0029 -0.2186 -0.1629
15491W        W31625  12.878   1.518   2.257  0.0857 -0.3772  0.0067
15492W        W31626  11.294   3.041   1.900  0.1325 -0.2472 -0.2282
15493W        W31627   0.704   8.035  14.949 -0.0590  0.2987  0.0797
15494W        W31628  16.307  17.499  15.394  0.2515  0.2201  0.1811
15495W        W31629   0.032   2.864  12.680  0.0623  0.3855 -0.0330
15496W        W31630  12.098   7.606  12.223  0.1721  0.1952  0.0995
15497W        W31631   8.981   7.414   2.092  0.1564 -0.0131 -0.2056
15498W        W31632   8.431   1.150   0.217 -0.2622 -0.0017 -0.2184
15499W        W31633  14.255  17.725  13.870 -0.0222  0.1341  0.4200
15500W        W31634   7.535   0.436   5.095 -0.0809 -0.0761  0.0823
15501W        W31635  14.313  14.497   5.948 -0.3200  0.0404  0.0484
15502W        W31636  15.323   7.564   3.099  0.3501  0.0863  0.0255
15503W        W31637  10.876   4.988  14.460  0.0570 -0.2413  0.0624
15504W        W31638  17.798   4.531   2.727 -0.1129 -0.4579  0.1312
15505W        W31639   9.143   9.407  14.795  0.0987  0.1383 -0.0690
15506W        W31640   7.231  11.425   1.537 -0.1522  0.0682  0.0310
15507W        W31641  16.793  13.896   6.636 -0.0734 -0.1131 -0.3282
15508W        W31642  12.863   1.957   3.659 -0.1301 -0.0892  0.1159
15509W        W31643   6.211  13.848  16.165 -0.0682 -0.2380  0.2323
15510W        W31644  12.996  13.054  12.735  0.0452 -0.1905 -0.1114
15511W        W31645  11.598   3.874  13.965 -0.3312 -0.0181 -0.0138
15512W        W31646  12.251   3.067  14.561 -0.2755  0.0630 -0.2726
15513W        W31647   3.635   3.372   2.308 -0.3112  0.1467 -0.1507
15514W        W31648   4.288  15.137   5.481  0.1155 -0.4568 -0.0421
15515W        W31649   6.516   2.047  12.873 -0.1262 -0.0279 -0.1388
15516W        W31650   0.002  15.142  13.761 -0.0617  0.0486 -0.0235
15517W        W31651   9.557   2.293  14.684  0.0102  0.3706 -0.1048
15518W        W31652   2.565   1.664  12.164  0.0807 -0.0483  0.2388
15519W        W31653   3.960   4.449  11.522  0.1808  0.0840  0.1665
15520W        W31654  16.718  15.950  15.518  0.0167 -0.1614 -0.0102
15521W        W31655  13.294  13.502  14.176  0.1224  0.1141  0.0805
15522W        W31656  10.211  14.112  13.418  0.0641 -0.0899 -0.1370
15523W        W31657  13.129  16.738   3.958  0.0361  0.3420 -0.0703
15524W        W31658  17.274  15.908   2.755 -0.2172 -0.0223  0.0948
15525W        W31659  18.153   2.372   4.500 -0.4142  0.2939 -0.0473
15526W        W31660  10.289   2.435  15.929  0.1596 -0.0662 -0.0801
15527W        W31661   1.117  13.635   2.763 -0.0164  0.0771 -0.0488
15528W        W31662  14.802  13.716  12.464  0.1565  0.0070 -0.0332
15529W        W31663   1.542  17.228  13.803 -0.0011  0.2059  0.3266
15530W        W31664   8.204  17.514  13.331 -0.1969 -0.3021 -0.3356
15531W        W31665  16.047   9.238  11.730 -0.4463  0.1192  0.2049
15532W        W31666   6.341  14.706   2.126 -0.0364  0.2799 -0.1340
15533W        W31667  10.222   5.200  12.757 -0.2006 -0.2583 -0.1251
15534W        W31668   2.921  10.389  12.515 -0.0056  0.1180  0.0872
15535W        W31669   7.579   7.094  11.275 -0.2512 -0.2464  0.1520
15536W        W31670   4.334  10.403   0.249 -0.1765 -0.0427 -0.1508
15537W        W31671  12.042   5.505   4.485  0.0399 -0.1372 -0.2408
15538W        W31672  11.246   3.010  12.675  0.0603 -0.1505 -0.1736
15539W        W31673  14.601  15.795   5.471  0.0264  0.3419  0.0015
15540W        W31674   4.094   5.219   1.263 -0.1535 -0.3594  0.0790
15541W        W31675   4.520   0.240  11.956 -0.0903 -0.2891  0.0075
15542W        W31676   1.676  14.915  11.780 -0.2120  0.1066 -0.0688
15543W        W31677   5.355   8.778  12.000 -0.1016  0.0163  0.2459
15544W        W31678   1.127   5.215  12.842 -0.4359  0.1753 -0.2660
15545W        W31679   2.942   2.970   1.700 -0.0350 -0.1304 -0.0650
15546W        W31680  12.602   7.362   4.105 -0.0199 -0.1118  0.0372
15547W        W31681   7.610   9.515  11.918 -0.1327  0.1618 -0.1021
15548W        W31682  17.568  11.299  13.327 -0.1231  0.0515 -0.2171
15549W        W31683  14.508   3.979   0.046  0.0560 -0.2521 -0.2193
15550W        W31684   5.094  10.888  14.137 -0.0967 -0.0106 -0.2089
15551W        W31685   2.491  14.135   2.731 -0.2354 -0.0757  0.0092
15552W        W31686   2.049  11.400  12.284  0.0690 -0.2821 -0.0484
15553W        W31687  13.407   7.891  11.072 -0.3738 -0.0513 -0.3415
15554W        W31688   1.362   5.211  13.323  0.0309 -0.1579 -0.0778
15555W        W31689  17.928   3.856  16.245 -0.1898 -0.0824  0.2489
15556W        W31690   0.633  13.660   5.409 -0.2453 -0.2068  0.1673
15557W        W31691   5.214  10.932  15.400 -0.0798  0.1450  0.0743
15558W        W31692  15.094  15.284  14.447 -0.0582  0.2069 -0.1175
15559W        W31693   1.447   5.997  14.086 -0.0176 -0.3695 -0.0625
15560W        W31694  11.059   2.545   4.822  0.0271 -0.0326 -0.1554
15561W        W31695  10.384   0.613   4.812 -0.0996  0.2038 -0.3446
15562W        W31696  11.127  17.675   2.899  0.2115  0.0242 -0.1860
15563W        W31697   4.416   6.229  12.521 -0.2108 -0.0955  0.1262
15564W        W31698   8.285  10.063   4.996 -0.1357 -0.0653  0.1861
15565W        W31699  13.284   9.047   4.834 -0.1747  0.1195  0.1913
15566W        W31700   9.132  17.605  13.043 -0.0158  0.1960  0.1009
15567W        W31701   8.110  14.221  15.395  0.1646  0.0097  0.3860
15568W        W31702   9.008   2.276   5.727  0.1826  0.0537  0.3170
15569W        W31703  12.888  11.338   5.237 -0.1117  0.4037 -0.0345
15570W        W31704  10.579   4.479  12.204 -0.0335 -0.0406  0.0313
15571W        W31705  11.252   3.388  14.874  0.0229 -0.1349  0.1948
15572W        W31706   5.020   1.811  14.679 -0.3862 -0.1318 -0.0653
15573W        W31707  15.000   4.534  12.110  0.0373 -0.1588  0.1271
15574W        W31708  11.196  10.006  16.109  0.2353 -0.0744 -0.0606
15575W        W31709   8.513   5.834  12.325  0.2718 -0.1042  0.1572
15576W        W31710  17.502  17.057  12.773  0.1489  0.1875  0.1059
15577W        W31711  14.198  12.613   1.356 -0.1320 -0.1127 -0.0120
15578W        W31712   5.544   6.583  12.410  0.1221 -0.1642 -0.3339
15579W        W31713   2.844  15.254  15.553 -0.1248  0.1740 -0.0807
15580W        W31714   9.036  16.786   4.924 -0.3854  0.0158 -0.1116
15581W        W31715   3.163   5.151  10.723  0.1364  0.1703 -0.0737
15582W        W31716   5.568   1.321   3.049 -0.1957 -0.3226  0.1774
15583W        W31717  14.392   2.576   2.885 -0.0354  0.3408  0.0767
15584W        W31718  12.591   9.549  15.231  0.0458 -0.0714 -0.1089
15585W        W31719   9.462  13.882   0.929  0.1266  0.0200 -0.0291
15586W        W31720   2.064   8.819  16.131  0.1958 -0.1056  0.3000
15587W        W31721  16.987  15.800   6.342 -0.1772  0.0541  0.0389
15588W        W31722  17.956   2.920   4.929 -0.1208 -0.1253  0.0646
15589W        W31723  14.254   1.687   4.385  0.1458  0.0314 -0.2053
15590W        W31724   6.375  11.817   5.401  0.1633  0.1331 -0.0328
15591W        W31725   8.686  14.647  13.219  0.0590  0.0454  0.4313
15592W        W31726  13.623  10.213   3.398  0.0179  0.1063 -0.0866
15593W        W31727  14.288   1.621   3.822  0.1055  0.0588 -0.2989
15594W        W31728  13.395   8.105  11.879 -0.2621  0.2321 -0.0691
15595W        W31729  15.795   4.077  12.262 -0.0762  0.1513  0.0945
15596W        W31730   4.714  13.323  16.173 -0.2066  0.0660 -0.1625
15597W        W31731  14.017  13.278   4.071  0.0352 -0.2038 -0.2160
15598W        W31732  10.125  13.884  12.974  0.2338 -0.2495  0.0360
15599W        W31733  15.080   0.041   6.142  0.0938  0.0645  0.1093
15600W        W31734  16.074   8.474   0.038  0.1710 -0.1094 -0.4853
15601W        W31735  10.049  15.016  13.264 -0.0150  0.3141  0.1260
15602W        W31736   1.919   9.647   3.235  0.1928 -0.0634  0.2750
15603W        W31737   1.478  10.622   3.435 -0.1270 -0.4616  0.0509
15604W        W31738  11.805  11.120  14.809  0.2173  0.1087  0.0460
15605W        W31739   0.332   8.382  14.832  0.1528  0.4341 -0.0204
15606W        W31740  12.234  15.985   6.682  0.0199  0.2601  0.2011
15607W        W31741  16.669  11.990  13.467  0.1407  0.0322 -0.2747
15608W        W31742   4.423   6.660   5.309  0.1097  0.3480  0.1434
15609W        W31743   7.500   9.185  12.713 -0.0506  0.1936 -0.1009
15610W        W31744   5.204   5.094   1.158 -0.1086 -0.2075 -0.0586
15611W        W31745   4.829  14.802   2.712 -0.0570  0.0182 -0.1442
15612W        W31746   2.090  10.181  10.961  0.1934 -0.0424 -0.0998
15613W        W31747   1.740   6.009   4.877  0.0692  0.1107  0.0593
15614W        W31748   2.259   7.071   1.116  0.1366 -0.2712  0.2018
15615W        W31749   8.237  12.736   5.906 -0.1045  0.1214 -0.0464
15616W        W31750   2.205   8.725  12.395 -0.0124 -0.4028  0.0808
15617W        W31751  12.913   3.442  11.692 -0.3430 -0.3188  0.1054
15618W        W31752   4.888   9.921   5.050  0.1156 -0.0816  0.3115
15619W        W31753  10.371  14.263   2.432 -0.0539 -0.0895 -0.1512
15620W        W31754  16.364  12.620   4.154 -0.1491 -0.0106 -0.0220
15621W        W31755   4.805   1.098  12.970 -0.2573  0.3105  0.1510
15622W        W31756   0.699  17.764  16.340 -0.4879  0.1813 -0.0153
15623W        W31757   5.490  17.011   0.576 -0.0807 -0.2230  0.3052
15624W        W31758   7.584  11.129  15.493 -0.0312 -0.1054 -0.0931
15625W        W31759  17.823   9.567  16.492  0.0159  0.1444  0.0980
15626W        W31760   8.288   2.483   0.459  0.0430  0.4081  0.2904
15627W        W31761   0.545   8.891   4.737 -0.2047 -0.2737 -0.2002
15628W        W31762  13.251  17.267  15.295  0.1655 -0.0943 -0.0772
15629W        W31763   5.630   7.140   4.688 -0.0033 -0.2746 -0.0592
15630W        W31764   0.966   4.057  12.523 -0.0282 -0.1314 -0.0730
15631W        W31765   5.511   2.794  12.543 -0.1075  0.0302 -0.0604
15632W        W31766   3.683   7.723  15.828 -0.2570  0.1533 -0.3857
15633W        W31767  14.932   6.883  12.222 -0.4752 -0.0403 -0.1737
15634W        W31768  11.897   2.342   0.920 -0.0194 -0.1635  0.2287
15635W        W31769  15.851  14.167  12.050  0.0204  0.4128  0.1086
15636W        W31770  13.411  14.708   0.100  0.0001  0.3174 -0.0336
15637W        W31771   5.888   0.508  14.181  0.1448  0.0436 -0.3315
15638W        W31772  11.830  17.704  12.028  0.1046 -0.0313  0.0476
15639W        W31773   6.932  16.882  14.346  0.0466 -0.1149  0.2442
15640W        W31774   7.933  13.399   4.967  0.0559 -0.1805 -0.0728
15641W        W31775   2.301  11.952   0.119 -0.0298 -0.0940  0.2585
15642W        W31776   3.482  15.072  13.694 -0.0194  0.1125  0.0230
15643W        W31777   7.199   8.194  10.597  0.1818  0.2487 -0.0221
15644W        W31778  15.468   7.928  12.700 -0.1795  0.0762 -0.2098
15645W        W31779   0.167  12.491  15.624  0.1625 -0.2934 -0.0993
15646W        W31780  13.462   6.535   2.188 -0.3198 -0.0436 -0.2136
15647W        W31781   9.328  12.342   4.582 -0.1992 -0.0078 -0.0328
15648W        W31782  15.802   1.897   5.245  0.3891  0.0753 -0.1104
15649W        W31783  16.677   4.867  13.805  0.1820  0.0332  0.3006
15650W        W31784  16.603  11.977   2.561  0.1021 -0.0674  0.1057
15651W        W31785   8.985   1.068   0.111  0.2536 -0.1288 -0.1654
15652W        W31786   4.237   7.614  13.062  0.1976  0.0884 -0.1746
15653W        W31787   6.510  17.942  13.217 -0.1813  0.0309  0.0805
15654W        W31788   2.515  14.071  12.531  0.4303  0.0406 -0.2237
15655W        W31789   2.263   3.726  12.614  0.2515 -0.0763  0.0848
15656W        W31790   1.427  12.562  15.012 -0.2324  0.0954  0.0119
15657W        W31791   5.400   7.849  12.057  0.0952  0.1144 -0.0982
15658W        W31792   8.224   1.978  16.436  0.1644 -0.0484 -0.0997
15659W        W31793  13.772   3.633   1.694 -0.1679  0.0232  0.1158
15660W        W31794  12.924   4.961  14.540 -0.1167  0.1990 -0.1397
15661W        W31795   2.420   3.815  11.495 -0.0523  0.0635 -0.0495
15662W        W31796   6.931  11.531  16.166 -0.1653 -0.2651 -0.1014
15663W        W31797  10.202  12.457   1.697 -0.1354 -0.2037 -0.2406
15664W        W31798   4.950   6.575   4.538  0.1039  0.2696  0.2904
15665W        W31799   0.058  13.349  13.581  0.1843 -0.1883  0.2287
15666W        W31800   7.765   0.965   3.333  0.0965  0.1223  0.0183
15667W        W31801   4.784   7.641  12.399  0.3458 -0.1108 -0.1525
15668W        W31802  17.885  15.697  15.104  0.0944 -0.3247  0.0379
15669W        W31803  14.178   3.303  13.154 -0.1853  0.0023  0.2541
15670W        W31804   7.431  14.656   1.096  0.2338 -0.0933 -0.2951
15671W        W31805   5.297  10.728  10.950 -0.0458  0.1802 -0.0985
15672W        W31806  10.244  17.049   2.937  0.1694  0.0428  0.2424
15673W        W31807  11.318   9.429   2.980  0.1205  0.1429 -0.0210
15674W        W31808  11.749   9.604   3.236 -0.0764 -0.3025  0.2138
15675W        W31809  15.463  10.512  10.337  0.1039  0.1582  0.0520
15676W        W31810   7.104   6.545   5.226 -0.1389 -0.3132 -0.2242
15677W        W31811  13.006   0.382   2.540  0.1080 -0.2741  0.0096
15678W        W31812  11.226   6.347   1.103  0.1016 -0.3651 -0.0655
15679W        W31813   5.032   3.139   1.471  0.0046 -0.3236 -0.3898
15680W        W31814  12.555  10.606   1.734 -0.0680  0.1785  0.5151
15681W        W31815   2.983   7.207  16.381 -0.1593  0.0617 -0.0006
15682W        W31816  13.281   1.060   3.926  0.2022  0.0164  0.1812
15683W        W31817  16.635  17.939  15.715 -0.2116 -0.2741  0.0963
15684W        W31818   9.804  11.826   2.575  0.1724  0.1032  0.3553
15685W        W31819   1.408   3.893   2.407 -0.0599 -0.0936  0.3266
15686W        W31820   1.353  12.279   3.701  0.0942 -0.0997 -0.0254
15687W        W31821   1.779  17.579   3.023  0.0372  0.1326  0.0867
15688W        W31822  11.522   9.673   1.383  0.1261 -0.1964 -0.3793
15689W        W31823   6.585   8.908   5.563 -0.1275  0.0697  0.1387
15690W        W31824  12.297   2.130   5.940 -0.0219 -0.3936  0.1072
15691W        W31825   0.494   6.371  12.474  0.2649 -0.1772  0.1436
15692W        W31826   6.765  12.986   1.177  0.0798 -0.1332 -0.0514
15693W        W31827   3.111   0.088   0.040  0.2861  0.1879 -0.3098
15694W        W31828  14.663   2.464  14.658 -0.0835 -0.1832  0.3451
15695W        W31829  16.757   2.333  13.193  0.0031  0.2603  0.2331
15696W        W31830   0.982   6.134   2.698  0.1996 -0.0547  0.0407
15697W        W31831  14.956  10.483  10.360 -0.0631 -0.2187 -0.0996
15698W        W31832   6.639  10.673  11.465 -0.1358 -0.3765  0.3431
15699W        W31833  14.880  11.853   3.199 -0.1814 -0.3292 -0.0846
15700W        W31834   9.341  10.740   1.646 -0.0406  0.1543 -0.2411
15701W        W31835   8.245   4.195  16.039  0.2674 -0.0206  0.2453
15702W        W31836  11.477  17.888   1.435  0.3237  0.2307 -0.3323
15703W        W31837   9.294   1.707  15.571 -0.3607 -0.0387 -0.1604
15704W        W31838   1.487  16.259   0.587  0.1177  0.3061  0.3999
15705W        W31839  14.928  15.246   4.242 -0.0229  0.0783 -0.1078
15706W        W31840   7.818   9.141   1.747 -0.1579  0.1118  0.3463
15707W        W31841   0.642  14.164   1.725  0.2805 -0.1844  0.3285
15708W        W31842   0.835  12.574  12.738 -0.0102 -0.0677 -0.0960
15709W        W31843   0.824  12.340   4.958  0.4218 -0.0657 -0.2096
15710W        W31844   0.847  17.675   4.061 -0.1546 -0.0548  0.0457
15711W        W31845   1.936   3.087   1.498  0.2196  0.1047  0.0344
15712W        W31846   2.851   2.833   0.271  0.0643 -0.0818 -0.1013
15713W        W31847   6.914  11.050  13.393 -0.1621  0.0567  0.0352
15714W        W31848  17.069   3.683   2.505  0.1097 -0.4008 -0.2524
15715W        W31849   9.478  13.888  16.336 -0.0427 -0.0795 -0.2733
15716W        W31850   6.674   9.283  13.459  0.1696  0.0071  0.2266
15717W        W31851   3.721  17.705  16.161  0.1837  0.3039  0.0765
15718W        W31852  11.029   3.589   2.830  0.0749 -0.2277 -0.0590
15719W        W31853   1.120  15.350   2.409  0.0500 -0.0537  0.1683
15720W        W31854   1.146   4.290  13.136  0.0862  0.2176 -0.1878
15721W        W31855  11.214   8.058  16.127  0.0042 -0.1481  0.0099
15722W        W31856   7.521  11.915  11.926  0.0736  0.0885  0.0125
15723W        W31857   1.043   5.466  11.813  0.0820 -0.1559  0.1571
15724W        W31858   9.927   6.947   1.190 -0.1252 -0.0834  0.0586
15725W        W31859  14.824  12.008   1.826 -0.0401  0.1310 -0.1749
15726W        W31860   7.612   0.426   3.921 -0.2488 -0.1592  0.0439
15727W        W31861   0.898   9.702  14.274  0.1900 -0.2325 -0.2454
15728W        W31862   5.869  16.299  13.252  0.3725 -0.1077 -0.0674
15729W        W31863   8.424  16.230  12.719  0.0777 -0.2218 -0.2327
15730W        W31864  15.378   0.369   1.525  0.1131  0.1674 -0.1844
15731W        W31865  10.643   9.876   1.244 -0.0023 -0.1359  0.2258
15732W        W31866   6.926   1.554  12.034  0.2180 -0.0627 -0.2451
15733W        W31867   9.245  15.983  12.724 -0.1245  0.3357 -0.1706
15734W        W31868  13.297  13.290   0.964  0.0505  0.1111  0.5511
15735W        W31869   6.467  12.120   4.870 -0.2157 -0.5772 -0.3466
15736W        W31870   6.328   2.486  12.655  0.1654 -0.0364 -0.2905
15737W        W31871   1.422  16.548  14.631  0.3692 -0.0966 -0.2533
15738W        W31872   4.471   7.181  13.246 -0.0835  0.2360  0.0973
15739W        W31873   4.720   3.521  13.340 -0.0036 -0.0193 -0.0614
15740W        W31874   6.057  16.193  16.339 -0.0340 -0.0424 -0.1517
15741W        W31875   2.206  18.091   5.490 -0.1583  0.1913 -0.0458
15742W        W31876  17.477   3.171   5.594  0.2266  0.0306 -0.1590
15743W        W31877  12.773   6.166   3.588  0.0070 -0.1086 -0.1587
15744W        W31878  16.553  17.810   2.513 -0.1322 -0.3011  0.1548
15745W        W31879  15.322   8.172   0.404 -0.0998 -0.2037 -0.1366
15746W        W31880  16.637  12.275   5.186 -0.1411 -0.2129 -0.2272
15747W        W31881   2.657   0.278   0.802  0.2383  0.0028 -0.1927
15748W        W31882   4.383   4.314  13.209  0.3835 -0.1244 -0.3943
15749W        W31883   5.313  12.416  13.081  0.0951 -0.0109 -0.0360
15750W        W31884   2.152   4.216  15.664 -0.0525 -0.0493 -0.2387
15751W        W31885  15.249   3.080   2.918  0.3727  0.3143 -0.1580
15752W        W31886  11.593   6.779   3.523 -0.3091 -0.1684  0.1348
15753W        W31887  11.060   3.023  11.708  0.2295  0.0763 -0.0093
15754W        W31888   4.030   7.399  15.447  0.0518 -0.1758 -0.2277
15755W        W31889  13.956   6.513  11.636 -0.1535  0.0758  0.1741
15756W        W31890   7.107  13.138   3.248 -0.1327 -0.3071  0.0911
15757W        W31891  13.350  10.066   1.425 -0.1643 -0.0949 -0.0186
15758W        W31892  11.051   6.048  11.824 -0.1586 -0.2025 -0.3260
15759W        W31893   3.687  15.703   2.754 -0.0583 -0.0923 -0.2885
15760W        W31894  14.556  13.326   0.237 -0.1364  0.0670  0.1417
15761W        W31895   6.050   0.324   0.439 -0.2154 -0.0018  0.1105
15762W        W31896  10.573  17.878  12.171  0.5316  0.1690  0.1925
15763W        W31897  17.553   4.747  13.835  0.3254 -0.3167 -0.2390
15764W        W31898   6.268  15.406   4.178  0.2809  0.0456 -0.2514
15765W        W31899   0.804   8.798  11.238  0.1157 -0.1512 -0.3239
15766W        W31900  13.717   0.942  11.445  0.1541 -0.0312  0.1209
15767W        W31901   6.843   3.510   5.390 -0.3221  0.0330  0.1632
15768W        W31902   2.406   9.734   0.584 -0.3657  0.0701  0.1372
15769W        W31903  13.040   8.375  16.539  0.0325 -0.1373 -0.1379
15770W        W31904  14.372   7.310   3.229  0.0678  0.3677  0.5100
15771W        W31905  15.481  17.109   4.279  0.0890  0.2522  0.0467
15772W        W31906  17.935  15.307   0.638  0.0740  0.0586 -0.0915
15773W        W31907   8.108  15.513   2.237 -0.0092 -0.1240  0.2270
15774W        W31908   3.114  16.635   5.666  0.2884  0.1068  0.1505
15775W        W31909   5.098   8.719   4.864 -0.0507 -0.0839  0.1177
15776W        W31910   7.275  10.564  12.655  0.0628  0.1927  0.0882
15777W        W31911  15.351   0.929   4.161 -0.2593 -0.0680 -0.0994
15778W        W31912   4.350  14.009   4.836  0.0454 -0.0735  0.0751
15779W        W31913   1.918   9.240  13.549  0.1861 -0.3980  0.2062
15780W        W31914  13.657   8.429   2.845  0.1304  0.1674 -0.2360
15781W        W31915   8.131   2.604   0.939  0.5810  0.1059 -0.0914
15782W        W31916   7.282   3.243   5.520 -0.2520 -0.0993  0.1158
15783W        W31917  16.641   2.057   0.702  0.1469 -0.1388  0.3348
15784W        W31918   9.208  16.419   4.101 -0.1164 -0.1305 -0.1629
15785W        W31919  12.050   6.955   0.362 -0.1465  0.3508 -0.1576
15786W        W31920  11.906   8.995  10.666 -0.0830  0.1602  0.2090
15787W        W31921   3.042  17.434   4.720  0.0624 -0.2892 -0.0080
15788W        W31922  15.626   8.945   2.606 -0.3441 -0.0717  0.0354
15789W        W31923   5.789   1.417   4.293 -0.1855 -0.1995 -0.0950
15790W        W31924   1.178   6.378   0.775 -0.1512 -0.3619 -0.1469
15791W        W31925   6.137  10.875   4.327 -0.0710  0.3893 -0.0438
15792W        W31926  15.682   8.329   3.612  0.2838  0.1713 -0.4116
15793W        W31927   5.716  10.647   3.429 -0.1592 -0.1527 -0.0575
15794W        W31928  11.835   3.206  13.351  0.0197  0.1776  0.3310
15795W        W31929  12.132  17.204   0.387 -0.0358  0.0607 -0.0624
15796W        W31930  17.391  12.836  11.056 -0.2982 -0.1236 -0.1362
15797W        W31931   6.799   7.039   1.509 -0.5944 -0.0362  0.0254
15798W        W31932  12.717  12.143  14.443  0.0296 -0.0147  0.0001
15799W        W31933   0.737  10.658  15.803  0.1426 -0.0664  0.2183
15800W        W31934   2.556   1.443  16.143  0.1071  0.0442  0.2284
15801W        W31935   9.125  15.922   0.718 -0.0133  0.2353  0.1032
15802W        W31936  10.334  14.774   3.060 -0.0738  0.0204  0.0809
15803W        W31937  11.477   1.221  13.092 -0.2860  0.0926  0.0073
15804W        W31938  16.145  17.207   0.807 -0.1543 -0.0059 -0.3097
15805W        W31939   4.364   9.183   1.961 -0.1596 -0.0339  0.1395
15806W        W31940  12.668  14.520  13.087 -0.1280  0.1522  0.2045
15807W        W31941   5.367   1.853  15.189 -0.0214 -0.2098  0.1888
15808W        W31942   9.142   4.596   5.491  0.0565  0.1842 -0.1018
15809W        W31943   0.680  13.665   0.899  0.2905 -0.0576 -0.0381
15810W        W31944   0.502  15.932  13.829 -0.0736 -0.3361  0.0811
15811W        W31945  17.463   6.141  13.438 -0.1832  0.0385  0.0879
15812W        W31946   6.803  11.407  13.756 -0.3821  0.0578 -0.1300
15813W        W31947   1.399   9.745  10.436  0.1203 -0.0175  0.0263
15814W        W31948   6.401  10.489   5.764 -0.2679  0.0406 -0.0641
15815W        W31949   8.781   4.434  13.588 -0.0919  0.1509  0.1075
15816W        W31950  14.658   9.056   0.068  0.0499 -0.2429  0.0687
15817W        W31951  16.954  17.649  14.448  0.0865  0.2589  0.0713
15818W        W31952  13.396   3.083   5.051  0.0975 -0.0931  0.0501
15819W        W31953   6.272  12.927  12.075  0.1319 -0.1171  0.1379
15820W        W31954   6.319  17.256   2.073  0.0022 -0.3426  0.2097
15821W        W31955  12.046   6.667  11.964 -0.0470  0.1397  0.2356
15822W        W31956   8.673  16.599   3.657 -0.0529  0.1308  0.2807
15823W        W31957   9.903  11.501  12.282  0.0141  0.0208 -0.2246
15824W        W31958   3.944  14.891  14.939 -0.0675  0.0040  0.1120
15825W        W31959  13.814  17.423  15.906  0.1220 -0.3388 -0.1161
15826W        W31960   9.455   5.553  12.181 -0.0621 -0.5635  0.0419
15827W        W31961   7.002   2.868   1.718 -0.0541 -0.0225 -0.2879
15828W        W31962   0.239   2.471   5.379  0.3120 -0.0993 -0.0446
15829W        W31963  14.910   6.277   2.845  0.1251  0.1984 -0.0751
15830W        W31964  14.592  17.017  16.454 -0.0762 -0.1144 -0.3131
15831W        W31965  13.316  11.597   5.337  0.1724  0.1885 -0.1092
15832W        W31966  12.575  13.499  14.703 -0.3258 -0.0430 -0.0838
15833W        W31967  16.304   0.317   0.912  0.2599 -0.0851 -0.2324
15834W        W31968  14.955  11.537  13.177  0.2290  0.0735 -0.2229
15835W        W31969   3.081  14.260  13.585  0.1475 -0.6277 -0.1428
15836W        W31970   3.844   8.371  13.617  0.3186  0.2335  0.1641
15837W        W31971  13.906   9.169   4.803 -0.4582 -0.3220  0.0062
15838W        W31972  14.612   6.927  13.919  0.0692  0.3160  0.0054
15839W        W31973  12.702   5.202   3.415  0.0627 -0.0852  0.0181
15840W        W31974  12.165   0.312  12.642  0.0475 -0.2159  0.0900
15841W        W31975   2.640  11.224  14.210  0.2652  0.0322 -0.0003
15842W        W31976   1.827  12.458  14.704 -0.0809  0.1271 -0.0839
15843W        W31977  16.565   1.657  11.934  0.0692 -0.2105  0.1711
15844W        W31978  16.220   2.649   5.317  0.2835  0.1071  0.4938
15845W        W31979   7.786   4.100   1.920  0.0823  0.0562 -0.1969
15846W        W31980   4.492   9.445  12.801  0.2153  0.0995  0.0112
15847W        W31981   2.343   1.555   4.111  0.0614 -0.1179  0.2171
15848W        W31982  15.209   1.617   3.416  0.0997 -0.2603  0.2412
15849W        W31983  10.302  10.070  10.174 -0.1141 -0.0342 -0.1570
15850W        W31984  15.789  17.556  15.148 -0.0278 -0.0011 -0.2042
15851W        W31985   7.401  11.425   1.069 -0.0600  0.1689 -0.2730
15852W        W31986   6.674   3.807  11.879  0.4106  0.0176 -0.0736
15853W        W31987   9.336   5.832  14.960  0.1795 -0.1513 -0.1892
15854W        W31988   7.481  12.329  15.354 -0.0860  0.0865 -0.3095
15855W        W31989  12.982  16.791   4.964  0.1665  0.0650 -0.1588
15856W        W31990  13.761   9.834   2.708 -0.2505  0.0793 -0.1724
15857W        W31991  10.212   7.516   4.749  0.1002 -0.0104  0.1860
15858W        W31992   4.374  15.782  12.897  0.0288  0.0196 -0.0260
15859W        W31993   8.567   5.846   4.180  0.0707  0.1100  0.3945
15860W        W31994   9.567   1.715  14.768 -0.2555 -0.1455 -0.5065
15861W        W31995   3.692   4.543   5.155  0.1063 -0.0887 -0.2015
15862W        W31996   9.462   4.834   3.107  0.0650  0.1144  0.2328
15863W        W31997  11.198   1.856  12.081 -0.4215  0.1550  0.2411
15864W        W31998  16.305   3.408   4.682  0.2245  0.1980  0.0537
15865W        W31999   8.475  14.189  15.788 -0.0392  0.2767 -0.3318
15866W        W32000  17.879   3.241   5.337  0.1322 -0.1599  0.2629
15867W        W32001   8.964  12.694  12.825 -0.3811 -0.0978 -0.0399
15868W        W32002   9.691   6.866   5.318 -0.0269 -0.1145 -0.0934
15869W        W32003   3.865   7.733  11.174  0.1850 -0.1146 -0.1167
15870W        W32004  14.965  12.018  15.989 -0.1249 -0.4145  0.0782
15871W        W32005   4.740   6.881  15.616  0.1796  0.0380  0.0957
15872W        W32006   6.993   2.138  13.183 -0.3361  0.1237 -0.1034
15873W        W32007   2.080   0.519  12.791  0.1264 -0.0569  0.0159
15874W        W32008   9.676   9.323   2.769 -0.1300  0.0539  0.3943
15875W        W32009   9.738  16.407  13.490 -0.0026  0.1760 -0.2451
15876W        W32010   6.089   0.149  12.242 -0.0866 -0.3039  0.1923
15877W        W32011  12.932  15.242  14.053 -0.1201  0.3864  0.2052
15878W        W32012   4.801  10.803  15.894  0.0595  0.0842  0.2905
15879W        W32013  12.601  13.233   5.094 -0.0839  0.0217  0.0079
15880W        W32014  10.129   6.985  13.792  0.2864 -0.2057 -0.0706
15881W        W32015  16.831   5.496  13.656 -0.0047  0.1383  0.0471
15882W        W32016   7.668   8.115   4.819  0.2459 -0.0742 -0.0600
15883W        W32017  13.167  14.131   3.630 -0.0711 -0.0181 -0.0915
15884W        W32018  15.628   1.750  11.738  0.1873  0.0048 -0.2076
15885W        W32019   2.170  18.136  13.370 -0.0294 -0.1554  0.0885
15886W        W32020   1.744   1.964  13.883  0.0037  0.4183 -0.1250
15887W        W32021  11.580   6.740  14.793  0.2005  0.0388  0.2843
15888W        W32022   9.797   7.575  11.710  0.0480 -0.2566 -0.1402
15889W        W32023   1.425  16.311   1.141  0.1487 -0.1344 -0.1658
15890W        W32024   5.799  18.123  14.144 -0.0699  0.0188 -0.1127
15891W        W32025  16.645   9.770   0.067  0.1780  0.0393  0.0865
15892W        W32026  13.177  15.986  12.292  0.2961  0.0299 -0.1593
15893W        W32027  12.791  16.361   1.038  0.0682  0.0180 -0.0524
15894W        W32028   2.746  10.987   4.941 -0.3040  0.0240 -0.1541
15895W        W32029  17.156  10.988  14.202  0.3571  0.1217 -0.3654
15896W        W32030   2.949   5.523  13.044  0.1032 -0.0237  0.1163
15897W        W32031  12.446   6.964  10.869 -0.0717  0.1643 -0.1102
15898W        W32032  17.978  17.170  13.014 -0.3568 -0.3911 -0.1060
15899W        W32033  10.577  14.116  11.351 -0.3369  0.2443  0.0672
15900W        W32034   8.197   6.866   1.634 -0.1457  0.1880 -0.0398
15901W        W32035   4.935  15.407   4.365 -0.1883 -0.1063  0.1216
15902W        W32036  17.009  12.989  14.007 -0.4637  0.0881  0.1441
15903W        W32037   5.699   5.329  11.555  0.0910 -0.0888  0.0543
15904W        W32038   5.993  17.056   0.281  0.3096 -0.4209  0.0807
15905W        W32039   1.352   4.752   5.493  0.1379  0.1732 -0.1862
15906W        W32040  11.051  15.210   5.603  0.1879  0.0409  0.3167
15907W        W32041   7.273   5.076   0.863 -0.1296 -0.0415  0.1620
15908W        W32042   4.474   9.067  13.537  0.0854 -0.1586 -0.0428
15909W        W32043  13.055   1.974   2.624  0.1432 -0.0961  0.1147
15910W        W32044  15.160   7.946  15.310  0.0220  0.3173  0.1995
15911W        W32045   4.340   0.290   5.385 -0.0478 -0.3199 -0.0764
15912W        W32046   8.922   9.356   1.757  0.1755  0.3043 -0.0760
15913W        W32047  17.577   0.618   2.707  0.0107  0.0979 -0.0362
15914W        W32048   8.774   4.104   2.923 -0.0890 -0.3201  0.1463
15915W        W32049  11.298   9.395  16.019  0.0919 -0.0229 -0.0568
15916W        W32050  11.543   4.807  12.001 -0.0235  0.0339 -0.3804
15917W        W32051   8.799  10.745   5.506  0.2552 -0.0191  0.0158
15918W        W32052  17.130   7.768  11.580 -0.0076  0.2352  0.1869
15919W        W32053   4.890   9.677   0.765  0.2240  0.1466 -0.2587
15920W        W32054  13.857   2.641  12.431 -0.2304  0.5099 -0.0256
15921W        W32055   4.796  14.186   3.067  0.0541  0.0926 -0.3216
15922W        W32056   3.300   7.111  11.607  0.0888  0.2723  0.0177
15923W        W32057   7.410   1.916   2.436 -0.1495  0.1500 -0.5033
15924W        W32058   8.169  16.507   3.709 -0.0332  0.2635  0.2388
15925W        W32059  13.321   3.762   2.001  0.2635  0.1646  0.1932
15926W        W32060   0.254  11.222  14.043  0.4166 -0.1667  0.0332
15927W        W32061  11.375   2.656  11.713  0.0047  0.0053 -0.1432
15928W        W32062   2.862  17.749   4.139 -0.1047  0.2478 -0.2615
15929W        W32063  17.387  14.685  13.264 -0.2813  0.0401 -0.0392
15930W        W32064   4.345  14.570  14.607 -0.1222 -0.1173 -0.1792
15931W        W32065  12.990  13.856   0.992 -0.3263 -0.1148 -0.2333
15932W        W32066   3.931   1.945  12.796  0.2642 -0.1003  0.0434
15933W        W32067   2.421   7.880  12.305 -0.0061  0.0372  0.0474
15934W        W32068  15.243   6.112   3.177 -0.3308  0.1349 -0.1198
15935W        W32069   8.472  11.432  12.294  0.1134 -0.1531  0.0968
15936W        W32070  13.510   1.210  14.207  0.0565  0.0310  0.0139
15937W        W32071   9.376  14.556  12.668 -0.0265 -0.1169  0.0430
15938W        W32072  17.239  13.197  15.972  0.2813 -0.1276 -0.0707
15939W        W32073  15.839   0.093   4.122  0.1021 -0.4210 -0.2031
15940W        W32074  12.976  17.133   3.092  0.0112  0.1238  0.0291
15941W        W32075   2.346   6.482   4.438  0.1464 -0.1977 -0.0882
15942W        W32076  16.551   8.841  12.556 -0.4546  0.1160 -0.2588
15943W        W32077   1.652   6.616  13.526 -0.2486 -0.1962  0.0029
15944W        W32078   7.892  13.085  11.509 -0.3811 -0.1748  0.1753
15945W        W32079   4.878   4.686  11.558 -0.3673 -0.1541 -0.3307
15946W        W32080  16.088  10.676  15.567 -0.1863 -0.0373 -0.1378
15947W        W32081  12.897  12.691   2.676  0.0905 -0.1290  0.0287
15948W        W32082  14.041   0.887  11.843 -0.1819  0.0039  0.0410
15949W        W32083  14.870   2.968  13.797  0.1307 -0.0785 -0.2016
15950W        W32084  10.753  13.608  13.917 -0.3423  0.0656  0.2066
15951W        W32085  17.947  12.259   2.587 -0.1700 -0.0965 -0.0392
15952W        W32086   8.384   0.118  13.575  0.2878 -0.1319  0.1479
15953W        W32087   3.446   9.982  12.462 -0.0342  0.0202 -0.3221
15954W        W32088   2.430   6.940  12.309  0.0709  0.1790 -0.3455
15955W        W32089  10.043   1.639   5.175 -0.1947  0.0034  0.2038
15956W        W32090  16.054  16.454  13.120  0.1902 -0.0766  0.0168
15957W        W32091  13.910  16.053  14.972  0.4853 -0.2216 -0.0630
15958W        W32092  15.045  16.551  13.250  0.1530  0.2984 -0.2180
15959W        W32093   2.389   8.039   1.315 -0.0860  0.0713 -0.0859
15960W        W32094   0.289   2.506  11.845  0.0992 -0.2229  0.0749
15961W        W32095   3.036   7.314   2.322 -0.2093 -0.1175  0.1275
15962W        W32096   6.643   2.280   2.959 -0.0170  0.0893  0.2785
15963W        W32097   6.259   1.591  11.488  0.0165  0.2452 -0.2121
15964W        W32098  13.745  13.204   5.804  0.0811  0.1093 -0.0535
15965W        W32099   1.703   9.254  11.210 -0.1137  0.0916 -0.4259
15966W        W32100   2.309  11.082  16.303  0.2579  0.2785 -0.0759
15967W        W32101  13.711   1.337   1.672  0.1145  0.2205  0.1889
15968W        W32102   0.157   4.107  12.843 -0.0539  0.2089  0.2738
15969W        W32103  10.160   5.644   0.551 -0.0529  0.1129 -0.0600
15970W        W32104   2.670  12.729   4.987 -0.1434 -0.2705 -0.2536
15971W        W32105   4.725   8.684   3.060  0.0345  0.0153  0.1214
15972W        W32106   6.689  12.802   5.280  0.3840 -0.2713 -0.0491
15973W        W32107  16.592  13.178  12.695 -0.1319  0.0855  0.0061
15974W        W32108   8.310  12.924   0.116  0.1144  0.0712  0.2820
15975W        W32109  10.764  15.441  11.841  0.0800 -0.0137 -0.1174
15976W        W32110   1.867   7.904  14.854 -0.0050  0.0191 -0.1776
15977W        W32111   1.302  18.140  13.763 -0.0289  0.2105 -0.0164
15978W        W32112   9.403  15.987  14.659 -0.3396  0.2190 -0.0452
15979W        W32113  14.546  14.700  14.231 -0.3379 -0.0861 -0.0613
15980W        W32114   2.379  14.276   1.578  0.0310 -0.2729 -0.0577
15981W        W32115  16.658   7.099  14.039 -0.1600 -0.0970  0.1616
15982W        W32116   3.020  10.110   4.531  0.0510  0.1049  0.2347
15983W        W32117  13.809  14.704   1.608 -0.1170  0.0091  0.1208
15984W        W32118   2.587  11.218  13.725  0.0602 -0.1093  0.4841
15985W        W32119   4.448   7.484   3.541 -0.0639 -0.1737 -0.0446
15986W        W32120  14.132   0.497   1.789 -0.1270 -0.2913 -0.2368
15987W        W32121   4.515  14.329   5.282  0.1055 -0.0402 -0.1288
15988W        W32122  14.217   3.875   1.706 -0.0801  0.1448  0.2879
15989W        W32123  15.546   4.911  14.857 -0.0344  0.0805  0.0814
15990W        W32124   0.031   2.513  15.391  0.2156 -0.1832 -0.0982
15991W        W32125  11.146   1.681  11.489 -0.2662 -0.1886  0.1597
15992W        W32126   7.577  16.000  13.637  0.1302  0.4348  0.0943
15993W        W32127  16.253   9.566  11.315 -0.1975 -0.1056 -0.0123
15994W        W32128   6.886  13.855  13.278 -0.1141 -0.3439 -0.1807
15995W        W32129   5.659  12.079  14.276 -0.0757  0.0195  0.1612
15996W        W32130  12.658   1.064  15.317  0.2531 -0.0159  0.0558
15997W        W32131  16.462   8.373  11.516  0.0383  0.2485  0.0700
15998W        W32132   5.921   2.882   2.755 -0.3011 -0.0026  0.0986
15999W        W32133  17.380  17.808  11.573  0.0791 -0.4393 -0.4172
16000W        W32134  12.872   6.778  15.099  0.3090 -0.1868  0.2394
16001W        W32135  15.435   2.880  14.490 -0.2029 -0.0081 -0.0703
16002W        W32136  12.197  14.606   2.025 -0.2726  0.2651  0.1836
16003W        W32137   7.940  11.570   3.778 -0.1225 -0.0707  0.1395
16004W        W32138  14.428   2.056   2.490  0.1837  0.2089  0.0164
16005W        W32139   8.165   6.604  13.942 -0.0701 -0.2342 -0.2044
16006W        W32140   0.836   9.632  15.591  0.1484  0.3266  0.0729
16007W        W32141  15.393  17.531  12.645 -0.0808  0.0730  0.0828
16008W        W32142   4.808   2.746   1.768 -0.1937 -0.0970  0.1164
16009W        W32143   4.675  11.873   2.314  0.1236  0.1336 -0.0240
16010W        W32144  10.057   1.854   1.699  0.0492  0.1868  0.1308
16011W        W32145  13.827   8.193  13.701  0.2428  0.0645  0.0706
16012W        W32146  15.495  12.575  15.429 -0.0217 -0.5149  0.0850
16013W        W32147  10.020  15.163  16.163  0.1369 -0.3394  0.1409
16014W        W32148   7.323  11.990   0.301 -0.0266  0.2485  0.1391
16015W        W32149   3.949  10.302   2.841 -0.1197  0.0586 -0.0796
16016W        W32150  14.507   9.706   3.350 -0.0346  0.1953 -0.2450
16017W        W32151   1.338  13.732   0.401  0.1365  0.0790  0.2045
16018W        W32152   1.859   7.725  10.651 -0.1202  0.0133  0.1445
16019W        W32153  13.848   3.157   0.994 -0.1085 -0.1835 -0.4246
16020W        W32154   1.088   7.295   0.572 -0.1838  0.0827 -0.1734
16021W        W32155   8.233  13.570  16.085 -0.3484  0.0896  0.2267
16022W        W32156   1.304   5.180   3.347 -0.1933  0.4278  0.3066
16023W        W32157   8.589  13.713  13.369  0.2385 -0.0194  0.0850
16024W        W32158   4.404  10.796   1.269 -0.0977  0.0829 -0.2008
16025W        W32159  13.194  16.023   1.705  0.2735 -0.2683  0.1884
16026W        W32160   7.196   7.304   4.351 -0.0868  0.2243 -0.1375
16027W        W32161   4.428  15.965  14.483 -0.2308 -0.1111 -0.1773
16028W        W32162   3.788  11.412   4.921 -0.2769  0.0190 -0.2402
16029W        W32163   4.408   7.426   1.932 -0.4088  0.1305 -0.0242
16030W        W32164   7.582   7.724   0.882  0.0730 -0.1167  0.0368
16031W        W32165  16.901   0.768  12.545  0.0136 -0.0963 -0.1536
16032W        W32166  15.701   0.311   5.579  0.0999  0.0880  0.2816
16033W        W32167  13.471   4.029  14.212  0.1462  0.0997 -0.1145
16034W        W32168   1.504   2.624  16.439 -0.0701 -0.0645 -0.4241
16035W        W32169  15.320   4.681  15.406 -0.0578  0.2566 -0.0187
16036W        W32170   9.485   8.566   1.401  0.1000 -0.2139  0.2110
16037W        W32171   3.395   6.418   5.932 -0.0234  0.3608  0.2016
16038W        W32172   7.573   8.448   0.171  0.0080  0.1853  0.1658
16039W        W32173   1.681  15.970  12.281  0.2666 -0.3947 -0.3312
16040W        W32174   8.534   9.677   4.781 -0.0214 -0.0201 -0.3575
16041W        W32175   9.082   9.570  15.661  0.0744  0.0284  0.1006
16042W        W32176   2.979   3.726   3.641  0.0582  0.1396 -0.0630
16043W        W32177   6.766   6.261   1.486  0.0281 -0.3526  0.0319
16044W        W32178  10.156  11.535  11.328 -0.0732 -0.1876 -0.0773
16045W        W32179  16.205  12.190  13.429  0.0876  0.2211  0.2909
16046W        W32180   2.396   8.659  12.996 -0.0809 -0.0030 -0.3210
16047W        W32181  14.921   7.282  15.799  0.0207 -0.0827  0.2380
16048W        W32182   6.436   0.305   4.846 -0.3514  0.0846  0.2515
16049W        W32183   2.061   2.273  13.538 -0.3049 -0.0679  0.0530
16050W        W32184  12.926  10.214   3.166  0.1439 -0.0318 -0.1896
16051W        W32185  11.620  12.397   5.472  0.2971 -0.3168  0.1044
16052W        W32186  10.448   6.415  15.627  0.0108  0.2159  0.1678
16053W        W32187   5.750   7.976  11.679  0.0852  0.3237  0.1230
16054W        W32188   3.599   7.362  15.191  0.0168  0.0604  0.0386
16055W        W32189   5.319  11.317   3.255  0.1807 -0.2797 -0.1643
16056W        W32190  16.775   6.524  14.059  0.1314 -0.0938 -0.3600
16057W        W32191   9.475   1.820   2.678  0.2501  0.1057  0.5799
16058W        W32192   6.755  15.524   3.307  0.4335  0.2683  0.0900
16059W        W32193  16.451  11.156   0.179  0.0746 -0.1172  0.0756
16060W        W32194   1.017   8.880  13.808 -0.1822  0.1752 -0.1894
16061W        W32195   8.210  13.540   0.787  0.1596 -0.1051 -0.1020
16062W        W32196  17.293  14.325   0.169  0.2120 -0.3378  0.2212
16063W        W32197   8.489   6.355  11.524  0.0467 -0.0568  0.0439
16064W        W32198  10.814   4.390   1.228 -0.0107 -0.1582  0.0686
16065W        W32199   2.938   7.863   2.532 -0.3059 -0.4684 -0.0442
16066W        W32200   9.019  13.965   6.005  0.0136 -0.4073  0.0570
16067W        W32201  11.435  14.032  15.670 -0.2789 -0.1163 -0.2422
16068W        W32202   5.477   2.506  11.495  0.2005  0.5297  0.3211
16069W        W32203   3.024  15.967   3.581 -0.4894 -0.0284  0.1891
16070W        W32204  15.455  14.911  12.942  0.0278  0.0089 -0.0066
16071W        W32205  11.525   7.233  10.551  0.0596  0.0997  0.0294
16072W        W32206   0.236   4.230   5.083  0.0343  0.0344 -0.2470
16073W        W32207   4.679   3.177   4.148  0.0783 -0.2642 -0.0286
16074W        W32208  11.872  17.353   0.797  0.0155  0.1728 -0.2715
16075W        W32209  10.395   5.804  11.177  0.0027  0.1421  0.0393
16076W        W32210   4.270   3.420   4.364  0.3153  0.0775 -0.2688
16077W        W32211   8.676   0.564  13.796 -0.3920 -0.2160 -0.2362
16078W        W32212  15.641  10.684  16.143  0.0881  0.2642 -0.0353
16079W        W32213  14.941   1.552   2.771 -0.0541  0.2165 -0.2466
16080W        W32214  11.100   6.589  14.940 -0.0307 -0.0581 -0.0517
16081W        W32215   1.671   4.346   0.388  0.1159 -0.2934 -0.2359
16082W        W32216   3.232  12.311  12.767  0.4053 -0.3253 -0.1535
16083W        W32217   3.342   3.182  14.526  0.1029  0.1401  0.1433
16084W        W32218  17.323   6.627   0.173  0.2280  0.1676  0.0104
16085W        W32219  12.883   2.922   5.112  0.2905  0.1280 -0.2677
16086W        W32220   3.850   4.253   2.830 -0.0783 -0.3713  0.1313
16087W        W32221  17.180  12.877   0.851 -0.1059  0.0308 -0.3008
16088W        W32222  14.552   1.951   5.683 -0.1459 -0.1083  0.1606
16089W        W32223   7.668   5.385   1.833  0.1110 -0.0048  0.1189
16090W        W32224  13.142  14.885  12.225 -0.2186 -0.0189  0.0287
16091W        W32225  15.402   6.401   2.738 -0.2023 -0.0654  0.2543
16092W        W32226   9.924   3.657  15.875 -0.1500 -0.0708  0.2411
16093W        W32227   8.291   4.855   1.849  0.3585  0.1346 -0.1998
16094W        W32228  11.316   5.397  14.594 -0.1033  0.0359  0.1583
16095W        W32229   9.147   7.135   1.534  0.0288 -0.0195 -0.0069
16096W        W32230   5.155   1.038   4.906 -0.4154 -0.1873  0.0323
16097W        W32231  10.357   9.525   3.325 -0.1712  0.0648 -0.2035
16098W        W32232   8.666  17.090  14.256 -0.1129  0.2676 -0.3585
16099W        W32233   0.053   6.835   1.352  0.0938  0.0446 -0.2419
16100W        W32234   4.865  12.360  16.356  0.0119 -0.2590 -0.2775
16101W        W32235  13.413  15.546  16.147  0.0459 -0.1002  0.2538
16102W        W32236   0.877   7.053  13.896  0.0766 -0.2613  0.0875
16103W        W32237  14.517   8.284   5.758  0.1089  0.0875  0.0447
16104W        W32238   5.840   0.620  11.930 -0.5509  0.0015  0.1538
16105W        W32239   8.080   6.100   0.227 -0.3145  0.0483 -0.1145
16106W        W32240  13.971  11.119  11.534 -0.2526 -0.0118  0.1174
16107W        W32241   2.763  13.186  12.655 -0.0463  0.3872 -0.2213
16108W        W32242   5.761  15.929  13.839  0.0421 -0.3057 -0.0564
16109W        W32243  10.031   0.548  13.714 -0.1326  0.0748  0.0630
16110W        W32244  17.742   1.821   6.300 -0.3751  0.0248 -0.0297
16111W        W32245   7.510   3.530   2.421 -0.3533  0.0775  0.0530
16112W        W32246  10.251   2.133   5.269 -0.2565  0.2068 -0.2773
16113W        W32247   9.193   7.893   0.822  0.1304 -0.1472  0.0597
16114W        W32248  11.710   3.842  15.593  0.0302 -0.2879 -0.3335
16115W        W32249   2.075  16.761   2.123 -0.2760 -0.0016  0.4210
16116W        W32250   7.087   6.066   3.049 -0.1906  0.0649  0.1144
16117W        W32251  17.949  12.574  15.914 -0.2339 -0.0810 -0.0483
16118W        W32252  10.904  14.574   2.626  0.1343 -0.0057 -0.1771
16119W        W32253  11.707   6.018   1.101 -0.1322  0.1506  0.0820
16120W        W32254   6.315   9.978   3.250  0.2385  0.0504 -0.3464
16121W        W32255  14.763   1.461   3.664  0.1199 -0.1549  0.1137
16122W        W32256   6.101   4.964   3.566 -0.0419  0.0466  0.2599
16123W        W32257   3.414   2.062  13.713  0.1807 -0.0000 -0.0465
16124W        W32258   0.670   3.597  15.097 -0.2438  0.2494  0.2824
16125W        W32259  16.394  13.233   4.845  0.2090 -0.1209  0.2785
16126W        W32260  11.877   8.791   4.785  0.0931  0.0697 -0.1305
16127W        W32261  17.078   5.634  16.216 -0.0536 -0.0342 -0.0413
16128W        W32262   2.998  16.179   5.360 -0.0641  0.0867  0.0214
16129W        W32263  13.388  13.205   5.369 -0.2872 -0.0046 -0.1388
16130W        W32264   7.030  13.439   2.663  0.0015  0.0954  0.2747
16131W        W32265   0.460  14.347  15.939  0.0937  0.0955  0.1362
16132W        W32266   1.832   7.761  14.340  0.0723  0.0123  0.3379
16133W        W32267   6.272   2.469  10.969 -0.1001  0.0319 -0.3530
16134W        W32268   3.968  15.827  16.138 -0.1473  0.3516  0.1297
16135W        W32269  15.610   6.966  15.263 -0.2596 -0.0821 -0.0659
16136W        W32270  12.516   7.206   2.973  0.1734 -0.1215 -0.1227
16137W        W32271   7.775  11.908   0.210  0.1073 -0.1505  0.1095
16138W        W32272  16.166   5.137  15.248  0.1750  0.4012  0.3861
16139W        W32273  17.345   7.374  16.248  0.0054 -0.2942 -0.1482
16140W        W32274  16.587   0.065  12.596 -0.0430  0.0085  0.1673
16141W        W32275   8.300  10.135  11.509 -0.5106  0.1694 -0.2759
16142W        W32276   6.121   7.802   0.172 -0.0007  0.3724  0.1230
16143W        W32277  17.509  10.110   0.691 -0.0747 -0.0033  0.1003
16144W        W32278  12.388   9.580   4.596 -0.1939  0.2451 -0.1107
16145W        W32279  14.110  15.626   0.759  0.2908  0.1188  0.1741
16146W        W32280   5.275   8.178   2.177 -0.0136  0.3466  0.0432
16147W        W32281  12.393  15.350  16.027  0.1747 -0.0995 -0.0386
16148W        W32282   6.883   1.513   1.231 -0.0454  0.1719  0.4799
16149W        W32283   3.395   5.706  12.793  0.1092  0.1754  0.3401
16150W        W32284   2.064   1.290  12.818  0.0072 -0.0097  0.0177
16151W        W32285   7.125  14.546  15.260  0.0270 -0.1064  0.1265
16152W        W32286   0.201   5.312   4.169  0.0453  0.1631  0.2679
16153W        W32287  10.905  12.526   2.490  0.0243 -0.0667 -0.1820
16154W        W32288   9.095   1.824   3.650 -0.0576  0.1107  0.0931
16155W        W32289   6.035   8.963  12.325 -0.0252  0.3576  0.0847
16156W        W32290   7.276  13.866   1.087 -0.0383  0.0394  0.1841
16157W        W32291   0.930   6.908   1.465  0.0472  0.2637  0.3840
16158W        W32292   7.067  14.368  13.383 -0.0821 -0.3144 -0.0662
16159W        W32293   7.966  11.732   0.982 -0.1918 -0.0297  0.0611
16160W        W32294   2.646   9.003  14.439  0.3781 -0.0763  0.0830
16161W        W32295   1.033  10.927  14.304 -0.2757 -0.1888 -0.3772
16162W        W32296   3.875   9.616  13.495 -0.1567  0.0332  0.2442
16163W        W32297   0.416  10.932  12.529  0.0857  0.0646  0.1331
16164W        W32298  11.505  13.813  14.365 -0.1659 -0.0680 -0.1453
16165W        W32299   5.397   9.254  10.710  0.1129 -0.1655  0.0149
16166W        W32300  14.410  14.850   3.216  0.0457  0.1177  0.2172
16167W        W32301   8.629   4.975  14.348 -0.1794 -0.2768  0.3865
16168W        W32302   4.070   8.790  11.353  0.0927 -0.1041 -0.1535
16169W        W32303  11.698   5.132   0.704  0.2100  0.4574  0.0606
16170W        W32304   2.299   4.403  13.312  0.2334 -0.1721 -0.2277
16171W        W32305  17.553   6.572  13.939  0.3019  0.2179 -0.1116
16172W        W32306   3.472   8.004   0.028 -0.0323 -0.0983 -0.0059
16173W        W32307  11.851   6.441   3.277  0.0686 -0.1897 -0.0993
16174W        W32308   7.697  15.084  13.846 -0.1121 -0.1389 -0.1250
16175W        W32309   2.893  16.759   4.723 -0.1043  0.3218  0.1525
16176W        W32310   3.041   8.338  15.639  0.3633  0.0149  0.1225
16177W        W32311   9.308  11.248  12.542 -0.0564 -0.2304 -0.2083
16178W        W32312  12.826  11.259  15.946 -0.3013 -0.0297  0.3915
16179W        W32313  17.240   0.570  13.549 -0.3884  0.0715  0.1437
16180W        W32314  13.888  11.219  13.268  0.2466 -0.1179  0.1288
16181W        W32315   1.195  17.491  16.044 -0.0075 -0.0300 -0.3078
16182W        W32316  17.440   8.415  14.860 -0.0107 -0.2213  0.1161
16183W        W32317   8.937  16.257   3.163  0.1030  0.0123 -0.1502
16184W        W32318   4.442  13.857   3.826  0.0229  0.0386  0.1022
16185W        W32319  13.239  14.282  15.235 -0.0253 -0.2849 -0.0188
16186W        W32320   6.667   0.246  14.066 -0.0465 -0.0997  0.1141
16187W        W32321   9.570  13.168  11.116 -0.1671  0.1305  0.1258
16188W        W32322  14.825  13.716  14.284  0.1121 -0.1574  0.0658
16189W        W32323   4.425  12.730   2.985  0.3350 -0.1819 -0.2247
16190W        W32324  14.352   6.329  11.325 -0.3222  0.2469  0.1833
16191W        W32325   8.082  13.412   1.314 -0.0838 -0.2280 -0.2229
16192W        W32326  14.586   6.379   5.728 -0.3127  0.1521 -0.0517
16193W        W32327   0.533   4.128   1.307  0.2945  0.0091 -0.0288
16194W        W32328  10.383  14.019   5.738 -0.1016  0.0713  0.1216
16195W        W32329   2.753  11.281   3.144  0.1734 -0.0007  0.1524
16196W        W32330  16.726  12.736  13.568 -0.3102  0.2592 -0.0485
16197W        W32331   0.867  14.242  13.540  0.2033  0.0141  0.0328
16198W        W32332   0.481  12.984  14.928 -0.0958  0.1024  0.0418
16199W        W32333   0.800  12.103  12.537  0.0386  0.1764 -0.2321
16200W        W32334  11.119  15.088   0.120 -0.1988  0.0783  0.2136
16201W        W32335  17.744  16.947  11.885  0.1720 -0.1316 -0.1166
16202W        W32336  15.968  13.633  15.765  0.1897  0.1505  0.3313
16203W        W32337   1.464   3.131  15.291  0.0593 -0.0539 -0.0366
16204W        W32338   7.533  11.340  14.136  0.0715  0.1213  0.1997
16205W        W32339   0.206  12.664  12.050  0.0267 -0.0757  0.0024
16206W        W32340  17.116   3.466   5.618  0.1461  0.0656 -0.1926
16207W        W32341  17.115   0.805  12.043  0.0154  0.0231  0.2403
16208W        W32342   8.542   7.325  14.977 -0.2462 -0.2125  0.0809
16209W        W32343  16.953  10.152   1.458  0.0484 -0.1901 -0.1108
16210W        W32344  10.490  18.025  12.669 -0.1146  0.1154 -0.2121
16211W        W32345  16.083  10.915   1.943 -0.2349  0.1457  0.1275
16212W        W32346   6.435   7.385  13.761  0.0685  0.0547  0.0639
16213W        W32347   2.792   5.505   6.441  0.1282  0.0588  0.1802
16214W        W32348   5.975   2.646  14.110  0.2401  0.0675 -0.3177
16215W        W32349   7.675   6.662   1.651  0.2631  0.1453 -0.1096
16216W        W32350  16.399   8.121   2.675 -0.1471  0.1750  0.0262
16217W        W32351   1.981   4.996  15.143 -0.0869  0.1847 -0.1455
16218W        W32352  17.685   0.776   4.894 -0.3508  0.2467 -0.1602
16219W        W32353  17.267  17.339   4.173  0.0239  0.1441  0.1915
16220W        W32354   6.314  17.578  11.917  0.0905  0.2962 -0.2047
16221W        W32355  13.283   8.476  12.306 -0.3111  0.3383 -0.0580
16222W        W32356   0.338  12.922   3.239 -0.0710 -0.2637 -0.0271
16223W        W32357   7.706   4.731  11.663 -0.0928  0.0147 -0.0616
16224W        W32358  15.595   6.378   4.627  0.0527  0.1509 -0.0057
16225W        W32359   2.071  17.568   4.461 -0.2145 -0.1878  0.1599
16226W        W32360   4.272   6.714   1.799  0.0442 -0.0983 -0.2246
16227W        W32361  11.682   3.492  12.872 -0.0099  0.1272 -0.0567
16228W        W32362  15.309   5.458   2.159 -0.0261  0.2089  0.2019
16229W        W32363  14.329   8.512  10.840  0.2886  0.1304 -0.2331
16230W        W32364  12.394  11.931  15.519 -0.3478 -0.2794 -0.0407
16231W        W32365  14.624   6.241   1.605  0.1753 -0.0490  0.2727
16232W        W32366   7.712   9.326   4.839  0.0669  0.0593 -0.1344
16233W        W32367   4.839  14.842  11.664  0.0923 -0.2098 -0.2336
16234W        W32368   5.516  17.311  11.739  0.0335  0.0716  0.0451
16235W        W32369  16.689   0.989   2.162  0.3319  0.0967 -0.0427
16236W        W32370  10.016  13.507  13.499  0.0172  0.1897  0.0813
16237W        W32371  10.300   5.755  14.660 -0.2274  0.2294 -0.3389
16238W        W32372  15.343   1.698  14.900 -0.0110 -0.0999 -0.0155
16239W        W32373  12.753   3.922  11.610  0.1822  0.0269 -0.0946
16240W        W32374  11.190  16.844   0.530 -0.0196  0.4243  0.2315
16241W        W32375  12.466   6.119  15.863  0.0331 -0.0392 -0.0475
16242W        W32376   4.862   7.699  16.035  0.4242  0.1156  0.1745
16243W        W32377   4.973   2.969  16.091 -0.0775 -0.0712 -0.1733
16244W        W32378   3.217  11.129   3.071 -0.2234  0.2609 -0.2957
16245W        W32379   5.542  13.615  15.650  0.1195  0.3030 -0.1602
16246W        W32380  13.327   2.224  13.075 -0.3419  0.0680  0.2858
16247W        W32381   8.584   3.063  13.330  0.1201  0.1306 -0.1124
16248W        W32382   6.947   2.246   2.544 -0.1751 -0.2908  0.1578
16249W        W32383  14.226   1.116  14.692 -0.0057 -0.1615 -0.0493
16250W        W32384  14.644  14.313  10.795 -0.1407 -0.1057  0.6820
16251W        W32385   5.871  18.070  16.064 -0.3861  0.0422  0.2652
16252W        W32386  12.241   7.127  16.350  0.0292 -0.2857  0.2523
16253W        W32387  13.800   3.195  11.718 -0.1880  0.2271  0.2741
16254W        W32388   1.412  12.780   2.838  0.0336 -0.1504 -0.1763
16255W        W32389   0.748  11.454  12.613 -0.1133 -0.3258  0.3743
16256W        W32390   3.431  10.234   2.769 -0.0408 -0.2478  0.0282
16257W        W32391   2.192   6.480  13.638  0.1695 -0.2165 -0.0436
16258W        W32392  16.451   8.001   1.054 -0.1230  0.1224  0.1896
16259W        W32393   6.489  18.029  15.397  0.2916 -0.2643 -0.2894
16260W        W32394  15.812  14.644   3.290  0.2608  0.0496 -0.1569
16261W        W32395  10.562  13.669  13.412 -0.1246  0.2354  0.2750
16262W        W32396   0.346   8.837   3.708 -0.0340 -0.1720 -0.0521
16263W        W32397   1.989   2.999   4.488  0.3199  0.1180 -0.0140
16264W        W32398   9.499   3.154  12.118  0.3639  0.0957 -0.0528
16265W        W32399  10.219   0.082  13.638 -0.1884  0.1105  0.0868
16266W        W32400  16.534   6.039  12.239 -0.0975  0.0307 -0.1597
16267W        W32401   3.522  13.810  13.444 -0.0684  0.0068 -0.0096
16268W        W32402  10.379   6.527   3.259  0.3670  0.4429  0.1477
16269W        W32403  13.955  17.810   0.579  0.1078 -0.1957  0.0350
16270W        W32404  12.096  10.372   3.440 -0.2145  0.1246  0.0046
16271W        W32405  14.050   8.347   0.226 -0.2487 -0.2129  0.2135
16272W        W32406   7.765   9.089  13.147  0.1635  0.0166 -0.1594
16273W        W32407  14.716  15.488   2.793  0.1264  0.0084  0.0159
16274W        W32408  16.413  11.988   0.545  0.0230  0.1521 -0.0556
16275W        W32409  12.411  14.713   4.015  0.0052  0.0543  0.2196
16276W        W32410   9.048   0.562  12.221 -0.1152 -0.1421  0.3515
16277W        W32411  18.002   0.073  14.034 -0.1428  0.1703  0.2502
16278W        W32412   6.254   6.204   1.199  0.0774 -0.1701 -0.1346
16279W        W32413   1.531   2.142   0.058 -0.0929  0.1242 -0.3961
16280W        W32414   9.843   2.186  16.001  0.0424  0.0326  0.1255
16281W        W32415  17.850   8.804   2.185 -0.2125  0.0535  0.0622
16282W        W32416  11.454  14.707  12.189  0.2732 -0.0563  0.2799
16283W        W32417   4.299   7.908   0.743  0.5212 -0.2232 -0.1012
16284W        W32418   9.540   1.472   5.804 -0.3423 -0.1629 -0.2524
16285W        W32419   5.521  10.898   1.800 -0.1395 -0.2747 -0.0274
16286W        W32420  11.260  11.379   3.448 -0.3567  0.3568  0.2209
16287W        W32421   5.450  15.791  11.961  0.2822  0.2780  0.4813
16288W        W32422   5.120  11.468  15.984  0.1785  0.0769  0.1091
16289W        W32423   0.579  16.504  15.633 -0.2055  0.1885  0.0956
16290W        W32424   7.960  17.507  13.843 -0.0941 -0.0595  0.0817
16291W        W32425   4.404   5.043  12.369  0.0371 -0.1428 -0.2142
16292W        W32426   6.491  11.665   4.561  0.0345 -0.1780 -0.0819
16293W        W32427  15.769   5.951   0.799 -0.1393  0.2203  0.1301
16294W        W32428   7.155   8.746   4.237  0.3235 -0.3782 -0.0872
16295W        W32429   0.318  13.349   0.970  0.1022  0.2080 -0.0008
16296W        W32430   5.644   5.305  15.456  0.0718 -0.0706 -0.0475
16297W        W32431   2.320  15.994  13.283 -0.0189  0.1188  0.1990
16298W        W32432  12.073  11.048   2.831  0.0505 -0.0259 -0.2433
16299W        W32433   2.023  14.594   1.871  0.2653  0.1834  0.0227
16300W        W32434   0.207   7.731   2.466  0.1898 -0.2686  0.2391
16301W        W32435   1.719  16.942  12.789  0.1651 -0.1555 -0.0674
16302W        W32436   3.822  11.034  12.618  0.0816 -0.0781 -0.0952
16303W        W32437   7.259   0.310   5.902 -0.2562  0.1392  0.1871
16304W        W32438  12.762   5.665   1.077 -0.1604  0.0186  0.2014
16305W        W32439   0.998  17.569   3.036  0.2317  0.3417  0.1672
16306W        W32440  12.135  18.017  16.433 -0.1174 -0.3706  0.2393
16307W        W32441  16.732   2.293  14.567 -0.1820 -0.0208 -0.0727
16308W        W32442   5.095  16.230  15.070  0.1666 -0.0616 -0.3342
16309W        W32443   8.211  12.784   3.844  0.0245 -0.0418  0.0120
16310W        W32444   7.386   4.381  16.299  0.1771  0.1249 -0.2187
16311W        W32445   0.036   0.324   3.284 -0.1097  0.0748 -0.2836
16312W        W32446  16.262   1.101   2.438  0.0838  0.0079  0.0403
16313W        W32447  12.633   7.464  10.910 -0.0366  0.0889 -0.0350
16314W        W32448   3.401  15.845  12.621 -0.4760 -0.0567  0.0617
16315W        W32449   4.234   3.788  13.274  0.0746 -0.1431 -0.0131
16316W        W32450   1.930   3.718  14.039  0.0724  0.1143 -0.1957
16317W        W32451   9.813  13.608   1.183 -0.1869  0.0598  0.0252
16318W        W32452   6.200  17.067  15.056  0.1087  0.1881  0.1777
16319W        W32453   9.832  12.286   0.745  0.2538 -0.1372 -0.1665
16320W        W32454   4.808   5.958   1.519 -0.3459  0.3897 -0.1567
16321W        W32455   9.510  15.830  13.178  0.1127  0.0224 -0.2879
16322W        W32456   2.766   5.314   0.398  0.1724  0.3025 -0.0135
16323W        W32457   4.998  16.224   4.718  0.2551 -0.0484 -0.0070
16324W        W32458  10.176   4.595   2.807 -0.1281 -0.2236 -0.0596
16325W        W32459   4.164   8.524   0.639  0.2365  0.0895  0.1359
16326W        W32460   0.933   0.689   0.374 -0.2790 -0.0780 -0.1223
16327W        W32461  17.384  12.992  13.084  0.1136  0.0091 -0.0150
16328W        W32462  17.071   4.166  14.651  0.1427 -0.0007  0.1716
16329W        W32463   0.875  12.108   3.876 -0.1887  0.1645  0.1233
16330W        W32464   1.767   0.574  15.417 -0.2049  0.0520 -0.2889
16331W        W32465   0.137   7.769  13.271  0.1859  0.1224 -0.0122
16332W        W32466  17.614  10.705   4.960  0.1029  0.0087  0.0069
16333W        W32467  14.851  13.777  16.132  0.4263 -0.1033 -0.1414
16334W        W32468  11.249   6.451  14.516  0.0462 -0.0214  0.2798
16335W        W32469  14.056   7.461  11.515  0.0186 -0.2503  0.2872
16336W        W32470   7.153  13.458  12.074 -0.1485  0.0370  0.1877
16337W        W32471   2.189  10.509   0.442  0.2191 -0.1319 -0.0592
16338W        W32472   6.035   8.730  10.944 -0.0799  0.0715 -0.0776
16339W        W32473   6.643   7.048   0.804 -0.0449  0.1822 -0.0922
16340W        W32474   3.592  10.135  11.930  0.2270 -0.1115  0.0691
16341W        W32475  15.803   5.205   6.129  0.2990  0.0519  0.0809
16342W        W32476  18.028   2.767   2.840  0.1287 -0.0808 -0.2641
16343W        W32477  12.955   1.984  16.448  0.2226  0.3099  0.0861
16344W        W32478  16.546  16.377   3.322 -0.0453  0.1497 -0.5021
16345W        W32479  17.986   0.703  14.826 -0.4248  0.0806 -0.0464
16346W        W32480   8.240  17.632  15.817 -0.0425 -0.0487 -0.0521
16347W        W32481   4.288   1.018  16.086  0.0320  0.1514  0.0116
16348W        W32482  14.567  16.326   1.530 -0.0076  0.1518 -0.0152
16349W        W32483   2.768   9.553  15.297  0.0624  0.0807 -0.1279
16350W        W32484   1.347  16.369   4.263 -0.1798  0.1214  0.2886
16351W        W32485   6.046   7.276   4.978  0.1250  0.3056  0.1774
16352W        W32486   6.707  15.576   4.095 -0.0828 -0.0247 -0.0070
16353W        W32487   5.635   4.846  11.855 -0.0460  0.0087 -0.0632
16354W        W32488  15.272   1.558   1.156 -0.0767  0.3609 -0.2958
16355W        W32489   9.528  14.772  11.771 -0.0333 -0.1576 -0.0837
16356W        W32490   7.311  10.926   1.087  0.0275  0.3610  0.1987
16357W        W32491  17.364   5.117  13.238 -0.0088  0.2291  0.1381
16358W        W32492   9.986   5.876   3.675  0.1032  0.1082  0.3360
16359W        W32493   9.262  17.352  12.669 -0.4005  0.1427  0.3124
16360W        W32494   5.062  10.584   4.224 -0.4146  0.0175 -0.0704
16361W        W32495  11.700  12.191   0.566 -0.0511 -0.0800 -0.0474
16362W        W32496  16.800  16.584   2.521 -0.0993 -0.2137  0.1734
16363W        W32497   8.369  16.805   2.568 -0.0242  0.1378 -0.0805
16364W        W32498  13.240   6.787  12.066  0.1175  0.0778  0.2635
16365W        W32499  15.340  15.481   5.437  0.5584 -0.2442 -0.1561
16366W        W32500   7.635  16.892  14.303 -0.3596  0.1318  0.2380
16367W        W32501  17.102  16.764  12.739  0.2574 -0.1085 -0.1957
16368W        W32502   9.236   5.317   4.795  0.1748 -0.0344 -0.0665
16369W        W32503  15.858  10.889  13.632 -0.2259  0.0011  0.3762
16370W        W32504  13.752   1.706   1.359 -0.0322 -0.0583 -0.1269
16371W        W32505  18.124  15.928   2.977 -0.0025  0.0791  0.3369
16372W        W32506  16.008   8.842   0.616  0.1435  0.3394  0.3871
16373W        W32507   6.206   3.872   5.607 -0.3253 -0.1867 -0.0069
16374W        W32508  10.640   0.294   3.432 -0.0835 -0.0286  0.3325
16375W        W32509   2.283   9.562  13.912 -0.3535 -0.0152 -0.0680
16376W        W32510   3.915   0.566   4.891  0.0127  0.3224  0.3068
16377W        W32511  14.738   2.424   3.413  0.0384 -0.0552  0.2588
16378W        W32512  15.972  10.685  15.081  0.0850  0.0389 -0.2730
16379W        W32513  17.463   6.660   1.137  0.0822 -0.4366 -0.2579
16380W        W32514  15.695   4.678  15.757 -0.1040  0.1894 -0.1080
16381W        W32515  12.983  16.397   0.158 -0.0036  0.1357  0.0054
16382W        W32516   1.104   7.611  14.261 -0.2173 -0.0183 -0.2432
16383W        W32517  12.094   2.578  16.342  0.4315 -0.0462  0.0084
16384W        W32518   2.347   0.629   2.780  0.2600  0.2964 -0.1160
16385W        W32519   3.384   5.669   3.051  0.3872 -0.1389  0.2728
16386W        W32520  11.420   1.300   2.088 -0.0153 -0.0157 -0.1326
16387W        W32521   1.967   2.313  15.285  0.6796 -0.2226 -0.3640
16388W        W32522   8.101  11.231   1.881  0.0212  0.1375 -0.1161
16389W        W32523   9.075   5.941   6.027 -0.0820  0.1665  0.2636
16390W        W32524  17.906  16.869  13.595 -0.2255  0.0504 -0.1590
16391W        W32525   3.788  13.764  14.407 -0.0733  0.0265 -0.1869
16392W        W32526   2.107  13.689  14.257  0.4537 -0.0163 -0.3140
16393W        W32527   2.840   7.603  12.150  0.0330 -0.0923  0.0305
16394W        W32528   6.190   5.441  12.325 -0.2365 -0.0682  0.1744
16395W        W32529   2.588   8.445  12.460  0.1571 -0.1497  0.2071
16396W        W32530  12.027   2.220   2.982 -0.1817  0.1204 -0.3256
16397W        W32531   3.171  13.681  11.934 -0.1096 -0.3337  0.2175
16398W        W32532  15.853   0.427  12.161 -0.0711  0.0835 -0.1818
16399W        W32533   8.213  12.431   2.775  0.2810  0.0263 -0.2190
16400W        W32534  16.853  15.940  12.964 -0.0368 -0.2938  0.3818
16401W        W32535   7.663  11.220   4.620 -0.2459  0.3020 -0.0605
16402W        W32536  17.566  11.940   2.444  0.2814  0.2026 -0.0893
16403W        W32537  15.845  11.543   1.530 -0.0026  0.0710  0.1585
16404W        W32538  10.224   8.898   0.518 -0.1734  0.1178 -0.2001
16405W        W32539  11.871  17.458  15.049  0.0294  0.1738 -0.2611
16406W        W32540  12.839   5.020   4.874  0.2496 -0.3245 -0.1073
16407W        W32541  10.450  16.276  10.950 -0.1036 -0.0101  0.0575
16408W        W32542   8.173   9.296   4.618  0.1870 -0.0577 -0.0281
16409W        W32543   1.072   7.614   0.114  0.1277 -0.3457  0.3065
16410W        W32544  14.528   9.097  14.903  0.1225  0.1356  0.0535
16411W        W32545  12.723   0.047  15.169 -0.1428 -0.0702  0.3924
16412W        W32546  10.802   2.706  12.601  0.2348  0.1505 -0.0272
16413W        W32547   2.871   1.158  13.576  0.4410 -0.1099 -0.4509
16414W        W32548   4.629  16.869   0.201 -0.0812  0.1791  0.1576
16415W        W32549   5.956  10.762   3.850 -0.0240 -0.1750  0.0795
16416W        W32550  16.192  12.565  16.482  0.0728 -0.0204  0.2266
16417W        W32551   4.963   2.118  13.837 -0.1462  0.1828  0.0160
16418W        W32552  14.242  12.965   0.346  0.0632  0.3595  0.3161
16419W        W32553   1.990   8.009   0.318  0.1105  0.1333 -0.1049
16420W        W32554   0.431   8.319   0.627 -0.3565 -0.1314  0.1794
16421W        W32555  12.776  13.441  14.120 -0.0048 -0.0167  0.0602
16422W        W32556  15.613   9.409  14.499  0.3785 -0.1818 -0.2221
16423W        W32557  13.627  10.121  14.337  0.3804 -0.1326  0.2163
16424W        W32558  16.151   7.172  14.115 -0.1591  0.0271 -0.1455
16425W        W32559   1.495   1.746  15.756  0.0820 -0.0615 -0.1163
16426W        W32560   4.268   7.130  14.589 -0.3610 -0.2278 -0.1148
16427W        W32561  15.031  13.073   5.850 -0.0318 -0.0464 -0.0881
16428W        W32562   9.005  14.427   6.142  0.2737 -0.0373  0.0742
16429W        W32563  17.410   2.035  14.362  0.1669  0.0796  0.0100
16430W        W32564  17.047   4.193   3.959 -0.0647 -0.2473  0.2260
16431W        W32565  15.571  18.077  14.384  0.2328  0.1595 -0.2270
16432W        W32566   9.028   1.270   1.017 -0.1249  0.3145  0.0668
16433W        W32567  17.574  12.233   0.168  0.0198 -0.0257  0.3312
16434W        W32568  15.222   0.100   5.134 -0.1025  0.0311 -0.1559
16435W        W32569   2.107  16.409   4.812 -0.2095  0.3229 -0.4295
16436W        W32570   6.877   8.572  10.671 -0.0013  0.1436  0.1539
16437W        W32571  13.712  10.705   2.069  0.2268 -0.4098 -0.1562
16438W        W32572  12.691  16.705   6.257 -0.3511  0.0401 -0.0940
16439W        W32573  13.905   2.408   2.746 -0.1987  0.0061  0.4913
16440W        W32574  17.067  11.554  13.884  0.1462  0.0156 -0.1171
16441W        W32575   6.933   0.509   5.611 -0.1685  0.1285 -0.3723
16442W        W32576   5.527   9.452   4.863 -0.4031 -0.0858 -0.4244
16443W        W32577   4.847  14.196  11.970  0.5452  0.1324 -0.0412
16444W        W32578   7.678   4.786  15.008 -0.1929  0.0895 -0.5904
16445W        W32579   5.591  14.575  11.718  0.0744  0.0310  0.3095
16446W        W32580  12.018   4.661  10.592 -0.1755 -0.0254 -0.1794
16447W        W32581  17.026  17.470   3.140  0.2514 -0.2365 -0.0695
16448W        W32582   6.931   6.055   4.034 -0.0089 -0.0233  0.1948
16449W        W32583   9.358   6.590   3.040  0.2563  0.0981 -0.2822
16450W        W32584   0.995   7.619  14.940  0.2646 -0.1416 -0.2487
16451W        W32585   9.957   4.586  15.468  0.3458  0.2229  0.1340
16452W        W32586   4.558   8.973  11.308  0.1904  0.3397  0.0067
16453W        W32587  15.346   7.889   4.520  0.0545  0.2465  0.1004
16454W        W32588   7.476  14.401  11.815 -0.4183 -0.2889 -0.0085
16455W        W32589   0.779   9.367  11.507  0.3598 -0.2044 -0.0093
16456W        W32590   9.945  17.682   2.246  0.2334 -0.0563 -0.3000
16457W        W32591  11.686   9.387  10.892 -0.0090  0.1654  0.2347
16458W        W32592   4.678   2.827   4.477 -0.1860 -0.1431 -0.1152
16459W        W32593  13.992  14.326  12.653  0.1747  0.0688  0.1268
16460W        W32594  13.345   2.623   3.740  0.0567  0.0043 -0.2474
16461W        W32595   0.740  14.035  14.011 -0.0726 -0.2413 -0.0476
16462W        W32596   7.687  13.443  13.058  0.3068  0.0835  0.2921
16463W        W32597   8.325   7.889  13.099 -0.1902 -0.0965  0.2270
16464W        W32598   2.302  10.224  13.958 -0.1602  0.0959  0.0812
16465W        W32599   8.620  11.958  14.137  0.0647  0.0608  0.0830
16466W        W32600   9.780   2.013   1.292 -0.1298  0.1771  0.0121
16467W        W32601   8.758  10.337  11.778 -0.2015 -0.2721 -0.0505
16468W        W32602   1.368  13.330   2.085 -0.3190 -0.3340 -0.1116
16469W        W32603   9.432   2.751   2.598 -0.0904 -0.2087 -0.1045
16470W        W32604   0.014  10.885   4.834  0.3220  0.1949  0.2733
16471W        W32605   3.023   4.199   5.644 -0.0219  0.0565  0.4050
16472W        W32606   9.955  16.034   1.670 -0.2299  0.2239  0.0997
16473W        W32607   2.536  15.693  11.928 -0.0756  0.2346 -0.0426
16474W        W32608   9.645   9.006   4.361  0.3257  0.4738  0.0854
16475W        W32609  14.465   8.600   0.140 -0.0633  0.1899  0.1290
16476W        W32610   0.594   6.766  12.787  0.0214 -0.2302  0.1163
16477W        W32611   6.339   1.670   3.491 -0.0723  0.1083  0.1942
16478W        W32612  17.672  10.389  12.150 -0.1263 -0.0220 -0.0049
16479W        W32613   8.873   8.767  11.571 -0.1644  0.4825 -0.0218
16480W        W32614   0.708   3.258  11.630  0.0604  0.0831 -0.1882
16481W        W32615   3.567   7.629   4.634 -0.0215 -0.3427  0.2004
16482W        W32616   3.600   0.618  15.834  0.1835 -0.2256 -0.3840
16483W        W32617   6.421   3.887   3.318  0.1369  0.2758  0.1875
16484W        W32618   3.055   4.717   3.864  0.1241  0.1611  0.0139
16485W        W32619  11.895   6.028  11.266 -0.0615 -0.2277  0.1991
16486W        W32620  15.343   8.815   1.847 -0.2661 -0.0296 -0.1867
16487W        W32621   5.541  10.242  12.312 -0.1662  0.2752 -0.1016
16488W        W32622  13.346   6.280  13.862 -0.0717  0.0586  0.0631
16489W        W32623  10.439   0.682   3.188 -0.1797 -0.2676 -0.0916
16490W        W32624   5.099  16.833   0.908  0.1256  0.0509  0.2871
16491W        W32625  13.926   1.172   3.143 -0.0578  0.2219  0.2258
16492W        W32626   4.835   3.627  13.792 -0.0540 -0.2862  0.2437
16493W        W32627  15.587  12.946   3.384  0.0525 -0.1100  0.1294
16494W        W32628  16.100   5.413  16.179  0.0222 -0.0662  0.0727
16495W        W32629   3.404   8.422  10.313 -0.3120  0.4418 -0.3487
16496W        W32630  13.531  10.290   2.342  0.1344 -0.0940 -0.0116
16497W        W32631  17.622  17.688   4.010  0.2653 -0.0711 -0.1688
16498W        W32632   2.487  11.691   5.734  0.0801  0.1850  0.0535
16499W        W32633   1.115  15.592  15.279 -0.0846 -0.0478  0.0480
16500W        W32634   4.615  13.518  15.703 -0.2122  0.0531 -0.2563
16501W        W32635   7.067   3.349   0.788 -0.2415  0.1889  0.2901
16502W        W32636   3.914   3.768   3.011 -0.3770  0.0237 -0.1443
16503W        W32637   0.933  16.181  13.479 -0.1782  0.0142  0.1918
16504W        W32638   5.113  14.473  11.683 -0.1252 -0.1771  0.0933
16505W        W32639   7.581   5.467   0.601 -0.0183  0.0040 -0.1288
16506W        W32640  14.919  15.557  13.192  0.0234 -0.0982  0.2044
16507W        W32641   9.432   9.592  13.901  0.0891 -0.4121 -0.4593
16508W        W32642   3.973   4.399   6.258 -0.2652 -0.1968  0.0041
16509W        W32643   4.205   3.034   0.411 -0.1572  0.1813  0.0996
16510W        W32644   3.880   1.813  13.877 -0.1007  0.2168  0.2326
16511W        W32645   8.460  16.892   5.199 -0.4294  0.0905 -0.0371
16512W        W32646   4.733   2.646   1.287 -0.0849 -0.0050 -0.0733
16513W        W32647   0.423  16.526   5.273 -0.3949 -0.1601  0.1775
16514W        W32648   5.754   0.079  11.870  0.0483 -0.4589 -0.0164
16515W        W32649   4.795  10.636   3.767  0.1390 -0.0411 -0.0384
16516W        W32650  15.776  15.546  15.107 -0.0685  0.0321  0.1306
16517W        W32651   3.681   4.276  11.905  0.0950 -0.1494  0.0304
16518W        W32652   0.734  15.739  14.527 -0.0578 -0.0647  0.1736
16519W        W32653   6.085  10.375   0.175 -0.1279 -0.2886 -0.2200
16520W        W32654   8.756   3.927   1.994 -0.1432  0.3074 -0.1980
16521W        W32655   3.793  16.253  16.007 -0.0445 -0.1942  0.0674
16522W        W32656  10.007  10.986   5.467 -0.3193  0.1422 -0.0948
16523W        W32657  11.835   6.096  13.497  0.1144 -0.0241 -0.1452
16524W        W32658  12.628  15.748   6.047 -0.0511 -0.0333  0.0765
16525W        W32659   9.682   4.647   1.890 -0.1578  0.0194  0.0244
16526W        W32660  12.499   9.466  14.322  0.1359 -0.4259  0.2217
16527W        W32661   1.430   4.649  13.342  0.2468 -0.0651 -0.1498
16528W        W32662   6.289   3.021   1.002  0.2428 -0.2100 -0.0032
16529W        W32663  18.102   9.603   4.917  0.1505  0.0333  0.1463
16530W        W32664  12.569   7.152   4.552 -0.1664 -0.1715 -0.0422
16531W        W32665   5.138  16.844  15.613 -0.0498  0.3566 -0.0477
16532W        W32666  13.191   6.463   0.513 -0.0376 -0.1295  0.0194
16533W        W32667   9.152   0.022   5.390 -0.3886  0.3220 -0.0076
16534W        W32668  11.256   9.288  12.111  0.2051 -0.0649 -0.0902
16535W        W32669  18.108  10.903  12.216  0.1477 -0.0241 -0.1496
16536W        W32670  10.154   5.630  15.928  0.1917  0.0261 -0.0690
16537W        W32671   4.786  13.789  15.077 -0.3047  0.3295 -0.3503
16538W        W32672  13.479  10.393   5.122 -0.0481 -0.4705  0.2621
16539W        W32673  12.661  17.836   5.495 -0.2811  0.0843 -0.0133
16540W        W32674  12.174   4.528  14.405 -0.0729  0.0137 -0.0772
16541W        W32675   4.640  13.014  14.254 -0.0328  0.1677  0.1558
16542W        W32676  10.766   8.813   0.686  0.1663 -0.0394 -0.1416
16543W        W32677   9.115   0.024  13.010 -0.0306  0.0412 -0.0400
16544W        W32678   3.957   0.691   3.231  0.0177 -0.3047 -0.1990
16545W        W32679  12.736   6.262   0.807 -0.0544  0.0254 -0.1275
16546W        W32680  10.419   4.149  12.604  0.0556 -0.2407  0.1286
16547W        W32681  13.621  10.903   0.978 -0.2417 -0.2029  0.0154
16548W        W32682  11.252  12.658   0.672 -0.4992 -0.1773  0.1483
16549W        W32683  17.171  12.678   1.541  0.0252  0.1499 -0.1050
16550W        W32684  12.193   3.536   2.588 -0.1080  0.1389 -0.0858
16551W        W32685  13.883  14.108   5.961 -0.1332 -0.1417 -0.2840
16552W        W32686  16.188  13.147  13.653 -0.0528 -0.1193  0.0090
16553W        W32687   1.235   6.027  12.882  0.0238 -0.2567 -0.0307
16554W        W32688  13.174   3.935  11.986 -0.1737  0.1731  0.2030
16555W        W32689  11.761  13.077   2.635  0.0415 -0.0467 -0.0332
16556W        W32690  15.006  16.863  14.677  0.2138  0.1340  0.0486
16557W        W32691   2.033  10.491  11.944 -0.0288  0.0264 -0.3765
16558W        W32692   8.936  10.709   3.537  0.2743  0.1912 -0.1491
16559W        W32693   8.215  10.278   4.316  0.0034  0.1035  0.4175
16560W        W32694   5.817  13.468  12.922  0.0456 -0.1716 -0.3299
16561W        W32695  15.869   0.375   3.511 -0.3776  0.2013  0.0043
16562W        W32696   2.252  15.009   5.229  0.0637 -0.2484  0.0839
16563W        W32697   0.686  14.077   1.201 -0.2861 -0.1523 -0.2832
16564W        W32698   9.331  13.847  11.877 -0.0924  0.0867  0.0801
16565W        W32699  14.412  10.468  11.061  0.1981  0.0129 -0.0198
16566W        W32700  11.366  10.250  12.129  0.0275 -0.1015  0.0709
16567W        W32701   3.530   0.841   5.286  0.0050 -0.2224 -0.0652
16568W        W32702   5.346  16.250  14.670  0.0974  0.0727 -0.0769
16569W        W32703  15.531   7.585   2.307  0.0977 -0.0005  0.0790
16570W        W32704   8.491   2.584  12.286  0.1681 -0.1045 -0.0967
16571W        W32705   4.501   2.128   1.285 -0.1724 -0.0535 -0.2808
16572W        W32706  13.450   1.269  15.211  0.0268  0.2336  0.0181
16573W        W32707   2.791   2.579  13.350 -0.0188 -0.1060 -0.2090
16574W        W32708   3.366   8.849   1.448  0.0847 -0.2394 -0.2206
16575W        W32709  11.198   0.185   1.170 -0.0188  0.0986  0.2503
16576W        W32710   2.108  14.227   4.781 -0.0351  0.1114  0.0428
16577W        W32711   2.651  11.010   3.716  0.2818  0.1654  0.1254
16578W        W32712  11.996   5.872  16.239 -0.0764  0.0316 -0.1080
16579W        W32713   4.134   7.405   3.188  0.0416 -0.1827 -0.3896
16580W        W32714   8.327  12.495   1.413 -0.0358 -0.4848 -0.3369
16581W        W32715  12.126   8.845   0.659 -0.0589  0.3508 -0.4318
16582W        W32716  17.177   7.420  12.879 -0.0852  0.1143 -0.0114
16583W        W32717  15.758   1.771  12.687 -0.0143  0.1173 -0.1302
16584W        W32718  11.320   1.522  13.871  0.0795 -0.0206  0.1511
16585W        W32719   6.542   0.813  11.688  0.0684  0.2153 -0.0870
16586W        W32720  13.620   0.798   1.781  0.0072  0.2173 -0.1929
16587W        W32721   7.203  18.052  16.514 -0.0801  0.2615  0.0053
16588W        W32722  12.298   6.620  15.084  0.1831  0.3314 -0.0767
16589W        W32723  12.692  17.665   3.886 -0.1891 -0.0079 -0.0778
16590W        W32724   7.787   7.752  11.291 -0.2612  0.0162 -0.3162
16591W        W32725  13.908  14.956   4.564 -0.0507 -0.1238  0.1893
16592W        W32726   5.487  14.370   0.093 -0.1509 -0.2612  0.0119
16593W        W32727   0.188   1.522   5.208  0.0607  0.0120  0.2648
16594W        W32728   8.254  11.909  13.785 -0.0485  0.1827  0.0843
16595W        W32729   2.552   2.983  15.085 -0.2981  0.1906  0.2448
16596W        W32730   1.225  11.932   0.454  0.2133 -0.0232 -0.5071
16597W        W32731   0.597   4.395  12.351  0.0398 -0.0043 -0.3159
16598W        W32732   3.651  11.911  12.308 -0.1732 -0.2888 -0.1781
16599W        W32733   5.324  14.001  15.831  0.2568 -0.3200 -0.2565
16600W        W32734   8.826   1.323  12.024  0.0036 -0.3277  0.0847
16601W        W32735  14.399  11.925   4.438 -0.1396 -0.1400  0.1042
16602W        W32736  17.669  10.222  15.146 -0.2416 -0.0177  0.0942
16603W        W32737  10.556   9.219   0.348 -0.1502  0.3064  0.0927
16604W        W32738   3.627  15.723   4.030 -0.3572  0.0741 -0.1381
16605W        W32739   5.216   8.876  13.209 -0.2118  0.1102  0.0659
16606W        W32740  13.404   3.425   3.552 -0.1624  0.1501  0.0550
16607W        W32741  11.896  16.431  15.323  0.1290 -0.1084 -0.0675
16608W        W32742   7.183   2.164   4.149 -0.1060 -0.0473 -0.1913
16609W        W32743   9.753  13.513   1.915  0.0201  0.2974 -0.0322
16610W        W32744   6.313  15.225  15.411  0.2363 -0.4910 -0.0950
16611W        W32745   9.423  11.580  15.523  0.3562 -0.2023  0.0996
16612W        W32746   9.118  13.246   3.679  0.1227 -0.3325  0.1299
16613W        W32747   9.013  11.594   4.499  0.1173  0.1523 -0.1176
16614W        W32748  13.253  14.413  12.485  0.0870 -0.1308 -0.3828
16615W        W32749   5.719  11.821   4.629  0.2862 -0.0015 -0.0749
16616W        W32750  10.377   0.828  15.429  0.0104 -0.2130  0.2570
16617W        W32751   6.050   7.433   2.871  0.0009 -0.3571  0.2926
16618W        W32752   6.518   5.819  15.583 -0.1627 -0.2147 -0.0155
16619W        W32753   8.958   1.537   4.020 -0.1117  0.2157  0.0261
16620W        W32754  12.668  15.333  14.484 -0.0612  0.0762  0.2369
16621W        W32755   7.516  11.466  12.248 -0.2423 -0.0215  0.4025
16622W        W32756  12.999   6.916   4.750  0.1295 -0.0423 -0.1554
16623W        W32757  11.901   8.739  15.864  0.2270  0.0428  0.3096
16624W        W32758   2.848   5.630  14.412  0.1639 -0.2021  0.0842
16625W        W32759  15.861  13.907   1.709 -0.0063  0.0071  0.1761
16626W        W32760  18.173   9.170  12.066 -0.2615  0.0234  0.1205
16627W        W32761  14.641   0.828  12.362 -0.1452 -0.4321 -0.0081
16628W        W32762   0.986  13.316   0.735 -0.1664 -0.2311  0.1354
16629W        W32763   4.720   5.222   4.079  0.2086  0.1890 -0.1067
16630W        W32764  15.008   9.563   3.477  0.0036 -0.2114 -0.0188
16631W        W32765  12.351  10.628  16.422 -0.1623 -0.0986 -0.6911
16632W        W32766  16.311   8.275  16.209 -0.0294 -0.0537 -0.1415
16633W        W32767  10.198  10.157   3.004  0.1569 -0.6129  0.0806
16634W        W32768   3.155  11.272   5.007 -0.2923 -0.0511  0.1269
16635W        W32769   4.972  12.671   1.191  0.1392 -0.0159  0.1263
16636W        W32770  14.525   7.157   1.900  0.1923 -0.0565  0.0811
16637W        W32771   3.572   0.039  14.984  0.4583  0.1874 -0.0980
16638W        W32772   9.623  13.602  10.247  0.1539  0.0783 -0.3743
16639W        W32773   9.344   3.968  16.199  0.2072  0.0411  0.1483
16640W        W32774   4.817   7.632   5.123  0.2145  0.1155 -0.0858
16641W        W32775  16.338  13.201  12.173  0.1803 -0.3021  0.3688
16642W        W32776   7.839   3.776  12.244  0.0168 -0.2094 -0.2305
16643W        W32777   8.930   3.841   2.484 -0.2123 -0.3140 -0.1135
16644W        W32778   2.925   6.939  15.971 -0.0645  0.0144  0.0021
16645W        W32779   9.395   0.603   3.093  0.1379 -0.3155 -0.1158
16646W        W32780   2.793   8.125   1.674 -0.4201 -0.1528  0.1255
16647W        W32781  13.872  11.732   2.937 -0.3467 -0.1371 -0.1974
16648W        W32782   6.124   3.810  13.090 -0.0335  0.1036 -0.0744
16649W        W32783   8.540  13.425  12.670  0.0990  0.1951  0.1740
16650W        W32784  15.669  14.645  12.528  0.1641  0.4296 -0.0579
16651W        W32785  17.684  11.399  11.944  0.1374  0.0600 -0.0245
16652W        W32786   7.718  10.578  10.754  0.0660 -0.1694  0.1315
16653W        W32787   9.084   5.695   5.237 -0.0499 -0.0739  0.0001
16654W        W32788  13.078   3.408   1.581  0.1970  0.1585  0.0692
16655W        W32789  12.135   0.856   3.865 -0.0631  0.0430  0.3250
16656W        W32790  17.544   1.757  15.460  0.1935 -0.1972  0.1287
16657W        W32791  12.209  13.290  13.555 -0.2674 -0.0381 -0.2369
16658W        W32792   0.141   5.138   4.717  0.2966 -0.0601 -0.1204
16659W        W32793  16.765  14.102  14.805  0.1243 -0.0760 -0.1829
16660W        W32794   5.634  12.375  14.889 -0.1800 -0.0442 -0.0908
16661W        W32795   0.426   0.722   3.228 -0.3544  0.2290  0.2456
16662W        W32796  17.170   5.709   1.317  0.3696 -0.0285 -0.1369
16663W        W32797  13.605  12.473  14.569  0.1517 -0.2479 -0.0076
16664W        W32798  17.611   0.177  13.574  0.1565 -0.0874 -0.2369
16665W        W32799  16.761  14.576  15.286  0.2290  0.1471  0.0204
16666W        W32800  11.005   3.696   4.408  0.0042 -0.0862 -0.2001
16667W        W32801   0.653  15.470   2.225 -0.0126 -0.0186 -0.2577
16668W        W32802  14.569  14.025   3.211 -0.3377  0.0506 -0.0529
16669W        W32803   0.314  16.032  12.783  0.5098  0.1275 -0.1373
16670W        W32804   2.885   9.003  13.337 -0.1224  0.1444 -0.3771
16671W        W32805  11.680  13.382  12.262  0.1886  0.0255 -0.0681
16672W        W32806  15.111  10.274  15.173 -0.2950  0.2046 -0.0443
16673W        W32807  18.071   2.949   1.195 -0.0798  0.2037  0.3219
16674W        W32808  10.626  10.558  15.470  0.0551 -0.0798  0.1620
16675W        W32809  12.225  10.624   3.849  0.0823  0.5881  0.1432
16676W        W32810  11.269  11.958  16.296  0.3064  0.2525  0.5717
16677W        W32811  17.434  11.122   0.965  0.0443  0.1533 -0.1078
16678W        W32812  12.854   6.385   4.519 -0.0022  0.4530  0.1242
16679W        W32813  16.329   4.298  11.480  0.0431 -0.0974  0.1016
16680W        W32814  14.338   2.422   3.867 -0.1782 -0.1129 -0.0782
16681W        W32815  11.053  11.332  16.057  0.2654 -0.1061 -0.1368
16682W        W32816   7.094   7.553  12.341  0.1891 -0.0760  0.0196
16683W        W32817  10.539   9.334   1.230  0.4974  0.0246 -0.1327
16684W        W32818  10.031  12.009  11.078 -0.3487  0.0224 -0.1854
16685W        W32819   5.036  13.845  12.275 -0.2530 -0.2135 -0.1219
16686W        W32820   5.960  10.561  16.204 -0.1966 -0.2144  0.3579
16687W        W32821  14.860  11.641   4.704 -0.0262  0.1700  0.1398
16688W        W32822  14.820   6.282   4.168 -0.0240  0.0060  0.1537
16689W        W32823   4.268   8.715  12.377  0.2699 -0.1439  0.0157
16690W        W32824  12.878  11.163   0.971 -0.0696 -0.0461 -0.0478
16691W        W32825   0.991   0.252  12.474 -0.2250  0.1610 -0.1072
16692W        W32826   1.257  11.495  12.638 -0.1218 -0.0098 -0.1413
16693W        W32827   7.011   6.174   0.577 -0.0277  0.0014  0.1254
16694W        W32828   7.149   0.494   3.800  0.0867 -0.0400  0.2186
16695W        W32829   6.678   1.680  15.580  0.0899  0.0253 -0.2891
16696W        W32830  14.483  17.156  12.461 -0.0051  0.1442 -0.2147
16697W        W32831  13.513   7.146   4.566  0.3753 -0.0830  0.2571
16698W        W32832   5.568  12.947  11.452  0.0175 -0.2375  0.0243
16699W        W32833  12.095   5.259   2.267 -0.1369 -0.0517  0.2056
16700W        W32834   4.195   5.786  11.776  0.0187 -0.3078  0.0986
16701W        W32835   8.102   7.189  15.392 -0.2372  0.0922 -0.0647
16702W        W32836  12.946   0.992   5.676  0.0931  0.0965  0.0412
16703W        W32837  18.028   7.506   1.529  0.0490 -0.0957 -0.3006
16704W        W32838   1.984  16.832  15.364 -0.0573  0.1565  0.1028
16705W        W32839   7.401   6.699   4.757 -0.0898 -0.0933  0.1216
16706W        W32840  11.304   1.523   5.092 -0.0164  0.0875 -0.2960
16707W        W32841  13.661  12.996   4.116  0.1167  0.2650 -0.2231
16708W        W32842  12.519  14.764  12.664 -0.0301  0.0539  0.1279
16709W        W32843  14.942   5.512  12.716  0.1088 -0.0985 -0.1493
16710W        W32844  18.159  13.726   1.140 -0.2687 -0.1904 -0.1155
16711W        W32845   9.086   2.867  12.122 -0.0304  0.0561  0.1250
16712W        W32846   6.599  11.653   1.962 -0.1297  0.2006 -0.1849
16713W        W32847   2.698   6.776  16.468 -0.3071 -0.1356 -0.2512
16714W        W32848   5.108  14.755   5.152 -0.5166  0.0528  0.1594
16715W        W32849  11.055  10.886  15.813 -0.3348 -0.1356 -0.1053
16716W        W32850   7.119  13.476  11.380 -0.0646  0.2705 -0.1404
16717W        W32851  16.967  14.848  16.029  0.1200 -0.1436  0.2044
16718W        W32852   0.488  12.892   0.658  0.1721 -0.3084  0.0095
16719W        W32853  11.584   7.977   1.019 -0.4205 -0.1288  0.0772
16720W        W32854   3.863  15.551   0.930  0.1058 -0.2941 -0.0799
16721W        W32855   5.790   3.553   5.421 -0.2478  0.0873 -0.5137
16722W        W32856   3.206   7.582   3.278  0.0099 -0.0232 -0.0960
16723W        W32857  14.622   2.982   0.829 -0.2900  0.2127 -0.1292
16724W        W32858   5.884   4.707   2.235 -0.1519  0.1481  0.0584
16725W        W32859  13.868   0.073  12.060 -0.1553  0.1325 -0.1796
16726W        W32860   6.239   8.923   1.494 -0.0325 -0.1147  0.2088
16727W        W32861   4.183  15.312   1.895  0.0491 -0.3108 -0.3098
16728W        W32862  13.571  10.242  12.691  0.2165 -0.1068 -0.1423
16729W        W32863   6.897  13.236  12.441 -0.0019 -0.0867 -0.0341
16730W        W32864  14.701  14.961   3.774 -0.0775  0.3012  0.0509
16731W        W32865   5.768   1.925  11.987 -0.1636 -0.1909 -0.1841
16732W        W32866  14.368   2.591  10.675  0.2568  0.1213  0.0576
16733W        W32867   7.987   9.134   0.771  0.2397  0.0837  0.0113
16734W        W32868  13.492  16.408   3.723 -0.0915  0.0651 -0.0375
16735W        W32869  16.986   0.949  14.428  0.2085  0.0465  0.1615
16736W        W32870  12.074   8.556  11.684  0.1871 -0.1129 -0.0467
16737W        W32871  16.679  16.658   0.430 -0.3128 -0.1201  0.4510
16738W        W32872  13.522   8.634  10.512  0.0719 -0.0971  0.2306
16739W        W32873  12.541   2.725   4.712 -0.3083 -0.0018 -0.1039
16740W        W32874  12.503  10.255  16.116 -0.0492  0.0195  0.1534
16741W        W32875  10.316  16.721  12.265  0.1915  0.0382 -0.4513
16742W        W32876  16.899  16.626   4.748  0.1945  0.2569  0.0127
16743W        W32877  17.392  14.069   4.302 -0.2066 -0.0200 -0.1042
16744W        W32878   3.107   5.967  13.179 -0.0725 -0.0992 -0.1648
16745W        W32879  15.428  14.132   0.976 -0.0317 -0.0071  0.2355
16746W        W32880   4.543  11.933   3.231  0.2155 -0.1769 -0.0856
16747W        W32881   4.777   1.531  13.506 -0.2711 -0.0379 -0.0124
16748W        W32882  13.988  17.844  14.361  0.2195  0.2904 -0.0629
16749W        W32883   0.049   1.646   1.802  0.5242 -0.2384  0.0542
16750W        W32884   7.047  16.627   5.931 -0.0365 -0.2142  0.0644
16751W        W32885  16.083   3.895  14.890  0.1355  0.0896  0.4049
16752W        W32886  10.992  10.785  13.257  0.2757  0.0814  0.0470
16753W        W32887  10.684   8.456  10.751  0.0422  0.2396 -0.1296
16754W        W32888   8.003  12.552  16.384  0.2457  0.1910  0.1024
16755W        W32889  14.636  10.827  14.054  0.3079  0.1402  0.1005
16756W        W32890  15.176   5.413   1.668  0.0996 -0.0257 -0.0085
16757W        W32891   6.697  12.865  13.413 -0.3186 -0.1255 -0.6442
16758W        W32892   3.039   9.896  14.389  0.1914 -0.2635  0.2137
16759W        W32893  12.555  12.373   1.190 -0.0108 -0.1227 -0.3141
16760W        W32894  13.840   8.713   1.484 -0.0355 -0.0318  0.0346
16761W        W32895   1.544   0.170   2.915 -0.2727 -0.0794 -0.0467
16762W        W32896   2.162   7.234  15.828  0.0159 -0.0149  0.0561
16763W        W32897  10.318   4.449   6.084  0.0710 -0.3538  0.0924
16764W        W32898   1.427   6.129  12.370  0.0976  0.3897  0.1249
16765W        W32899  14.919   8.282  14.944  0.2694  0.1015  0.2540
16766W        W32900  16.917   6.393  13.178  0.2047  0.3640 -0.1960
16767W        W32901   8.782   7.312  12.299 -0.1265  0.0744  0.0926
16768W        W32902   7.071  11.805   1.147  0.1798 -0.1372 -0.1990
16769W        W32903  13.137   3.246   2.092  0.0506 -0.0722 -0.1664
16770W        W32904   8.354   7.800   2.504 -0.0295 -0.1414  0.1176
16771W        W32905   9.196   7.999   3.872 -0.0145  0.1976 -0.0862
16772W        W32906  16.276   2.497  12.983  0.0969 -0.0685  0.2122
16773W        W32907   1.333   7.123  15.197  0.0729 -0.0106 -0.0224
16774W        W32908  16.524   4.495   5.848  0.0769  0.0769  0.1100
16775W        W32909   9.275  12.041  15.488 -0.0627 -0.0171  0.1985
16776W        W32910  14.951  11.234   4.434 -0.1130  0.0123 -0.1026
16777W        W32911  14.582   0.818  15.749  0.2349  0.1887 -0.0222
16778W        W32912   9.746   6.368   5.500 -0.0647 -0.4731  0.0049
16779W        W32913  10.790   6.989  15.104  0.0765 -0.0933  0.1062
16780W        W32914   1.772   3.934  15.538  0.3935  0.3113 -0.1997
16781W        W32915   5.748  17.410   0.517  0.2462  0.0243  0.0236
16782W        W32916  10.207   6.795  11.281 -0.1496 -0.1469  0.1938
16783W        W32917   4.898  10.049   4.025 -0.0635 -0.0782 -0.1382
16784W        W32918   5.677   1.856   3.118  0.1275  0.1457  0.0038
16785W        W32919   0.199  14.716  15.134 -0.0105  0.1084 -0.0212
16786W        W32920   8.731  14.447   5.116  0.0288  0.0489 -0.0829
16787W        W32921  16.405  13.675  13.406 -0.0813  0.1276 -0.0338
16788W        W32922  15.931  11.540  12.921  0.1218 -0.0445 -0.2404
16789W        W32923   1.256  12.076  12.005  0.1814  0.2140  0.0896
16790W        W32924   0.651  17.020   5.697  0.1466  0.0889 -0.3267
16791W        W32925   4.673  15.638  12.083  0.1724  0.1538  0.0621
16792W        W32926   7.692   4.382  15.387  0.2199  0.1377  0.2581
16793W        W32927  14.484  15.163   6.520 -0.0403 -0.0648 -0.1375
16794W        W32928   9.011   8.118   0.411 -0.1309 -0.2408  0.0089
16795W        W32929  16.328   5.477   0.452 -0.1262 -0.5621 -0.2261
16796W        W32930   6.567   8.443  13.283 -0.0752 -0.1244  0.1106
16797W        W32931   2.472   4.931   4.650  0.1592  0.3046 -0.2991
16798W        W32932   3.947  10.628  12.067  0.1099  0.0281  0.1093
16799W        W32933  11.312   6.283   0.579 -0.2366 -0.3021  0.0050
16800W        W32934  15.824  16.198  16.171 -0.3119  0.2978  0.0488
16801W        W32935  13.794  12.874  15.321  0.0388  0.0686  0.4363
16802W        W32936   9.913   7.199   3.626  0.0076  0.1276 -0.0661
16803W        W32937   1.115  14.223   1.476 -0.1286  0.2550 -0.0401
16804W        W32938  10.975  11.376  11.083  0.1947 -0.0199  0.1937
16805W        W32939   6.991   7.253   3.520  0.0231  0.2001 -0.0547
16806W        W32940   4.689   4.382  12.770  0.1942  0.0641 -0.0763
16807W        W32941   8.761   8.682  10.567 -0.0737 -0.2726  0.1249
16808W        W32942   2.224  15.471   0.525  0.4676  0.3263  0.2321
16809W        W32943  10.725   0.689  15.770  0.3125 -0.2985  0.0922
16810W        W32944   1.634  10.965  11.341  0.0617 -0.1205 -0.0716
16811W        W32945  11.196  12.934  14.656  0.2091  0.0658 -0.3077
16812W        W32946  16.055  18.052  13.609 -0.0032 -0.1008 -0.0876
16813W        W32947  14.918   7.207   3.005  0.0618 -0.1993 -0.3009
16814W        W32948  11.845  16.924  15.016  0.0496 -0.0147  0.0299
16815W        W32949   0.437  16.407   4.320 -0.1256 -0.0232  0.0151
16816W        W32950   7.631   1.646   0.079 -0.3612 -0.2110  0.2682
16817W        W32951  11.049   9.425  12.579 -0.1265  0.1733  0.2274
16818W        W32952  17.552   4.622  12.369 -0.2069 -0.2823 -0.3107
16819W        W32953  12.175   5.956   0.171  0.2278  0.1837 -0.1882
16820W        W32954  13.372   5.844   1.318 -0.0782  0.1197  0.1041
16821W        W32955  10.953   6.739  14.150 -0.0629  0.1093  0.1252
16822W        W32956   3.087  11.780   2.990  0.1377  0.2911 -0.2369
16823W        W32957   4.655   1.502   6.072  0.2140 -0.3597  0.0088
16824W        W32958   4.676  16.629   2.232  0.0649  0.0641  0.0666
16825W        W32959  13.757  17.708   1.619  0.1587 -0.0152  0.0166
16826W        W32960   4.012  13.783  11.738  0.0963 -0.3845 -0.1295
16827W        W32961  12.612   2.195  15.463  0.2326  0.3021 -0.0643
16828W        W32962  10.259  13.572  11.916 -0.0321 -0.0183  0.2408
16829W        W32963   1.654   8.090   2.830 -0.0676 -0.1677 -0.1117
16830W        W32964   2.978  15.930  11.910 -0.0210 -0.0501 -0.2483
16831W        W32965  10.659  16.134  13.489 -0.0771  0.0326  0.1165
16832W        W32966  14.397   8.439   1.728 -0.0703  0.1516 -0.1838
16833W        W32967  17.180  11.444   2.075  0.1190  0.1285  0.2854
16834W        W32968  16.336  16.162   4.129  0.2607 -0.0358 -0.2492
16835W        W32969  16.462   7.924   1.615  0.2541  0.2247  0.0284
16836W        W32970   4.411  15.050  14.809 -0.1095 -0.1590  0.0832
16837W        W32971  17.630   5.956   5.129 -0.1092  0.0626 -0.1296
16838W        W32972  11.319   9.005   2.266 -0.0304 -0.1333 -0.0419
16839W        W32973  15.439   3.472   4.668  0.4204  0.1065 -0.2409
16840W        W32974   5.807  14.865   0.784 -0.0930  0.0680  0.0752
16841W        W32975  14.741   5.062   4.825 -0.2885 -0.1671  0.0505
16842W        W32976  14.979   5.182   3.818  0.0427 -0.0589  0.0477
16843W        W32977   4.235   0.988  14.976 -0.2135 -0.0482 -0.2839
16844W        W32978   4.804   0.765   0.827  0.1295  0.4583  0.3429
16845W        W32979   9.758   4.920  12.595 -0.1506  0.2497  0.1455
16846W        W32980   8.569  11.696   1.278  0.1499 -0.0165 -0.0324
16847W        W32981   2.575  12.228  16.282  0.0495  0.0701 -0.0025
16848W        W32982   1.088   9.144  13.228  0.0011 -0.1362  0.1278
16849W        W32983  12.042   7.244   2.787 -0.0912 -0.1292  0.1008
16850W        W32984   5.730  10.597   1.425  0.0330 -0.1679 -0.1060
16851W        W32985  10.256  14.693  15.124 -0.0543 -0.0428 -0.1830
16852W        W32986  15.094  14.565   4.318 -0.2768  0.2352  0.4134
16853W        W32987   3.079   0.968   5.142  0.1353 -0.0492 -0.1504
16854W        W32988  12.881   5.346  13.499  0.0321 -0.0143 -0.4469
16855W        W32989   2.234   7.816  13.864 -0.0743  0.1381 -0.0984
16856W        W32990  16.809   9.025  11.387 -0.2428  0.0249  0.0409
16857W        W32991   7.637  13.852   4.094  0.2802 -0.1226  0.0945
16858W        W32992  18.077  16.202   4.373 -0.0556  0.1688  0.0436
16859W        W32993   3.307  10.764   2.281  0.1328 -0.2008 -0.0037
16860W        W32994   6.987  11.547  11.877 -0.0798 -0.0247 -0.1433
16861W        W32995   6.989   6.127   0.067 -0.0242 -0.1331 -0.0232
16862W        W32996  12.959  11.813   3.977  0.1959  0.0561 -0.0674
16863W        W32997  14.186   5.328  13.457 -0.1047  0.0846 -0.1239
16864W        W32998  14.985  15.799   0.464  0.2423  0.2994 -0.2199
16865W        W32999   1.633  11.698   0.555 -0.1319  0.1473 -0.1628
16866W        W33000   4.872  16.262  14.516 -0.0638  0.1519  0.4301
16867W        W33001   7.904   1.115  13.857 -0.3289  0.0846 -0.0745
16868W        W33002   7.341  14.867  11.822 -0.3195 -0.1074 -0.1891
16869W        W33003  11.922  15.636   4.400  0.0207  0.0956 -0.1218
16870W        W33004  12.217  13.328   0.060 -0.0505  0.2861 -0.0639
16871W        W33005   7.069   2.303  12.141 -0.1828  0.0647 -0.2240
16872W        W33006  13.348   0.619   1.349  0.3185  0.1190 -0.0851
16873W        W33007  16.286  16.044   4.614  0.3314 -0.0134  0.0012
16874W        W33008  10.541   8.184  14.537  0.0268 -0.1283  0.0386
16875W        W33009  16.440  17.090   3.188 -0.1753  0.1075  0.0085
16876W        W33010   7.809  11.286  14.513  0.1323 -0.0596  0.2380
16877W        W33011   9.124   1.354   5.388  0.0512 -0.1289  0.0977
16878W        W33012   8.290   3.544  12.386  0.0970 -0.1413  0.0923
16879W        W33013  11.699   4.241   3.029 -0.0742  0.1619  0.0142
16880W        W33014   3.005  11.315   3.965 -0.0900 -0.1212  0.0461
16881W        W33015   5.441  15.446  13.513  0.0126 -0.2094 -0.1785
16882W        W33016  12.924   3.521  12.265 -0.2578  0.6774  0.2315
16883W        W33017  11.603  14.605  15.056 -0.0527 -0.1460 -0.0894
16884W        W33018   8.020   5.660  15.441 -0.3075 -0.0409 -0.3464
16885W        W33019   6.151  13.024   5.946  0.0944 -0.1766 -0.2527
16886W        W33020  15.626  14.650   4.378 -0.0176  0.0393  0.1598
16887W        W33021  11.112   5.637  11.522 -0.0262 -0.1616 -0.1733
16888W        W33022   8.102   1.610   5.623 -0.0590 -0.1307  0.1118
16889W        W33023  11.082  11.512  13.105 -0.0882 -0.1321 -0.1323
16890W        W33024   7.155  11.500   2.012 -0.0932  0.1899 -0.0723
16891W        W33025  11.361   8.700  12.691 -0.1574 -0.1384  0.0067
16892W        W33026   8.151   7.964   2.053  0.1208 -0.1409  0.2069
16893W        W33027  16.520   9.314   1.327  0.0999  0.2783 -0.0146
16894W        W33028   5.673   6.938  12.026  0.2043 -0.3898  0.0918
16895W        W33029  15.028   1.211   3.148 -0.1854  0.3654 -0.0263
16896W        W33030  11.685  13.339  14.526  0.1833  0.1197 -0.0559
16897W        W33031  14.775  12.378  11.654  0.0160 -0.1299  0.0131
16898W        W33032   8.953   8.312  13.352 -0.0740  0.1064  0.2615
16899W        W33033   8.783   7.713   0.139 -0.1408 -0.1530 -0.0710
16900W        W33034   2.959  17.434   1.954  0.0350  0.1671 -0.0572
16901W        W33035   0.108  14.733  13.152  0.2161  0.0844 -0.1041
16902W        W33036   4.927   3.655  11.711  0.1872  0.1323 -0.3202
16903W        W33037  13.837   6.556   0.855 -0.3081  0.1288  0.1611
16904W        W33038  14.101   7.429  15.566  0.0091  0.1120 -0.0169
16905W        W33039   7.446   6.133  14.165  0.0352 -0.1111 -0.2483
16906W        W33040  12.807   8.212  12.494 -0.0012  0.2428 -0.3193
16907W        W33041   8.752  13.847   2.257  0.1360  0.2585  0.1602
16908W        W33042   7.211   9.190  16.090 -0.0653 -0.4114  0.2279
16909W        W33043  10.862  16.041   4.994 -0.0139  0.0572  0.0615
16910W        W33044   0.647   7.537  14.043 -0.2055  0.1078  0.0113
16911W        W33045  13.210   9.842   2.867 -0.0121 -0.0717 -0.0436
16912W        W33046   0.604  15.994   3.201  0.2455 -0.0101  0.1513
16913W        W33047  12.119   0.361  13.142 -0.3527  0.1523 -0.1797
16914W        W33048   4.712   9.870   2.577  0.0513  0.1475 -0.1466
16915W        W33049   6.897  15.210  16.492  0.2729  0.2104 -0.0116
16916W        W33050   5.026  13.538   0.964 -0.0771  0.0638  0.2039
16917W        W33051   0.733   1.156   4.462  0.1374 -0.2272 -0.0998
16918W        W33052  10.754   3.791   1.995 -0.1960  0.0261  0.0703
16919W        W33053  10.236  12.023  15.200 -0.1162 -0.2872 -0.0098
16920W        W33054  14.708  12.150   2.688  0.0059  0.0662 -0.4797
16921W        W33055   4.875   0.039   2.778 -0.0242 -0.2804  0.0856
16922W        W33056  16.191   0.079   3.758  0.1746  0.0461  0.0146
16923W        W33057  10.367  10.674   5.443  0.0872  0.2688  0.1218
16924W        W33058  13.532  13.831  13.882  0.0909 -0.0852  0.0709
16925W        W33059   1.581  13.266  12.405  0.3419  0.2014 -0.1834
16926W        W33060   1.579  14.249  14.871  0.2624 -0.1900 -0.0386
16927W        W33061   9.074  17.746   0.862 -0.1680 -0.1058  0.1512
16928W        W33062  14.699   4.602  13.541 -0.0192  0.1370 -0.1320
16929W        W33063   6.738  15.383  13.954 -0.2068  0.0692 -0.0652
16930W        W33064   9.400   2.503  13.750 -0.1962 -0.0355  0.1867
16931W        W33065   5.265   6.129   5.827 -0.2037 -0.1178  0.1692
16932W        W33066   4.508  15.753   5.232  0.0300 -0.2716  0.0814
16933W        W33067  16.076   4.273  15.531  0.1243 -0.0864  0.0460
16934W        W33068  17.372  16.800  13.964 -0.0712 -0.4686  0.1075
16935W        W33069   6.470   8.046  14.484 -0.1816  0.0354 -0.1200
16936W        W33070   5.741   8.118   2.560 -0.0463  0.3945  0.1378
16937W        W33071  12.581   1.882  11.889  0.1451 -0.0423  0.1721
16938W        W33072   6.908  13.370   4.643 -0.1274 -0.1883  0.2952
16939W        W33073   1.412   1.017  14.562  0.2670  0.2377 -0.0941
16940W        W33074  16.797   6.949   4.611  0.0186 -0.1540 -0.0222
16941W        W33075  12.698  10.737  11.492  0.0680  0.0496  0.1700
16942W        W33076  17.544  13.577  15.861 -0.1721 -0.4185 -0.1052
16943W        W33077   6.407  11.885  14.923 -0.0073  0.0935  0.1486
16944W        W33078  16.129  14.902   0.090 -0.0154  0.1471 -0.5028
16945W        W33079   8.630   8.463   4.265 -0.0948 -0.1117 -0.0567
16946W        W33080  17.548  12.828  13.960  0.1296  0.0504  0.1175
16947W        W33081   1.247  15.195   3.379 -0.0016  0.1314  0.0949
16948W        W33082   7.727   4.988  16.408  0.2394  0.1679 -0.3216
16949W        W33083   7.834  17.060   1.457  0.1637 -0.1680  0.0720
16950W        W33084  10.375   1.746  11.982 -0.0243  0.0496 -0.0098
16951W        W33085   5.917   5.269   0.492 -0.0638  0.2380  0.0615
16952W        W33086   8.130  11.846  12.055  0.0817 -0.0595 -0.5137
16953W        W33087   7.747  11.279   4.118  0.0400 -0.2541 -0.1559
16954W        W33088   6.657   3.742  15.391 -0.3366 -0.0349 -0.2498
16955W        W33089   3.662   8.086   4.411 -0.1419  0.2179 -0.0440
16956W        W33090   5.810   3.514   2.518  0.1230 -0.3221 -0.1635
16957W        W33091   5.665  10.923  12.867 -0.4142  0.0489 -0.1162
16958W        W33092   8.907   6.117  15.063 -0.0062 -0.0403 -0.0430
16959W        W33093  17.585   2.544  14.150  0.4936  0.0600  0.0321
16960W        W33094   3.568  13.744  12.225  0.0209  0.1005  0.4140
16961W        W33095   7.520   6.489   3.817 -0.2619  0.0587 -0.0611
16962W        W33096   1.937   1.584  15.586 -0.2276  0.0493  0.0242
16963W        W33097   1.077   5.022  15.701 -0.2565  0.1990 -0.2319
16964W        W33098   9.212  11.681   1.114  0.2016  0.1560 -0.2516
16965W        W33099   5.494   4.667   5.578 -0.0021 -0.1770 -0.1633
16966W        W33100   0.115   1.026   2.921  0.0435  0.3993  0.0780
16967W        W33101   2.504   4.195   2.989 -0.0515  0.0104 -0.1853
16968W        W33102  15.379  13.788   0.272 -0.0999  0.0048 -0.0185
16969W        W33103  11.095   2.402  12.089 -0.1803  0.1268  0.1663
16970W        W33104  15.151   2.355   2.049  0.2528 -0.0526 -0.3702
16971W        W33105   6.292   2.087   1.710 -0.2071  0.1545 -0.2437
16972W        W33106   4.112  12.791   4.747 -0.1723  0.0588 -0.1051
16973W        W33107   1.082   5.420  13.717  0.4410  0.1701  0.0354
16974W        W33108   4.692  13.777  12.726  0.0603 -0.2064 -0.1105
16975W        W33109  13.596   5.874   0.431 -0.1477  0.1708  0.1785
16976W        W33110  10.808   6.573  10.861  0.0990 -0.1416  0.0948
16977W        W33111  15.974   0.878  12.356  0.0098  0.0947 -0.0202
16978W        W33112   7.687  13.905   2.321 -0.2493 -0.2087 -0.1787
16979W        W33113   0.067  15.630   4.979  0.0936  0.2726 -0.2512
16980W        W33114   0.265   6.485  14.167 -0.0624  0.0746 -0.2379
16981W        W33115   2.452  11.628   4.818  0.2816 -0.3176  0.0170
16982W        W33116  11.276  16.111  12.426  0.0145  0.2324  0.0339
16983W        W33117   9.217   7.622   1.319 -0.3679  0.1065  0.2824
16984W        W33118   1.137   9.467   5.138 -0.0163 -0.1250  0.1015
16985W        W33119  13.132   7.493  13.469  0.0301 -0.0337  0.2295
16986W        W33120   0.059  14.962  11.925 -0.0531 -0.0006  0.1431
16987W        W33121  12.199  10.891   3.309  0.1946  0.2208  0.0450
16988W        W33122   5.744  17.162  16.277  0.2437 -0.0560 -0.0755
16989W        W33123   3.303   1.193  11.184  0.0143 -0.1958 -0.0294
16990W        W33124  16.704  11.767   5.398 -0.0672 -0.1078  0.5206
16991W        W33125  15.737   5.504   3.597  0.0405 -0.2155 -0.1960
16992W        W33126  10.203   0.151   3.183 -0.0196 -0.1231  0.2958
16993W        W33127   0.213  17.406  16.052  0.1395  0.3167 -0.0448
16994W        W33128  13.054   1.065   4.848  0.0848 -0.0202  0.2662
16995W        W33129   1.544   9.270   5.694 -0.1399  0.0951  0.0850
16996W        W33130   8.675  10.565   2.155 -0.2606  0.3531  0.2914
16997W        W33131  15.487  15.557   1.090 -0.2069  0.2057  0.2041
16998W        W33132  11.092   8.194   1.249 -0.1487 -0.0079 -0.0753
16999W        W33133  12.749  10.028  10.960 -0.1358  0.0163 -0.1598
17000W        W33134  10.693  11.784  16.128 -0.1495 -0.2463  0.0488
17001W        W33135  10.261   4.298  13.082  0.4078 -0.0666 -0.1501
17002W        W33136   8.069   2.287  11.708  0.0264 -0.1920  0.1727
17003W        W33137  15.151   6.358  14.469 -0.1053  0.0864  0.1634
17004W        W33138  15.889   3.255   2.862  0.1046  0.0454  0.1134
17005W        W33139  10.929   2.050  15.621 -0.0660  0.0835 -0.0653
17006W        W33140   7.859  16.788   0.418  0.1630  0.0727 -0.0831
17007W        W33141   0.114   4.577   4.705  0.1887  0.0515 -0.2211
17008W        W33142   1.570  14.588   2.300  0.2144 -0.0345 -0.0246
17009W        W33143  14.571   7.763   5.152  0.1246 -0.2896 -0.0951
17010W        W33144   9.313   8.911  14.638 -0.2105  0.2706 -0.0491
17011W        W33145  15.808   9.183  11.318 -0.0632 -0.2508  0.1112
17012W        W33146  13.540  17.077   0.968  0.1642  0.2884  0.1386
17013W        W33147  16.154   7.392   2.373 -0.0655 -0.0838 -0.3199
17014W        W33148   8.158  17.366   4.043  0.1177 -0.2447 -0.3024
17015W        W33149   1.896   4.061   1.199 -0.0281  0.3063 -0.0437
17016W        W33150   8.774  12.406   4.493 -0.0344  0.1078  0.0367
17017W        W33151   5.814  12.477  11.282  0.0080 -0.0190 -0.0483
17018W        W33152  14.860  13.220  12.603 -0.1926  0.2281  0.1412
17019W        W33153  16.412  10.829  12.858 -0.4456 -0.0300 -0.2515
17020W        W33154  10.851  16.016   1.542 -0.1205  0.1427 -0.0960
17021W        W33155  12.318   2.876   3.671 -0.1610 -0.0308  0.2095
17022W        W33156   3.492   3.510   1.510 -0.2088  0.1650 -0.0506
17023W        W33157  17.580   6.700   4.601 -0.1895 -0.0430 -0.1965
17024W        W33158   1.662   3.420  13.604 -0.0078 -0.2073  0.2082
17025W        W33159  18.051   0.442   4.731 -0.4210 -0.2446  0.0694
17026W        W33160   4.990  11.107   2.927 -0.0171 -0.0003  0.2219
17027W        W33161  15.019  12.407   3.969  0.1037  0.0952 -0.1098
17028W        W33162   3.965  14.369   4.530 -0.0338  0.0129 -0.0165
17029W        W33163   5.925   2.714   0.870  0.0430 -0.0227 -0.2050
17030W        W33164   6.244   8.267   0.880 -0.3152 -0.0381  0.3673
17031W        W33165   9.827   7.422   0.494 -0.0048  0.3206 -0.0393
17032W        W33166   1.359  13.697   3.294  0.2108  0.1506 -0.3152
17033W        W33167  17.115   0.736   2.583  0.1194  0.1768  0.0432
17034W        W33168   9.287   6.744   0.240  0.1068 -0.3549  0.1544
17035W        W33169   9.870   6.330  13.983  0.1730  0.0200 -0.2128
17036W        W33170   7.098   1.506   5.692 -0.1882 -0.3048  0.0246
17037W        W33171  13.128   8.364   2.701  0.1431  0.0439  0.0425
17038W        W33172   3.851   4.713   4.694  0.2687  0.2044  0.1804
17039W        W33173   5.107   6.355   2.005 -0.0923 -0.0268 -0.0057
17040W        W33174   9.894   3.909  12.594  0.0827  0.2773 -0.1180
17041W        W33175  12.274  14.219   2.705 -0.1538 -0.3327 -0.1558
17042W        W33176  10.751  13.597   3.236  0.1128 -0.1240 -0.0525
17043W        W33177   5.429  13.360  14.642 -0.2419 -0.0182 -0.1098
17044W        W33178  16.848  15.369   2.176  0.1353  0.0835  0.1130
17045W        W33179  17.837   9.565   0.439 -0.2229  0.3272  0.2087
17046W        W33180  15.488   7.493   4.162  0.3532  0.1915 -0.1799
17047W        W33181   3.355   8.291   4.801 -0.4620 -0.0583 -0.1939
17048W        W33182  16.834  14.983   3.683 -0.5597  0.0082  0.1010
17049W        W33183   8.442   7.061  12.642  0.0753 -0.2312 -0.0574
17050W        W33184  12.547   5.090   4.250  0.0037 -0.0292  0.0504
17051W        W33185  16.194   1.892   3.441 -0.1067 -0.0590 -0.0413
17052W        W33186   6.499   2.457   2.116 -0.0746 -0.2924 -0.0038
17053W        W33187  14.043  13.833   1.473 -0.0572 -0.3301  0.1240
17054W        W33188   7.363  15.776   6.044  0.1681  0.1599  0.0012
17055W        W33189  14.020   9.695  12.938 -0.0717  0.0814  0.0768
17056W        W33190  18.175   2.488   1.462 -0.2831  0.1270  0.3093
17057W        W33191  10.461  17.294   1.022  0.0499 -0.1016  0.2557
17058W        W33192  16.134   3.025   5.638 -0.0675  0.4343 -0.1705
17059W        W33193  12.423  15.551  16.494  0.2623  0.1462  0.0198
17060W        W33194  14.223   3.421   3.705  0.0197  0.0352 -0.2376
17061W        W33195   3.354   2.856   2.960 -0.0525 -0.1133 -0.0111
17062W        W33196   0.163  13.114  14.082 -0.1160 -0.2409  0.0275
17063W        W33197   9.502  15.433  13.882 -0.3848 -0.0360  0.1888
17064W        W33198   3.860   3.285   5.796  0.0041  0.2889 -0.3856
17065W        W33199  10.688  15.994   2.562 -0.0804  0.2764 -0.1967
17066W        W33200  14.282  12.576   2.854 -0.0969 -0.4720  0.1526
17067W        W33201   8.041  13.259  14.396  0.0366 -0.2053  0.2824
17068W        W33202  14.998  17.804   2.554  0.1344 -0.2371 -0.0678
17069W        W33203  10.647  11.305  12.935 -0.0404  0.1153 -0.2515
17070W        W33204   1.566   7.401   3.648 -0.2149  0.1975 -0.3265
17071W        W33205   4.670   0.845   4.833  0.0329  0.1076  0.2879
17072W        W33206   1.032   4.504   4.397 -0.0229  0.1646  0.0175
17073W        W33207  10.587   2.529   3.169 -0.0464 -0.3187 -0.1125
17074W        W33208   3.653   6.705   2.435  0.0188  0.1884  0.0807
17075W        W33209  11.490  10.020  15.675  0.0069  0.0117  0.0640
17076W        W33210   6.512   2.137   3.506 -0.0172 -0.0256  0.0720
17077W        W33211  14.895  16.078  13.217  0.1260  0.2447 -0.3079
17078W        W33212   8.808  15.335   4.690  0.0349 -0.1066  0.0767
17079W        W33213   8.827   5.995  16.372  0.4857  0.0601  0.0112
17080W        W33214   9.041   6.263  15.596 -0.1201 -0.0949  0.1745
17081W        W33215   0.683   4.593   0.813  0.1024 -0.2345 -0.0975
17082W        W33216  11.205  17.860  13.913  0.0242 -0.1231  0.1049
17083W        W33217   3.256   4.379  12.166 -0.2444 -0.0383  0.0881
17084W        W33218   7.587  10.053   0.606  0.1847  0.1369 -0.1937
17085W        W33219  11.313  16.340   0.589 -0.1143  0.0417  0.2181
17086W        W33220   8.073  10.790   4.678 -0.0355 -0.0547 -0.0719
17087W        W33221   4.211   5.842   0.556  0.0298  0.1084 -0.0416
17088W        W33222  13.751   0.333   1.445 -0.0678 -0.0999  0.2702
17089W        W33223  14.732   8.181  11.125  0.0098  0.0483  0.0091
17090W        W33224  10.580   0.143  11.921 -0.2167 -0.1325 -0.1715
17091W        W33225   1.027   9.668   4.628 -0.1006  0.3067 -0.0318
17092W        W33226   8.804   1.200  16.050  0.2981 -0.2033  0.4061
17093W        W33227  11.462  14.862   1.575  0.2550  0.0988  0.3387
17094W        W33228  15.315   8.268   1.671 -0.4023  0.1876 -0.0830
17095W        W33229   9.632   7.936   2.601  0.4049 -0.0205  0.6623
17096W        W33230  16.731   8.662  16.440  0.0860 -0.2729 -0.0911
17097W        W33231   3.592   8.349  12.888  0.2370  0.1351  0.1657
17098W        W33232   2.677  15.707   5.419  0.0077 -0.1479  0.1018
17099W        W33233  11.620   1.363   3.318  0.0370 -0.0573 -0.3167
17100W        W33234   8.465   7.325   2.531 -0.5006 -0.0939 -0.1577
17101W        W33235   0.594  11.076   1.277  0.1300  0.0955 -0.3169
17102W        W33236   1.604   9.176   3.918 -0.1361 -0.0515  0.0249
17103W        W33237   7.493   5.555  12.431  0.2735  0.0445 -0.1431
17104W        W33238   5.931  15.393   4.956 -0.0430  0.1068  0.0054
17105W        W33239   9.322  18.082   3.581 -0.1134 -0.3662 -0.2195
17106W        W33240   3.955   6.659  15.994  0.2795  0.0113  0.0305
17107W        W33241  13.891   2.635  13.350 -0.0801  0.1149 -0.0267
17108W        W33242   0.341   1.956   5.547 -0.0459  0.0818 -0.4198
17109W        W33243   1.090  11.158   1.276  0.3529 -0.1198  0.1293
17110W        W33244   6.237   4.628   1.813 -0.0465  0.3856  0.1221
17111W        W33245  12.437  10.520   5.020 -0.1264 -0.0325  0.1910
17112W        W33246   7.759  17.981   1.115  0.1255  0.1341 -0.0024
17113W        W33247   8.401  12.827  15.325  0.1479 -0.3269  0.0385
17114W        W33248   1.741  16.796   1.622  0.2480  0.1222  0.0765
17115W        W33249  15.771   9.526   4.001  0.0687  0.2966 -0.0798
17116W        W33250   1.598  10.846   0.486  0.0400 -0.1993  0.2339
17117W        W33251   1.688   6.934   5.888 -0.1313  0.3651  0.0079
17118W        W33252   6.525   5.974   0.039  0.4173  0.1965 -0.0355
17119W        W33253  16.040   1.161  13.077 -0.0689  0.1825  0.2803
17120W        W33254  15.370   8.607  16.064  0.0911  0.0349 -0.0801
17121W        W33255  17.437  15.348   2.910 -0.0408  0.0890  0.1026
17122W        W33256  12.152   5.279   0.532  0.3328  0.2957 -0.0014
17123W        W33257  10.893  10.573  10.415 -0.1581 -0.1478 -0.0157
17124W        W33258   0.577  13.470  12.395  0.1802 -0.1864  0.4296
17125W        W33259   4.199   9.976  13.427  0.2639  0.0322 -0.1842
17126W        W33260   5.201   3.226  15.742  0.0232  0.2069 -0.0302
17127W        W33261  11.324  14.967   3.420  0.0003  0.0896  0.1460
17128W        W33262   5.060  13.437  13.298  0.0208 -0.0445  0.0220
17129W        W33263   9.686   9.328  12.035  0.0557  0.2852  0.5185
17130W        W33264  14.710  10.038   0.033 -0.1321 -0.1912  0.1093
17131W        W33265   9.133  13.884  15.966 -0.3866 -0.1080 -0.0292
17132W        W33266   8.836  12.926   3.499  0.0876  0.0737 -0.0347
17133W        W33267   8.340   5.427   4.526  0.0240 -0.1468 -0.0753
17134W        W33268  11.751   3.569   2.313 -0.1659  0.2799 -0.0325
17135W        W33269  15.686   5.695   4.117 -0.1394 -0.0052  0.3714
17136W        W33270   5.783   1.172  13.247  0.0461 -0.1927 -0.0497
17137W        W33271  14.882   6.548  12.623 -0.0256 -0.3252 -0.1441
17138W        W33272   7.824   5.896  16.325  0.0776 -0.0637 -0.0546
17139W        W33273  13.595  14.610   2.098 -0.0227  0.3592  0.3239
17140W        W33274  15.098  11.593  15.751 -0.0366  0.0917 -0.1684
17141W        W33275   7.403   5.673   1.564  0.1538  0.1193  0.1896
17142W        W33276   8.897   2.131   0.974 -0.1387  0.1324  0.0046
17143W        W33277  13.810   6.969  11.351 -0.2053  0.0638  0.1658
17144W        W33278   9.218   2.342   0.178 -0.2063  0.0101 -0.0131
17145W        W33279   7.721   5.920   4.451  0.0348 -0.1027  0.6126
17146W        W33280  12.052   6.595  14.387  0.2418  0.0461  0.0546
17147W        W33281   4.643   6.694   3.361  0.1199 -0.1233  0.3732
17148W        W33282   9.730   6.633   1.978 -0.1229  0.1059  0.1382
17149W        W33283   6.630   7.412  13.267 -0.0103  0.0785  0.0127
17150W        W33284  12.258  10.574   1.282 -0.1726 -0.0403  0.1329
17151W        W33285  13.713  16.005  15.430 -0.1953 -0.2023  0.2056
17152W        W33286   1.109   7.299   1.037 -0.3206  0.2100 -0.0730
17153W        W33287  16.784   7.129  10.971 -0.1597 -0.0365  0.2859
17154W        W33288  13.140   4.096   1.090  0.0278 -0.0588 -0.2236
17155W        W33289  15.835  17.006   3.944  0.0455 -0.0927  0.0886
17156W        W33290   5.165   1.893   4.925 -0.2115 -0.0412 -0.0366
17157W        W33291  10.072   9.620  15.607 -0.3253 -0.3459  0.2215
17158W        W33292  17.574   8.825   4.722  0.3132  0.2538  0.1168
17159W        W33293   2.987  13.223   5.130 -0.0850 -0.0103 -0.0640
17160W        W33294   5.677  12.218   3.859  0.1322  0.1770 -0.2933
17161W        W33295   1.708   7.428  15.538  0.3913 -0.1143 -0.1033
17162W        W33296   4.881   1.029   1.820 -0.0782  0.0448  0.1432
17163W        W33297   2.296  13.913   3.605 -0.0583  0.0210  0.2335
17164W        W33298  17.779  16.715   3.096 -0.3005 -0.0146 -0.0427
17165W        W33299   6.320   2.660   4.930  0.0561 -0.1467 -0.1141
17166W        W33300   5.532   3.121   3.938 -0.2988  0.1203  0.0196
17167W        W33301   5.663   6.194  16.380  0.2087  0.2833 -0.1577
17168W        W33302   5.980  16.961   3.356  0.1288 -0.0052  0.1968
17169W        W33303   2.364  14.985  12.490  0.3024  0.0748  0.1410
17170W        W33304   7.208   0.396   4.268 -0.0022 -0.1694 -0.0106
17171W        W33305  15.331  12.841  15.090 -0.0211 -0.3693 -0.0807
17172W        W33306  12.767   5.862  13.585 -0.0130  0.2371 -0.2055
17173W        W33307  16.058   0.685  15.646 -0.4034  0.0527  0.2180
17174W        W33308  16.310  13.730  15.254 -0.1428 -0.3186 -0.4192
17175W        W33309  10.990   6.769   1.298  0.0556 -0.0096  0.3243
17176W        W33310   3.524  11.896   2.276  0.2181  0.1736 -0.0617
17177W        W33311   0.680   3.327   2.807  0.0241 -0.0578 -0.1827
17178W        W33312   8.526  15.248   1.074  0.0886  0.2636 -0.1802
17179W        W33313   0.579   9.886  14.677  0.0025  0.1967 -0.2400
17180W        W33314  16.293  14.779  11.952  0.1072 -0.1047 -0.0356
17181W        W33315   8.350   3.941  13.107 -0.0249 -0.0052 -0.0198
17182W        W33316   7.115  12.018   5.700 -0.2705  0.1499 -0.1914
17183W        W33317  10.516  14.079  14.645  0.2855 -0.0881 -0.0278
17184W        W33318   6.104  13.163  12.505  0.1561 -0.3462 -0.0145
17185W        W33319   6.664   6.232  12.075 -0.1302  0.0625 -0.3232
17186W        W33320   7.574  15.542   0.398 -0.0641 -0.3226  0.1678
17187W        W33321  11.854  17.379   1.503 -0.3953 -0.2817  0.1136
17188W        W33322  13.723   6.628  15.001 -0.1230  0.2179  0.0602
17189W        W33323   5.149   6.136   4.423  0.1499 -0.1752  0.0406
17190W        W33324   3.682   3.534  14.562  0.0510  0.1343 -0.0921
17191W        W33325  15.658   5.048   0.280  0.1795 -0.0592  0.2287
17192W        W33326  15.063   3.824  13.618  0.1196 -0.0569 -0.3216
17193W        W33327   9.836  13.442  12.189 -0.2400 -0.1697 -0.1848
17194W        W33328  13.977   8.510   2.008 -0.0068 -0.1306  0.0949
17195W        W33329   0.508   1.090   1.950  0.2835  0.2265 -0.1841
17196W        W33330   1.976   0.618  14.737  0.2452  0.0220 -0.0662
17197W        W33331  16.653   8.135   0.582  0.1335 -0.7170 -0.2268
17198W        W33332   1.259   0.036  12.021 -0.1466 -0.2761  0.0205
17199W        W33333   1.793  17.992  15.480  0.0433 -0.0860 -0.0900
17200W        W33334   9.089  15.590  14.796  0.0680  0.0228  0.0005
17201W        W33335  11.676   8.264   1.558  0.0102  0.0844  0.3121
17202W        W33336   8.394   9.056  11.434  0.2034 -0.0456 -0.0565
17203W        W33337  17.391   9.033   5.895  0.0766 -0.0778  0.1444
17204W        W33338  14.246   8.194  14.161  0.2260  0.0369  0.1755
17205W        W33339   8.251  15.710  16.356 -0.2049 -0.2561  0.0248
17206W        W33340  10.529  15.532  16.167  0.1729  0.1941 -0.1452
17207W        W33341   2.009  14.077  14.560  0.3977  0.1147  0.1686
17208W        W33342  14.039   5.194   4.081  0.0730 -0.1159  0.1225
17209W        W33343   1.014  17.262  14.010  0.2211 -0.0221  0.1812
17210W        W33344   4.309  15.206  12.520  0.0324 -0.1028  0.1142
17211W        W33345  12.490   7.153   0.251 -0.1154 -0.3994  0.1081
17212W        W33346  10.589   2.858  15.315 -0.1160  0.3612  0.2581
17213W        W33347   5.148   6.897  11.128 -0.1836  0.0951  0.0682
17214W        W33348   2.585  12.710   2.887 -0.0302  0.1849 -0.1240
17215W        W33349  15.937   6.715  14.950  0.0527 -0.0646  0.2728
17216W        W33350  13.441   2.091   2.943  0.1406  0.2970 -0.1271
17217W        W33351   0.001   7.100   3.059 -0.3165  0.3705 -0.0868
17218W        W33352  16.585  15.026   2.577  0.0853 -0.1281 -0.1507
17219W        W33353   8.288  16.121  11.881 -0.0757 -0.2059 -0.2227
17220W        W33354  14.795   1.059  13.498 -0.1923  0.1639 -0.0407
17221W        W33355   5.609   1.385   1.324  0.1313  0.1862  0.1739
17222W        W33356   7.901   7.741   3.968 -0.0258 -0.0344  0.0454
17223W        W33357  16.688  16.246   4.461  0.1391 -0.0205 -0.3104
17224W        W33358   0.080   8.217  10.605 -0.1840 -0.0601 -0.1011
17225W        W33359   4.580   3.559  12.690 -0.1821  0.1746  0.3575
17226W        W33360   8.865   7.205   0.107  0.5445 -0.0583 -0.2787
17227W        W33361   3.695  12.403   1.124 -0.2262 -0.0931 -0.0756
17228W        W33362  12.298  12.531  14.291  0.0580  0.0552  0.2343
17229W        W33363   4.932  17.979   0.399  0.1371  0.1010  0.1072
17230W        W33364  14.913  15.246  16.143  0.2913 -0.0025 -0.0410
17231W        W33365   0.509   1.285  15.788 -0.1554  0.1209  0.0314
17232W        W33366  10.582   1.335   5.920 -0.2722 -0.1641  0.2536
17233W        W33367   1.422   8.626   1.872 -0.2208 -0.3588  0.1112
17234W        W33368   4.155  10.286   9.887 -0.0661 -0.2707 -0.1668
17235W        W33369   1.630   7.516   2.607  0.0740  0.1471  0.2157
17236W        W33370   5.000   6.810  14.527  0.0415  0.0159 -0.1254
17237W        W33371   5.201  17.955  15.980 -0.1672 -0.1697 -0.1545
17238W        W33372   6.465   8.742  12.550  0.0233  0.2619 -0.1982
17239W        W33373  16.068   5.946   1.203  0.1448 -0.1442  0.2239
17240W        W33374   9.511   0.436  14.372 -0.1771 -0.1939  0.2079
17241W        W33375   3.169   6.372   4.255 -0.0309  0.0447 -0.0237
17242W        W33376   2.003  17.610  16.373 -0.1116 -0.0528 -0.3292
17243W        W33377   3.223  12.251   1.295 -0.0694  0.1388 -0.2842
17244W        W33378  13.634  13.527   0.670  0.3258  0.3333 -0.0475
17245W        W33379  14.325   8.487  13.798 -0.1124 -0.0631 -0.1745
17246W        W33380  10.332  10.399   4.914  0.1041  0.0649  0.0247
17247W        W33381   4.121  11.048   1.615  0.0118 -0.0125  0.0031
17248W        W33382   2.186   2.087   4.813 -0.0118  0.1906 -0.2919
17249W        W33383  16.996  14.374  11.890 -0.1554  0.0117 -0.0759
17250W        W33384   0.503   1.680  16.075  0.1107 -0.3055  0.0005
17251W        W33385  14.874   7.126   4.740 -0.1763  0.0353 -0.1628
17252W        W33386   0.678   5.722   2.080 -0.0895 -0.0135 -0.4398
17253W        W33387   2.348  14.685   0.514  0.0687  0.1055 -0.0716
17254W        W33388   9.201   5.555  12.771 -0.2822 -0.0560 -0.0605
17255W        W33389   0.715  15.239   2.766  0.0831  0.0192  0.1245
17256W        W33390   4.439   2.404  15.718 -0.1877  0.0809 -0.1294
17257W        W33391   0.096  12.670  16.331 -0.0470  0.2943 -0.1709
17258W        W33392   2.258  16.470   5.395 -0.2309  0.0551  0.0412
17259W        W33393   9.042  17.060   4.487 -0.2756  0.1373 -0.1599
17260W        W33394   3.806  13.203   2.124  0.0885 -0.1879 -0.0770
17261W        W33395  15.918  12.834  12.094 -0.1431 -0.0488 -0.2259
17262W        W33396   5.615  12.671   0.280 -0.0026  0.1058  0.0186
17263W        W33397   2.126   9.198  12.156  0.3487 -0.0418 -0.2844
17264W        W33398  13.248   2.908  13.196 -0.0654  0.0759 -0.1208
17265W        W33399   6.370   5.301   6.269 -0.2452 -0.1651 -0.1859
17266W        W33400   1.700   8.420  13.397  0.1737 -0.0436 -0.2158
17267W        W33401  15.905  15.128   3.516 -0.1532 -0.0151 -0.0189
17268W        W33402   8.001  12.057   3.022  0.2262  0.0216 -0.1585
17269W        W33403   0.098   1.043   3.487  0.2648  0.0064 -0.2558
17270W        W33404  17.084  13.504  11.709 -0.3642  0.1335 -0.3188
17271W        W33405   2.162   1.739  14.631  0.1834 -0.2191 -0.2532
17272W        W33406  16.276   9.975   2.318 -0.1653  0.0166  0.1216
17273W        W33407  11.036   5.438   0.687 -0.0892  0.0446 -0.0381
17274W        W33408  15.336   4.185  13.864 -0.0197  0.2206  0.2534
17275W        W33409   6.755  12.554   2.663 -0.2466  0.0170  0.1933
17276W        W33410   2.140   3.518   2.409  0.2211 -0.4425  0.0202
17277W        W33411   2.494  14.573   2.987 -0.1254 -0.0552  0.1990
17278W        W33412   3.684   4.278  12.689  0.1174 -0.1261 -0.0267
17279W        W33413  17.185  14.409   3.870 -0.1128 -0.3307  0.3058
17280W        W33414   0.964  10.332  16.159 -0.2128 -0.3374  0.1672
17281W        W33415  12.779   3.791  14.722  0.2125  0.1853  0.2513
17282W        W33416   7.238  15.223  11.505 -0.2055 -0.2011 -0.0417
17283W        W33417  10.255  11.201  15.645  0.0091 -0.0225  0.0401
17284W        W33418  18.104   0.887   1.975 -0.3372  0.3506  0.0525
17285W        W33419   4.790  17.623   1.322  0.1309  0.1878 -0.1980
17286W        W33420  16.777  12.864  14.575  0.2148  0.3707  0.0514
17287W        W33421   2.759   0.430   1.324  0.2863 -0.0856  0.3714
17288W        W33422  14.543  13.681  15.405  0.1094  0.0030  0.2158
17289W        W33423   9.552  15.415   5.289 -0.3136  0.0469 -0.1102
17290W        W33424   3.051  12.211   4.177  0.0774  0.2616 -0.0326
17291W        W33425   6.246  15.366  13.944 -0.0843  0.3553 -0.1020
17292W        W33426  12.827  15.179   2.554 -0.0636 -0.0111 -0.1495
17293W        W33427  17.891   9.103   0.640 -0.0698  0.3446  0.2424
17294W        W33428  18.091  14.757  16.476  0.1753 -0.0944  0.0568
17295W        W33429  10.864  17.578   5.827 -0.0341  0.2029 -0.1448
17296W        W33430   7.131   7.101   0.935 -0.1016  0.1917  0.2566
17297W        W33431   6.973   0.441   0.127  0.0336 -0.0639 -0.0220
17298W        W33432   0.173  11.710   4.281  0.0586  0.2006 -0.1611
17299W        W33433   3.309  15.375   4.792 -0.1206 -0.0999 -0.1394
17300W        W33434  12.508   3.903   5.457  0.2626 -0.1108 -0.0020
17301W        W33435   8.784   7.515   5.528 -0.1062  0.5278 -0.1043
17302W        W33436  12.115  17.527  14.614 -0.2345  0.1115  0.1479
17303W        W33437  15.176   4.818   6.092  0.1110  0.0049  0.0230
17304W        W33438   8.063   2.937  14.933 -0.2493  0.2792 -0.2263
17305W        W33439   4.522  10.109   2.086  0.4284 -0.0987  0.0206
17306W        W33440  13.812   8.440   4.391 -0.1325 -0.0673  0.0055
17307W        W33441  12.067   7.131   4.364  0.1248 -0.2802  0.1085
17308W        W33442   3.349  18.116   2.297  0.1625 -0.1706 -0.1740
17309W        W33443  12.765  14.696  14.671  0.1210  0.3121  0.0929
17310W        W33444  14.386  15.774   3.672 -0.0299  0.0091  0.2003
17311W        W33445  16.458   7.912  15.374 -0.2479  0.3097  0.0210
17312W        W33446   0.813  16.390   1.985 -0.0206 -0.3203 -0.0688
17313W        W33447   3.167  11.742  12.236 -0.6137  0.1951  0.2242
17314W        W33448  14.930   1.669   5.874  0.1812  0.2072 -0.3447
17315W        W33449   2.672   1.738   3.324  0.1474  0.1041 -0.1051
17316W        W33450  12.029   0.366  11.911 -0.0842  0.2063 -0.3533
17317W        W33451   5.728   0.465  15.691 -0.3618 -0.1553 -0.3928
17318W        W33452   3.317   3.136   4.910  0.0240  0.1650  0.0330
17319W        W33453  13.188   4.408   0.117 -0.2342 -0.0656 -0.2145
17320W        W33454  10.426  14.673  13.005 -0.3125 -0.4380  0.0281
17321W        W33455   3.677  11.427   0.674 -0.1923  0.0765 -0.0211
17322W        W33456  15.696   9.219   0.519  0.0249  0.0918  0.2934
17323W        W33457   6.586   8.552  15.825  0.0410  0.3080 -0.0473
17324W        W33458   8.273   4.245   5.220 -0.1230 -0.3021  0.1224
17325W        W33459   6.726  15.598   5.386  0.1625 -0.1028 -0.4265
17326W        W33460  17.319   5.471  11.706 -0.1801 -0.0514 -0.0420
17327W        W33461   6.577   9.522  11.691  0.1394  0.2882 -0.1494
17328W        W33462  14.551  16.230   2.221 -0.1835 -0.1803 -0.0892
17329W        W33463  14.558   3.632  13.405  0.1678  0.2171 -0.2171
17330W        W33464   3.350   4.052   1.310  0.2657  0.1772  0.2233
17331W        W33465   1.164  10.635  11.431  0.0305  0.0204 -0.0092
17332W        W33466   1.271   2.315   2.663 -0.1470  0.2998  0.1671
17333W        W33467  16.072  17.681   1.859 -0.0468 -0.1113  0.0563
17334W        W33468  15.841  11.357   1.976  0.1111  0.1123 -0.2995
17335W        W33469  17.604  13.430   6.439 -0.0217  0.1027 -0.1929
17336W        W33470  16.048  13.389   5.278 -0.1534  0.0560  0.2052
17337W        W33471  15.603   6.437   3.718 -0.0127  0.1504 -0.0480
17338W        W33472   2.063  16.659   0.206 -0.2030  0.1562 -0.2887
17339W        W33473   7.840   8.270   3.897  0.2127 -0.0215  0.1824
17340W        W33474   1.751   2.571   2.722  0.0119 -0.0708 -0.0012
17341W        W33475   5.912   6.613  13.268 -0.0746 -0.0462 -0.0386
17342W        W33476   5.035   8.330   3.890  0.0730  0.2387  0.0577
17343W        W33477  13.764   2.653   3.321  0.0943  0.0793  0.0407
17344W        W33478  17.065   7.429   0.238 -0.0112  0.1542  0.1922
17345W        W33479   9.888   0.297  14.090  0.1512 -0.1099  0.1757
17346W        W33480   2.901   5.956  11.879  0.1556  0.1600  0.0998
17347W        W33481   9.358   3.917  14.327 -0.0483 -0.1648 -0.1577
17348W        W33482   5.166   3.591   1.770 -0.2699 -0.0413 -0.0521
17349W        W33483  10.255  17.663  15.414 -0.2904 -0.1816  0.1653
17350W        W33484   2.552  11.749  13.958 -0.0164 -0.3954 -0.1478
17351W        W33485  11.345   3.653  15.345  0.1512  0.0784  0.2714
17352W        W33486  11.076  12.554   3.045 -0.0748 -0.1878  0.0802
17353W        W33487  11.050  12.775   5.207 -0.0858 -0.1481 -0.2011
17354W        W33488   0.263   4.824  12.270  0.0331  0.0353  0.0136
17355W        W33489   2.220  16.863   4.041 -0.0021 -0.1481  0.0932
17356W        W33490  12.472   8.251   1.966 -0.1629  0.0203  0.0504
17357W        W33491   2.323   4.096   0.373 -0.1248  0.1165 -0.2628
17358W        W33492   3.511   5.446   1.856  0.6180 -0.0330  0.1685
17359W        W33493  13.095   6.778  16.013  0.0064 -0.3341 -0.3288
17360W        W33494   7.098   8.759   1.925  0.0491  0.0956  0.0956
17361W        W33495  13.267  16.553  13.061 -0.1651  0.0719  0.0626
17362W        W33496   8.249   0.356   5.739 -0.1757  0.1886 -0.3923
17363W        W33497  15.514   6.725   1.815  0.0045 -0.1023 -0.1427
17364W        W33498  13.658  12.491   1.440 -0.3521 -0.0848  0.1213
17365W        W33499   4.479   7.653   4.377  0.0626  0.0555  0.1722
17366W        W33500  16.015   8.498  12.189 -0.1514  0.0798 -0.1109
17367W        W33501   9.616  16.084  12.374 -0.0318  0.0640  0.2212
17368W        W33502   4.050  12.849  12.503  0.0456  0.3502 -0.0610
17369W        W33503   7.674   5.389  11.935 -0.0170 -0.0159 -0.0118
17370W        W33504   8.290   4.072   3.027  0.1832 -0.1660  0.0713
17371W        W33505   2.593  16.535   2.964 -0.1399  0.0270 -0.1524
17372W        W33506   9.151   5.585  16.106 -0.1403  0.0401 -0.0621
17373W        W33507   2.846   0.043   4.495 -0.1773  0.2681 -0.3318
17374W        W33508   8.463  12.017  14.584  0.3089 -0.0976 -0.0895
17375W        W33509  16.728   1.827   2.004 -0.1013 -0.1996 -0.1310
17376W        W33510   6.258   0.515  15.821  0.0185  0.0173 -0.1038
17377W        W33511  11.289  10.289  15.211 -0.1823  0.1383 -0.1106
17378W        W33512  15.680  10.363  15.383 -0.2470 -0.0097  0.1356
17379W        W33513  15.460   7.983  16.204  0.3259  0.0822  0.4115
17380W        W33514   8.531  12.777  13.501  0.0750  0.1347 -0.4165
17381W        W33515   4.927   1.361  11.147 -0.1871  0.1469  0.1561
17382W        W33516   8.633   0.256  16.479  0.0337  0.1625 -0.1009
17383W        W33517   7.224  16.123  16.256  0.1937 -0.0216  0.0866
17384W        W33518  12.800  14.874  13.575  0.0119 -0.1554 -0.1521
17385W        W33519  10.744   3.942   3.609  0.1672 -0.0094  0.1330
17386W        W33520  13.319   2.539  15.156 -0.1080  0.2974 -0.2142
17387W        W33521  10.079  16.109  14.882  0.0854 -0.1685 -0.2182
17388W        W33522  15.837  11.068   1.294 -0.2274  0.0341  0.3637
17389W        W33523   7.085   2.627   1.307 -0.1857  0.0463  0.0234
17390W        W33524   2.249   4.072   2.179 -0.0376  0.1783 -0.1330
17391W        W33525  14.044   0.483  15.497 -0.0460  0.3352 -0.0370
17392W        W33526  12.810  10.235   0.464 -0.1248  0.2348 -0.0166
17393W        W33527  11.484  15.336   1.735  0.0522 -0.0053 -0.0362
17394W        W33528  12.904   1.419  15.934 -0.1672 -0.1923 -0.0442
17395W        W33529  13.656  15.145   1.417 -0.1161 -0.1513 -0.0336
17396W        W33530   1.770   5.716  12.510  0.0002 -0.1394 -0.0630
17397W        W33531   3.350   3.883  13.040 -0.3227  0.2289 -0.1330
17398W        W33532   6.881  14.632   5.532  0.0531 -0.1313  0.0548
17399W        W33533  14.120  10.294  15.218  0.1958 -0.0231 -0.2748
17400W        W33534   9.664  11.132   1.371  0.2459  0.0153 -0.0411
17401W        W33535   8.441   4.516   3.174  0.3573 -0.0582 -0.1091
17402W        W33536  11.818   4.355  14.785 -0.1730 -0.3406 -0.0649
17403W        W33537   5.253   8.630  14.388  0.1347  0.1200  0.0133
17404W        W33538  16.350   1.035  15.989 -0.1455  0.0786  0.0991
17405W        W33539  10.611  13.380   2.175  0.1394 -0.0044 -0.0811
17406W        W33540  12.660   8.617   3.926 -0.0760 -0.1495 -0.0102
17407W        W33541   9.690  17.793  13.183  0.0731 -0.1904  0.1977
17408W        W33542   9.751   0.291   3.234 -0.0559 -0.0497  0.2304
17409W        W33543  15.341   7.980  14.117 -0.3844 -0.0586  0.0589
17410W        W33544  17.559   1.544   1.391  0.3462  0.0513  0.0039
17411W        W33545   1.219   3.545  16.370  0.0506  0.3631  0.0986
17412W        W33546  12.909   7.748   1.899 -0.0954  0.0437 -0.2694
17413W        W33547  17.710   4.311  13.393 -0.0063  0.2869  0.2242
17414W        W33548   3.788  12.005   5.024  0.2358 -0.1012  0.1413
17415W        W33549  14.325   9.611   1.363 -0.1795 -0.1071  0.4134
17416W        W33550  15.948  10.810  14.266  0.0314 -0.0624 -0.0630
17417W        W33551   9.248   3.429  14.736  0.0413  0.1918 -0.1931
17418W        W33552  16.486   9.291  12.012  0.0412  0.0192 -0.1117
17419W        W33553  10.965   6.555   2.586 -0.2025 -0.0858  0.1539
17420W        W33554  17.173  13.186   3.522  0.1066  0.0286 -0.1599
17421W        W33555   7.196   0.483   0.934 -0.0091 -0.0788 -0.1028
17422W        W33556  12.210   6.628  13.545 -0.0194  0.2712 -0.0318
17423W        W33557  16.605  15.055   0.012  0.1182 -0.1077  0.0566
17424W        W33558  15.712  14.729  12.000 -0.2474 -0.4623 -0.1299
17425W        W33559   7.148   2.627  13.345 -0.2586  0.1575  0.0011
17426W        W33560   2.473   2.920   4.679  0.1671  0.2545 -0.2789
17427W        W33561  10.588   0.163   2.348 -0.2176 -0.3444 -0.2361
17428W        W33562   1.702   0.769   0.090  0.2439 -0.0907  0.3697
17429W        W33563  10.808  14.603   0.274 -0.1172  0.3135  0.0360
17430W        W33564  11.877  10.670  11.076  0.1733 -0.0290 -0.1441
17431W        W33565   3.619   6.642  13.879 -0.1167 -0.0673 -0.1941
17432W        W33566   4.286  15.692  12.382  0.0448 -0.2035  0.2659
17433W        W33567   7.372  15.089   5.402 -0.0844 -0.1216  0.2999
17434W        W33568   4.694   4.735   0.593 -0.1982  0.0642  0.1189
17435W        W33569   1.197   0.413   0.086 -0.0404  0.0479  0.0199
17436W        W33570   2.403  15.496   4.667  0.0788 -0.0259  0.0609
17437W        W33571  14.780   2.317  14.220  0.2003 -0.1016 -0.3500
17438W        W33572   2.812   4.808   0.152  0.3161  0.0368  0.0769
17439W        W33573   5.964  12.373   2.910 -0.0683  0.4102 -0.0592
17440W        W33574   5.397  13.206   4.022  0.1009 -0.1061  0.1065
17441W        W33575  10.446   2.946  11.671  0.0880  0.1128 -0.1232
17442W        W33576   3.532  15.181  16.320 -0.1112 -0.1924 -0.1625
17443W        W33577   4.106  16.818  16.435 -0.4207 -0.1081 -0.3628
17444W        W33578  11.701   7.316  15.083 -0.0050  0.0208  0.5630
17445W        W33579   2.984  17.279   3.911 -0.1322 -0.1073  0.1897
17446W        W33580   3.969   2.781   2.085  0.2689 -0.2691  0.1568
17447W        W33581  12.757   2.896  12.837  0.1374  0.2680  0.0136
17448W        W33582   7.191   0.589  16.035 -0.0074  0.2734  0.1937
17449W        W33583   7.669  11.870   4.295 -0.1344  0.2756 -0.0715
17450W        W33584  18.054  12.673  12.696  0.1343 -0.2558 -0.1089
17451W        W33585   9.553   9.751  11.800  0.2044  0.1252  0.1855
17452W        W33586  12.173  15.940   3.056 -0.0823 -0.1830  0.1391
17453W        W33587   0.355   9.867  15.397  0.0536 -0.1462 -0.0290
17454W        W33588  10.554   1.596  12.726  0.5225  0.2003  0.0254
17455W        W33589   8.601  14.971  13.620 -0.0152 -0.1115  0.0528
17456W        W33590   8.411   4.500  13.875  0.5562  0.0683  0.0627
17457W        W33591   0.977   3.135   1.290 -0.0088 -0.0859 -0.0519
17458W        W33592   0.538  15.108   0.170 -0.2592 -0.0570  0.1583
17459W        W33593  15.803  16.094   3.003 -0.0991 -0.0735  0.0330
17460W        W33594  17.690  14.458   3.759 -0.1761  0.1476 -0.2004
17461W        W33595  15.248  15.014  15.799  0.0309  0.0361 -0.1927
17462W        W33596  16.557   5.783  13.961  0.0830  0.3251  0.3300
17463W        W33597   8.184  17.840  16.415  0.1081 -0.2088 -0.3538
17464W        W33598   1.421   0.234   4.904  0.0935  0.1151 -0.1441
17465W        W33599   2.013   0.287  16.093  0.2719 -0.3476 -0.0106
17466W        W33600   3.502   8.989  15.079  0.0541 -0.2631 -0.2462
17467W        W33601  11.218  12.026   3.148 -0.3288  0.2063  0.2867
17468W        W33602   5.115   2.487  13.084 -0.0500  0.1148 -0.0397
17469W        W33603  10.362  12.719   5.224 -0.1940  0.0236  0.0769
17470W        W33604  10.680   5.122  13.483 -0.2689 -0.1451 -0.2995
17471W        W33605  10.743   8.161  15.857 -0.0134  0.1067  0.0546
17472W        W33606  11.178  14.489   3.342  0.3373 -0.0572 -0.1839
17473W        W33607   9.866  10.284   0.967  0.1739 -0.1369  0.1163
17474W        W33608   4.781   7.376  13.599 -0.0210  0.2989  0.1031
17475W        W33609   7.061  11.867  13.646 -0.4311  0.1186 -0.0304
17476W        W33610   4.493  11.614  12.611  0.0663  0.0238  0.0088
17477W        W33611   9.661   3.366   2.918 -0.1752 -0.1447 -0.0042
17478W        W33612   4.067   1.441   2.784  0.3789  0.1495  0.1733
17479W        W33613   9.842   5.466  13.535 -0.0119  0.2593 -0.1297
17480W        W33614  11.412  15.709   0.923 -0.2200 -0.2499 -0.1170
17481W        W33615  17.254  11.815   0.279 -0.0113 -0.4422  0.0899
17482W        W33616  16.633   2.414   2.677 -0.0998 -0.3196  0.1430
17483W        W33617  13.137   4.533   2.814  0.0724 -0.1800  0.0005
17484W        W33618  13.407   3.505   5.393 -0.0473 -0.4531  0.0249
17485W        W33619  17.141   9.654   5.058  0.0838  0.0068  0.0810
17486W        W33620  13.058   1.944  11.710  0.0786  0.2822 -0.2207
17487W        W33621   9.535  16.117   1.832 -0.1925  0.0408 -0.1160
17488W        W33622  11.708  12.885  14.790 -0.0065  0.1531 -0.0303
17489W        W33623  10.848   7.739  16.141  0.1115 -0.1171  0.1557
17490W        W33624  16.936  13.428   5.613  0.0230 -0.1501  0.1657
17491W        W33625   4.008   9.773   1.918 -0.1956 -0.0228 -0.1780
17492W        W33626   4.833  14.942  13.444 -0.0113 -0.0856 -0.0087
17493W        W33627   4.636  16.902   0.698 -0.0223 -0.0756  0.1293
17494W        W33628   9.850  15.566  15.444  0.1304 -0.2609  0.1256
17495W        W33629   6.502   6.746  15.118  0.1466  0.1508  0.2473
17496W        W33630   2.108   5.784   3.734  0.2115 -0.3448  0.1558
17497W        W33631   7.463  14.632  13.182 -0.1358 -0.1407 -0.0875
17498W        W33632  12.195  16.372  16.059  0.0786  0.0531  0.0432
17499W        W33633   7.920   4.274  13.717  0.1057  0.1275 -0.1140
17500W        W33634   9.513   5.003   5.615  0.2829  0.2728  0.0635
17501W        W33635   7.470   7.465   3.323 -0.2125  0.0989  0.0099
17502W        W33636  14.920  13.685   0.073 -0.2483  0.3844 -0.2696
17503W        W33637   9.399  14.813  16.003  0.1924  0.0828  0.1688
17504W        W33638  12.003  17.328   2.228 -0.0940 -0.2479  0.2690
17505W        W33639  15.073  13.874   0.727 -0.1482 -0.5238 -0.0101
17506W        W33640  16.909   8.298   3.338 -0.1916  0.0237  0.3182
17507W        W33641  10.013   0.617   2.900 -0.0387 -0.0673  0.2606
17508W        W33642   5.186  11.207  13.681 -0.2822  0.3626 -0.0075
17509W        W33643  11.018   3.939  13.616  0.0686  0.0273  0.1229
17510W        W33644   6.167  14.481   0.838  0.0943  0.0606 -0.1623
17511W        W33645  13.718   1.439  11.362  0.2747  0.2480  0.0502
17512W        W33646   6.459  10.479   3.050 -0.1116  0.3315  0.4127
17513W        W33647   0.900  14.542   2.096  0.1462  0.2032  0.0600
17514W        W33648   8.033   0.129   3.331  0.1286  0.1007 -0.0371
17515W        W33649   0.252  16.279   1.919  0.0673  0.2145  0.4858
17516W        W33650  17.897  11.674  13.454 -0.0233 -0.0962  0.1433
17517W        W33651  12.596   8.079  15.715 -0.0019  0.3098  0.3324
17518W        W33652   7.448   9.973   2.308 -0.2851  0.0009  0.1042
17519W        W33653   9.592  17.021  15.763  0.0803 -0.2247  0.0324
17520W        W33654   1.421   1.944   2.221 -0.2619  0.1385  0.0120
17521W        W33655   5.438   9.909  14.050 -0.1752  0.1979  0.1732
17522W        W33656   9.159   2.443   0.697  0.0103 -0.1385 -0.0633
17523W        W33657  13.817   7.568  16.394  0.1487 -0.0344 -0.3381
17524W        W33658   0.213  17.320   1.917  0.0515  0.1373  0.1518
17525W        W33659   4.113  11.689  11.913  0.2023  0.0959 -0.1335
17526W        W33660   5.990  10.589  15.685 -0.0400 -0.1963 -0.2246
17527W        W33661   8.652   7.573  14.583  0.0677 -0.2152  0.3829
17528W        W33662   6.498   7.360   3.442  0.0781  0.3341  0.0082
17529W        W33663  12.180  12.288  15.146 -0.0735  0.0835 -0.0417
17530W        W33664   9.262  15.817  11.717  0.1291 -0.0864  0.1481
17531W        W33665  11.630   0.801   3.343 -0.1468 -0.0930 -0.1627
17532W        W33666  13.289  12.902   0.024 -0.1972 -0.1531  0.1342
17533W        W33667   2.462   8.509   1.598  0.1444  0.1940  0.0483
17534W        W33668  13.662  10.724   4.792  0.2178 -0.1278  0.1521
17535W        W33669   6.835   9.790   4.328 -0.1200  0.3590 -0.0549
17536W        W33670   4.622   2.169   4.241 -0.1609 -0.1078 -0.0858
17537W        W33671   5.344   0.134   4.301  0.2117 -0.0677  0.0081
17538W        W33672   3.438  15.450   5.277  0.2164  0.2395  0.0416
17539W        W33673   9.954   6.270  11.997 -0.1348  0.1071  0.0940
17540W        W33674  14.299   3.015   1.223  0.1686  0.0886  0.3577
17541W        W33675  10.357  15.292  12.292  0.2436  0.1838  0.0340
17542W        W33676   3.952   1.172   5.212  0.0240 -0.1723 -0.1897
17543W        W33677  17.571   9.001  14.763  0.1953 -0.0041  0.0191
17544W        W33678  16.317   0.652   2.131  0.1706  0.0672  0.0642
17545W        W33679   7.569  14.822  14.940  0.2211 -0.0561  0.2327
17546W        W33680   3.037   5.136  12.740  0.0151 -0.2894  0.0965
17547W        W33681   3.267   7.321   4.061  0.0469 -0.0451 -0.0484
17548W        W33682   5.728   1.327  12.659  0.0869 -0.0741  0.1890
17549W        W33683  10.121  13.848  11.440 -0.3188 -0.2203  0.1084
17550W        W33684   4.551   8.550  14.884 -0.1526 -0.2740 -0.2638
17551W        W33685   9.608   9.559   5.114  0.0316 -0.0580  0.3972
17552W        W33686   7.368   5.831   4.869 -0.5152  0.1763  0.0560
17553W        W33687  10.196   0.889  13.439 -0.0084 -0.0546 -0.0769
17554W        W33688  13.927   6.002  11.778 -0.2213  0.0955 -0.1028
17555W        W33689  16.426  10.528   3.104  0.1049 -0.1375  0.0655
17556W        W33690  13.774  13.899   2.590 -0.0824 -0.1758  0.1008
17557W        W33691  12.193  13.532   5.147  0.0832 -0.1674  0.2106
17558W        W33692   0.771   3.940  13.081  0.0715 -0.1716  0.2049
17559W        W33693   7.073   0.402  15.526  0.2132  0.5158  0.0368
17560W        W33694   1.798  12.412  13.123 -0.1954 -0.0729  0.0268
17561W        W33695   9.296   0.867   0.442  0.3520 -0.0714  0.1916
17562W        W33696  10.200  13.882  12.338 -0.0709 -0.1587  0.0124
17563W        W33697   5.833   6.656  14.373 -0.0287  0.1412 -0.0777
17564W        W33698   7.404   8.693  10.625  0.1568  0.1865  0.0982
17565W        W33699  10.000   4.371   5.685  0.0425 -0.3376 -0.2546
17566W        W33700   6.746   3.502   4.308  0.0679 -0.1219 -0.0969
17567W        W33701   6.303  12.983   1.898  0.0131  0.0333 -0.0240
17568W        W33702   0.905  16.379   2.833 -0.0320  0.1021  0.2367
17569W        W33703   3.279   8.629  16.070  0.0993 -0.1541  0.0032
17570W        W33704   1.014   1.628   4.380 -0.5215 -0.0822  0.0446
17571W        W33705   8.605  18.028  14.436 -0.1004  0.0117  0.2723
17572W        W33706   8.119   4.475   1.597  0.0762  0.0965 -0.0192
17573W        W33707   1.901  15.326   4.763 -0.0216 -0.1330 -0.0055
17574W        W33708  14.522   7.547  13.371  0.0809 -0.1917 -0.0170
17575W        W33709  17.301   0.253   2.982 -0.1022 -0.0590  0.0005
17576W        W33710   6.060   3.799  13.602 -0.3270 -0.0624  0.3440
17577W        W33711  13.946   9.419  11.243  0.2308  0.0845  0.2371
17578W        W33712   1.379  16.764   5.059 -0.0808 -0.0420 -0.5127
17579W        W33713  16.748   4.156   1.167 -0.1335 -0.0202  0.3394
17580W        W33714   9.762  11.186   0.489  0.0431 -0.2864  0.0637
17581W        W33715  10.733  12.806   3.824  0.0909  0.3267 -0.1191
17582W        W33716   8.122   1.621   3.970  0.3562 -0.3235  0.0336
17583W        W33717   6.711  10.070   2.975 -0.0149  0.3093 -0.3685
17584W        W33718   0.387   2.020  12.565  0.2496  0.0291  0.0270
17585W        W33719   6.088   3.113   4.996 -0.4421  0.0276 -0.4241
17586W        W33720   6.797  14.774   4.681 -0.0584  0.0559 -0.0793
17587W        W33721  16.618  17.257  13.075 -0.0763 -0.2680  0.2891
17588W        W33722   0.700   0.475   1.438 -0.1575 -0.5999  0.1689
17589W        W33723   0.097   6.750  11.481 -0.2251 -0.1547 -0.0002
17590W        W33724   8.197  17.618   0.748  0.0438  0.0824  0.2428
17591W        W33725   2.841   0.061   5.648  0.0149 -0.1333 -0.0296
17592W        W33726   5.602   5.770  12.953 -0.0320 -0.0629  0.6029
17593W        W33727  10.760   1.521   3.283 -0.1699 -0.2302 -0.1124
17594W        W33728   0.313   2.499  14.992 -0.2112 -0.0345 -0.1887
17595W        W33729  11.171  13.831  11.971 -0.1887  0.1236  0.1562
17596W        W33730   1.429  10.664  15.102  0.0163 -0.0182  0.1920
17597W        W33731   9.871   3.728   2.307 -0.0399 -0.3257  0.2571
17598W        W33732  11.557   3.281   0.939  0.1788 -0.1431  0.0198
17599W        W33733   6.582   9.012   0.563 -0.0772  0.0790  0.0636
17600W        W33734  14.669  11.386  11.232  0.1857  0.1514 -0.0490
17601W        W33735   0.707   5.314  15.808  0.1432  0.2459 -0.0736
17602W        W33736  12.017  12.114   1.335 -0.0273 -0.2894 -0.1511
17603W        W33737   5.969  17.091   4.351 -0.2143  0.2130 -0.1458
17604W        W33738   6.658  15.943  12.681  0.0773  0.2047  0.1389
17605W        W33739  11.823  13.781  13.185 -0.3515  0.2922 -0.2000
17606W        W33740   5.487   6.101   3.103  0.2253 -0.4088  0.0089
17607W        W33741   5.792  10.008  14.429  0.2009 -0.0802  0.1043
17608W        W33742   8.220   2.869  16.191 -0.1144 -0.1103 -0.0243
17609W        W33743  17.067   4.317   0.790 -0.0325 -0.2666 -0.1052
17610W        W33744   5.067  15.518  16.155  0.0339  0.0446 -0.1142
17611W        W33745   4.915   2.441   0.861 -0.1367 -0.2131  0.1656
17612W        W33746   1.489   8.889   2.987 -0.3042 -0.1531  0.2001
17613W        W33747   8.768  16.980   0.442 -0.0399 -0.0811  0.1752
17614W        W33748  17.015  10.012  12.815  0.0029  0.1185  0.2177
17615W        W33749   3.060   4.766   2.528 -0.1867  0.1780  0.1395
17616W        W33750  11.071  14.005   0.475 -0.2371  0.0475  0.0030
17617W        W33751  12.604  14.068   5.281  0.0311 -0.1061 -0.0101
17618W        W33752  13.908   9.938  13.960 -0.1486 -0.3889 -0.1727
17619W        W33753  13.681   9.277  12.806 -0.2922  0.0559  0.1128
17620W        W33754  10.414   6.281  14.075 -0.0853  0.1079 -0.3029
17621W        W33755  11.518   6.113  12.221 -0.2150  0.1489  0.2375
17622W        W33756   7.789   8.049  12.069 -0.1509  0.1089 -0.1626
17623W        W33757  11.522   9.880   4.142 -0.0141 -0.2662 -0.1170
17624W        W33758   8.562   2.016   5.007  0.0306  0.2140  0.1752
17625W        W33759  11.520   1.257   4.616 -0.0682 -0.1837  0.0678
17626W        W33760  15.878   7.669  11.010 -0.1770 -0.0686  0.0590
17627W        W33761   5.735  13.065   5.087  0.1946 -0.0287 -0.0542
17628W        W33762   0.163   6.325   1.461 -0.0174 -0.0567 -0.1537
17629W        W33763   1.665   6.961  12.990  0.3886 -0.2391  0.2225
17630W        W33764   7.449  17.632  13.792  0.1872  0.2542 -0.2499
17631W        W33765  16.472   9.667  14.260 -0.3356 -0.0366  0.2848
17632W        W33766   6.620   4.037  13.173 -0.1677 -0.0786  0.1521
17633W        W33767   2.486   6.060  15.790 -0.1711 -0.1468  0.0785
17634W        W33768  15.574   3.133  13.112 -0.1334  0.1583 -0.0995
17635W        W33769   8.746   2.371   2.336 -0.0065 -0.1356  0.1959
17636W        W33770   1.988  13.611   0.764  0.2320  0.2447  0.0655
17637W        W33771  17.242  15.479   4.489  0.1277 -0.1984  0.0812
17638W        W33772   1.718   6.583   5.384  0.0241 -0.0676 -0.2060
17639W        W33773  16.291   2.067  15.073 -0.0269 -0.1429  0.0278
17640W        W33774   0.574  15.878   4.103 -0.0006  0.2852 -0.0583
17641W        W33775   8.840   9.074  16.099  0.0410 -0.2009  0.1798
17642W        W33776   8.413   9.598  11.482  0.0575 -0.2685 -0.0612
17643W        W33777  15.528   3.034   1.140 -0.1531 -0.2361  0.3266
17644W        W33778  16.752  11.985   1.228  0.2234  0.2123  0.1779
17645W        W33779   8.345  15.099   3.367 -0.2317  0.2821 -0.3494
17646W        W33780   4.832   5.234  13.394 -0.0672 -0.2032  0.3701
17647W        W33781  14.998   4.725   3.645  0.0326  0.1815  0.1426
17648W        W33782  17.700   1.949  16.080 -0.1312 -0.0005  0.1650
17649W        W33783   8.411   4.249  16.525  0.2040 -0.1499 -0.0365
17650W        W33784   4.477   7.844  16.459  0.0624  0.2647  0.2220
17651W        W33785   7.853   6.818  10.812  0.0043 -0.1942  0.1997
17652W        W33786   1.284   7.331   4.127 -0.1104  0.1806  0.1333
17653W        W33787   9.560   2.362   6.325 -0.1003  0.0719 -0.0236
17654W        W33788  13.116  11.430  14.146  0.1120  0.4477 -0.1479
17655W        W33789   4.243   4.444  11.905  0.1722  0.1023 -0.0184
17656W        W33790  10.547  13.770  15.021  0.0908  0.0648  0.0616
17657W        W33791  10.968   4.776  15.265  0.0426 -0.2807  0.0927
17658W        W33792  16.232   7.469  13.194 -0.1101 -0.0409  0.3105
17659W        W33793   3.085  15.032   3.516  0.0042  0.2283 -0.0704
17660W        W33794   5.435  16.477  14.108  0.1788  0.0326 -0.1930
17661W        W33795  10.179  16.780   0.214 -0.0994 -0.3439  0.2543
17662W        W33796   1.382   2.922   5.386  0.4806 -0.0835  0.1319
17663W        W33797  17.525  11.980  11.824  0.1930 -0.1528 -0.1035
17664W        W33798  15.808  10.144  12.920 -0.1949 -0.2735 -0.1745
17665W        W33799   5.100  17.789  11.193  0.1592  0.0897 -0.1724
17666W        W33800  12.793  16.316  11.589  0.0240  0.0226  0.0319
17667W        W33801   7.398  15.562  15.782 -0.0500  0.3244  0.0169
17668W        W33802   1.990   4.316  11.589 -0.2009 -0.0535 -0.0440
17669W        W33803   2.011   1.578   2.668 -0.0891 -0.3859 -0.4153
17670W        W33804  12.772  15.788   3.870  0.3164  0.2951  0.0889
17671W        W33805   4.512   7.401  16.234 -0.3616  0.1236 -0.0675
17672W        W33806   5.803   8.495  11.700 -0.0900 -0.0276  0.0957
17673W        W33807   8.014   5.623   0.352  0.0316 -0.0193  0.3933
17674W        W33808  14.034   3.637   4.778  0.2151 -0.1421  0.1287
17675W        W33809  13.482   9.892   1.915 -0.0870  0.1366  0.5193
17676W        W33810   9.447   3.609   0.000 -0.2481  0.2891  0.1651
17677W        W33811   2.334   7.616   3.346 -0.0330  0.2104 -0.1453
17678W        W33812  11.339  14.103   3.716 -0.1184 -0.2242 -0.0736
17679W        W33813   5.562  16.186   4.660  0.2037 -0.1221 -0.1520
17680W        W33814  12.674  17.892  15.515 -0.2280 -0.1301  0.1672
17681W        W33815  17.508  13.797   1.817  0.0357 -0.0644  0.3360
17682W        W33816   5.863  11.687   5.488  0.0220  0.1980 -0.0852
17683W        W33817  16.408   1.189  13.512 -0.1052 -0.0301 -0.1358
17684W        W33818  15.769   0.835   5.004  0.1349  0.3106 -0.3321
17685W        W33819   1.005  18.029   2.149 -0.1309  0.1354 -0.2577
17686W        W33820  16.718  10.926  14.462  0.1076 -0.3465  0.0398
17687W        W33821  11.007   0.572   0.596  0.1578 -0.2443  0.2835
17688W        W33822   8.794  16.716  13.087  0.0783 -0.1221 -0.0337
17689W        W33823   7.784   7.629  13.182  0.1314  0.0624 -0.0528
17690W        W33824  15.630  11.659  14.559 -0.0835  0.0592 -0.2582
17691W        W33825   2.866   9.482  11.460 -0.1085  0.2482  0.2451
17692W        W33826   6.883   1.108   3.421  0.1757 -0.0229 -0.0728
17693W        W33827   7.541  13.691  11.193 -0.1060 -0.1078 -0.2013
17694W        W33828  10.817   3.631   0.537  0.0564  0.0361 -0.2632
17695W        W33829   8.919   4.329   2.299 -0.1999 -0.1648 -0.2917
17696W        W33830  14.192   2.255  15.929 -0.2400 -0.2078  0.4006
17697W        W33831   9.537   0.057   5.694  0.3695  0.1580 -0.0994
17698W        W33832  17.156   4.044   2.170  0.0295 -0.0643 -0.0685
17699W        W33833  11.284   0.854  12.420 -0.1210  0.1206 -0.0094
17700W        W33834  12.719  14.569   1.992 -0.0917 -0.2406  0.2898
17701W        W33835   8.148   9.151  12.566  0.1911  0.3285  0.0070
17702W        W33836   0.551  13.387   0.411  0.0529 -0.3003 -0.2123
17703W        W33837   7.283  13.063   0.875 -0.3261 -0.1955 -0.0008
17704W        W33838  15.224   9.446   4.580 -0.1626  0.1129 -0.2387
17705W        W33839   7.057  11.069  16.321 -0.1221  0.1793 -0.0079
17706W        W33840  14.047   7.660  13.996  0.2590  0.0478 -0.2602
17707W        W33841  12.874   6.372  12.161  0.1395 -0.1297 -0.0690
17708W        W33842   4.911  10.123   0.443  0.5898  0.0123  0.0264
17709W        W33843  18.104  12.513   6.482 -0.2001  0.2447  0.2751
17710W        W33844   0.752   8.643  13.087 -0.1957  0.2511 -0.0476
17711W        W33845   0.261  14.593  11.547  0.0335  0.4159 -0.2118
17712W        W33846   1.146  11.925  13.455  0.3373  0.0027  0.1364
17713W        W33847  14.561  17.967   1.487 -0.3034  0.3232 -0.1413
17714W        W33848  10.071   5.744  15.096  0.1217 -0.1270  0.2995
17715W        W33849   3.162   1.297   3.614 -0.0226 -0.1204  0.0544
17716W        W33850   5.910   0.223  14.752  0.0575 -0.0391  0.0649
17717W        W33851   5.034  11.472   2.377 -0.1619  0.3511 -0.1205
17718W        W33852   5.958   9.058  16.247  0.0750  0.0338 -0.1667
17719W        W33853   3.913   6.377   4.599 -0.1595 -0.1506 -0.3795
17720W        W33854  10.061   5.490   3.400 -0.0300  0.2965  0.0079
17721W        W33855   1.015   6.773  11.920  0.3615  0.0399  0.0322
17722W        W33856   7.410   4.155   4.039 -0.1173  0.1390 -0.2531
17723W        W33857  10.587   6.126   5.074  0.2125 -0.0137  0.2447
17724W        W33858  10.520  12.775   1.933 -0.4021 -0.3031  0.3397
17725W        W33859   7.942  12.363  13.762 -0.1375 -0.2494 -0.1423
17726W        W33860   9.855  10.107   1.713  0.0290 -0.1994  0.0805
17727W        W33861  10.333   6.328   1.868 -0.0851  0.1388  0.3139
17728W        W33862  17.048   2.272   2.989  0.0816 -0.0639 -0.0546
17729W        W33863   8.573  18.124  11.677  0.0676 -0.0905  0.1992
17730W        W33864  10.697   4.726   4.356  0.3562  0.0711  0.0638
17731W        W33865  11.997   3.051  12.340 -0.0991  0.0355 -0.0774
17732W        W33866  18.071  17.219   4.420 -0.1326  0.2655  0.0363
17733W        W33867   2.593   0.978  14.014 -0.2698  0.2440 -0.2040
17734W        W33868  17.716  12.839  12.155 -0.0506 -0.0661  0.2510
17735W        W33869   7.521   3.567   3.840 -0.4633  0.0539 -0.3285
17736W        W33870  18.160   3.095   1.664 -0.1185  0.3288  0.1654
17737W        W33871  12.263   0.011  15.381  0.1538  0.0525 -0.0843
17738W        W33872  12.792   8.007   0.241  0.1262  0.0611 -0.1679
17739W        W33873  13.461   8.836   1.123 -0.1784  0.4448  0.4108
17740W        W33874  11.404   9.132  16.450  0.4156  0.4167  0.0210
17741W        W33875   3.454  14.533   0.203  0.0394 -0.2966  0.0267
17742W        W33876  14.997   1.995  14.697 -0.0775  0.2235 -0.1748
17743W        W33877  11.856  15.186   5.968 -0.3449  0.2766 -0.2724
17744W        W33878   5.212   7.864  13.072 -0.0233  0.1114  0.0316
17745W        W33879   8.960  11.554   5.499 -0.0306  0.2522  0.3168
17746W        W33880  17.821  18.129   0.351  0.0363 -0.0112 -0.3604
17747W        W33881   6.156   5.562  11.490  0.1301 -0.0239 -0.0260
17748W        W33882   2.984   9.240  11.910 -0.0334 -0.0738 -0.0393
17749W        W33883   8.446  16.870  11.398  0.0883 -0.0043 -0.2101
17750W        W33884  11.590   2.913  14.709 -0.1339 -0.0178 -0.1041
17751W        W33885  14.572  10.060  10.867  0.1356  0.1763 -0.0158
17752W        W33886  12.804   1.994  15.890 -0.1933 -0.0484 -0.0980
17753W        W33887   8.896   5.281  14.044 -0.1424  0.2394 -0.2592
17754W        W33888   3.503   3.898   3.810  0.0142 -0.0995  0.0401
17755W        W33889   2.287   0.152   3.488 -0.2623 -0.0290  0.1327
17756W        W33890   9.311   7.722  13.391 -0.0870 -0.0766 -0.0570
17757W        W33891  13.763  11.106   0.531 -0.0711 -0.0712  0.3100
17758W        W33892   2.311  13.000  13.015  0.0891  0.3061 -0.0097
17759W        W33893   5.839   7.382   1.119  0.3064  0.0931 -0.0680
17760W        W33894   5.621  15.163   3.998  0.3260 -0.1923  0.2037
17761W        W33895  17.802  16.675   2.492 -0.0362 -0.2131  0.2163
17762W        W33896  15.692  14.120   3.517 -0.1354  0.0656  0.2251
17763W        W33897   9.405   5.241  15.876 -0.1170 -0.3336  0.0476
17764W        W33898   5.691  13.581   4.314  0.0082 -0.1018 -0.0114
17765W        W33899   3.138   2.545   2.629 -0.0485 -0.3281  0.0208
17766W        W33900   8.685  15.216   3.732 -0.2439 -0.0622 -0.1766
17767W        W33901   5.388   6.653   4.764 -0.1122 -0.5111  0.2220
17768W        W33902  10.406   7.424   4.115 -0.0155 -0.0953 -0.1527
17769W        W33903  15.314  11.089  16.108  0.3514 -0.1447  0.1778
17770W        W33904   8.868   1.631  12.415  0.0016  0.0503 -0.2605
17771W        W33905   0.700   0.212   5.971 -0.1733 -0.0167  0.0586
17772W        W33906  13.464   5.138  11.616  0.0902 -0.1323 -0.2088
17773W        W33907  15.209   2.951   3.451  0.0205  0.2074  0.2288
17774W        W33908  12.695  17.791  12.283 -0.4323 -0.1915 -0.0585
17775W        W33909  14.857  15.840   1.420  0.3725  0.2435 -0.1445
17776W        W33910   2.526   0.782   1.605  0.1648 -0.1632 -0.2978
17777W        W33911  15.760  12.759   5.633  0.0415 -0.0805 -0.1193
17778W        W33912   1.793   3.151   1.042 -0.1413  0.0785  0.1339
17779W        W33913  15.986   2.245  16.437 -0.0396  0.3318 -0.1144
17780W        W33914   2.260  16.144  15.673  0.1493 -0.1514  0.1299
17781W        W33915  11.402  12.666   4.354 -0.1223 -0.0067  0.1403
17782W        W33916   9.230   3.638  11.987  0.0239 -0.3785 -0.1251
17783W        W33917  15.913   4.645  12.302  0.1757 -0.0788 -0.1298
17784W        W33918  11.895  11.113   4.981 -0.0180 -0.0354 -0.2574
17785W        W33919   2.977   5.383   0.982 -0.1836  0.0279  0.2830
17786W        W33920  14.439   7.876  15.062  0.2763 -0.2923  0.0873
17787W        W33921   6.743  12.461   3.700  0.0624  0.0592  0.1305
17788W        W33922  13.552  16.360  12.167 -0.0164  0.2615  0.1108
17789W        W33923  14.975   1.465   0.297 -0.2703 -0.1269 -0.0845
17790W        W33924  16.725   5.438  11.495  0.1756 -0.0161  0.0105
17791W        W33925  11.663   0.480  15.889 -0.1034 -0.2774  0.1571
17792W        W33926   2.689   2.453   6.283 -0.0175  0.0730  0.0372
17793W        W33927   5.860  13.868  15.417 -0.3497  0.0235 -0.1264
17794W        W33928   3.275  11.051  16.485  0.3131 -0.0198  0.1306
17795W        W33929  11.360   1.964   5.288 -0.3645 -0.1434 -0.1147
17796W        W33930   6.330   4.187   3.745 -0.0162  0.3722  0.2147
17797W        W33931  10.818   1.938  13.105  0.1424  0.1528  0.1053
17798W        W33932  15.955  15.383   3.915  0.1251 -0.1647  0.0980
17799W        W33933  13.220   2.905   2.450  0.0086  0.4145  0.3480
17800W        W33934   3.643   1.134  14.419  0.0597  0.1048  0.3678
17801W        W33935   4.819  10.313  15.807 -0.4474 -0.2367  0.2310
17802W        W33936   1.677  11.090  12.595 -0.1132  0.1005 -0.0898
17803W        W33937   8.021   7.956   0.460 -0.3658 -0.1135 -0.0391
17804W        W33938   5.868   4.565  11.056 -0.2707 -0.1640  0.2231
17805W        W33939   7.553  16.869   2.410  0.2591  0.0383  0.0215
17806W        W33940   6.201   0.232  16.364  0.0820 -0.0243 -0.2358
17807W        W33941  13.845  13.267   4.557  0.0573  0.0244 -0.2618
17808W        W33942  10.064   4.350   0.410  0.2019 -0.1680 -0.0625
17809W        W33943   5.671   6.292   1.086  0.0370  0.0616  0.1185
17810W        W33944  14.687   7.256   0.889 -0.2632  0.1753  0.0915
17811W        W33945   8.850  13.961  12.003  0.0659  0.1346 -0.1662
17812W        W33946  17.311  13.653   2.777 -0.1345  0.1579 -0.2562
17813W        W33947   8.306   6.287   5.617 -0.3508 -0.2077 -0.2891
17814W        W33948   7.949  11.521  15.487  0.0343 -0.1057  0.2056
17815W        W33949  18.011  12.143  15.674  0.1483 -0.0705  0.2848
17816W        W33950  16.283  14.675   2.302 -0.0329 -0.1396 -0.0111
17817W        W33951  12.899  13.479   4.474  0.1890  0.0518 -0.0168
17818W        W33952  10.439   9.132   2.381 -0.0218 -0.1008  0.1665
17819W        W33953   9.583  17.428   6.243 -0.0969  0.1294  0.2503
17820W        W33954   5.570  15.597  16.140 -0.0297  0.1309 -0.2487
17821W        W33955   0.279   6.956   4.891  0.1955 -0.2004  0.2709
17822W        W33956   0.442  12.415  16.055 -0.1707 -0.4106  0.1380
17823W        W33957  13.115  11.454  11.216  0.1206  0.0961 -0.0349
17824W        W33958  10.331   7.611  13.822  0.0481  0.3297  0.2218
17825W        W33959   4.064  12.417  15.718 -0.2379 -0.1440 -0.0821
17826W        W33960   1.769   2.890   0.231 -0.0084  0.3186 -0.0501
17827W        W33961  14.408  14.599  12.787  0.2970 -0.1113 -0.0050
17828W        W33962  11.306   2.679   2.466 -0.1603  0.2540 -0.1118
17829W        W33963  14.050   5.957  15.458 -0.1684 -0.0607 -0.1204
17830W        W33964  11.895  14.890   0.319  0.2272  0.1237  0.0671
17831W        W33965   0.989   1.340  15.650 -0.1149  0.2904 -0.0507
17832W        W33966  16.721   8.056  14.231  0.3578 -0.0357 -0.1861
17833W        W33967  14.939  17.957   4.204  0.2401  0.0940 -0.1863
17834W        W33968  15.958  16.505  13.604  0.0534  0.1163  0.1341
17835W        W33969   4.723  12.095   2.743 -0.0549 -0.0482  0.2279
17836W        W33970   8.266   3.323   1.835  0.1306  0.2472 -0.0010
17837W        W33971  12.846  16.665  12.859 -0.4850 -0.0277 -0.1167
17838W        W33972   3.831   7.599   2.205 -0.0650  0.0603 -0.1761
17839W        W33973  14.866   8.169  13.885 -0.0583  0.1691  0.1890
17840W        W33974   1.786   3.793   2.148 -0.2038 -0.0968  0.1455
17841W        W33975   4.121  10.740  14.048 -0.0789  0.1861 -0.0481
17842W        W33976   1.714  13.097  11.603 -0.2375  0.1090 -0.2084
17843W        W33977   2.110   2.202  14.087  0.1828 -0.3160  0.0155
17844W        W33978   6.026   7.403   3.659  0.5362 -0.1677  0.0282
17845W        W33979  17.270  10.829   0.288 -0.2883  0.2694  0.1600
17846W        W33980  12.287  11.837   2.817 -0.1469 -0.1711  0.1867
17847W        W33981  14.397   8.380  15.099 -0.1480 -0.1182  0.0468
17848W        W33982   0.546   0.754  13.500  0.1019  0.1601 -0.4866
17849W        W33983  14.303  11.870  14.926 -0.0906 -0.1562 -0.0310
17850W        W33984   0.594  14.208  16.489 -0.1673 -0.2234 -0.0724
17851W        W33985   0.446   7.758   3.977  0.0253 -0.1496  0.0731
17852W        W33986   8.982   8.798   4.598  0.0898 -0.2320 -0.0805
17853W        W33987  10.711   2.245  13.708 -0.3147 -0.0964  0.3246
17854W        W33988   2.270  16.629   1.619 -0.2404 -0.0350 -0.4093
17855W        W33989   0.709  15.341  14.883  0.3924 -0.2043  0.1236
17856W        W33990   1.050  16.690  15.966  0.3394 -0.0908  0.1242
17857W        W33991   4.970  17.758  12.292 -0.0716 -0.3335  0.0394
17858W        W33992  12.034   4.963  12.001 -0.0048  0.0362  0.3165
17859W        W33993  10.394  10.748   3.050  0.3205 -0.4328 -0.0060
17860W        W33994   5.036  11.532  12.679  0.0618  0.2450 -0.0261
17861W        W33995   7.707   5.322   5.075 -0.2561 -0.0905 -0.1339
17862W        W33996  16.900   2.621  12.732  0.1305  0.1509  0.0528
17863W        W33997   7.778   2.538  14.773 -0.0004  0.2944 -0.0595
17864W        W33998   1.923  11.809   1.713 -0.0995 -0.4231 -0.0919
17865W        W33999  17.026  16.721  13.514  0.0371 -0.1017 -0.1188
17866W        W34000  13.578   7.780   3.207  0.1875  0.0020 -0.2157
17867W        W34001   4.479   0.370  13.358  0.2067 -0.0146 -0.0934
17868W        W34002   6.008   5.583   4.377  0.0567  0.0428 -0.1781
17869W        W34003  16.693  17.065   4.529  0.0903  0.0972 -0.0608
17870W        W34004   4.522  10.513  13.413  0.0166  0.6143  0.0176
17871W        W34005  13.135   0.977  12.121 -0.2308 -0.0431 -0.0187
17872W        W34006   6.450  13.451  12.196  0.0090 -0.0683  0.1408
17873W        W34007  10.928  14.830   3.075  0.1311  0.0279 -0.1055
17874W        W34008  13.845   3.455  16.503  0.0862 -0.4859 -0.0800
17875W        W34009  17.036   5.183   1.381 -0.0464  0.1902 -0.0360
17876W        W34010   7.186  14.091  11.246  0.1003 -0.1569 -0.2684
17877W        W34011  13.829  14.672  16.401  0.1817 -0.0411  0.1919
17878W        W34012  14.658  14.495  14.665  0.0459 -0.0004  0.1050
17879W        W34013   0.582   4.030   1.842  0.0851 -0.2488  0.3301
17880W        W34014  17.521   1.698   0.853 -0.1039 -0.0891 -0.0327
17881W        W34015   1.761  16.795   1.115  0.1239  0.1123  0.1893
17882W        W34016   0.361  14.697   3.563  0.0024 -0.3497  0.2265
17883W        W34017  16.528   1.015  13.079 -0.1701 -0.1040 -0.0608
17884W        W34018   1.726   9.660  13.384 -0.1739  0.0843  0.1815
17885W        W34019   2.188  15.537   3.733 -0.1619  0.0632 -0.1949
17886W        W34020   4.607   8.509  12.009  0.2636  0.2823  0.2102
17887W        W34021   4.482  16.335   4.092 -0.1713 -0.0125  0.0534
17888W        W34022  16.414   7.633  12.404  0.2168  0.2301  0.1423
17889W        W34023   0.458  16.622   2.669 -0.3566  0.0318  0.0167
17890W        W34024   9.815   2.059   5.007 -0.0649  0.1264  0.1519
17891W        W34025  15.211   6.164  14.922  0.0224  0.1020 -0.1495
17892W        W34026  14.786  12.875  12.944 -0.1204  0.1396  0.1460
17893W        W34027   5.776   3.556  16.417  0.1008 -0.3720  0.2914
17894W        W34028   2.045  14.432  13.508  0.0750  0.2063 -0.0045
17895W        W34029   6.052  17.670  12.550 -0.3207 -0.3022 -0.1087
17896W        W34030  12.731  12.435   3.685  0.2284  0.0167 -0.1077
17897W        W34031   7.374   0.433  15.118 -0.1127 -0.0165  0.3212
17898W        W34032  17.598   5.647  16.253 -0.1672 -0.1979 -0.0271
17899W        W34033  10.813   2.888   5.131  0.3376 -0.0070  0.1027
17900W        W34034   7.871  15.371  16.531 -0.1418 -0.3081  0.2428
17901W        W34035  10.823  10.612   3.269  0.1423  0.1745 -0.0519
17902W        W34036  15.515  10.516   4.775 -0.1486  0.1018  0.1733
17903W        W34037   9.283   9.286   0.901 -0.0505  0.3657  0.0917
17904W        W34038  17.596   8.050   0.756 -0.1624 -0.1235  0.1679
17905W        W34039   0.526   8.241  16.229 -0.1277 -0.0649 -0.0538
17906W        W34040   7.371   1.424   0.428  0.0982  0.2891 -0.0533
17907W        W34041   2.648  14.967   4.956  0.1348  0.3165 -0.0947
17908W        W34042   5.180   7.925   1.146 -0.2016 -0.0591  0.0963
17909W        W34043  12.226  16.731   3.879 -0.1211  0.0421  0.2086
17910W        W34044   2.419   3.989   1.671  0.0577  0.1716  0.1478
17911W        W34045   8.345  14.005   4.438  0.1705 -0.0658 -0.0904
17912W        W34046   6.626   2.823   1.342 -0.1483  0.0268 -0.0934
17913W        W34047   1.700   8.498   5.069  0.0428  0.0057  0.0964
17914W        W34048  12.533   7.450   1.551  0.0862 -0.0387 -0.0987
17915W        W34049   2.001   7.584  12.392 -0.1383  0.0395 -0.1353
17916W        W34050   6.148  16.001  13.511  0.1448  0.0319  0.0303
17917W        W34051  13.069   2.435   2.803  0.0127  0.1014 -0.1309
17918W        W34052  11.224  15.256  14.349 -0.0960  0.1697  0.2860
17919W        W34053  13.627  14.413  14.791  0.1489 -0.0834  0.0111
17920W        W34054  11.889   1.527   2.957  0.2256  0.2974 -0.1080
17921W        W34055  10.517   7.723   5.254 -0.0299 -0.0059  0.0706
17922W        W34056  11.671   5.760  15.888 -0.0973  0.1787  0.0941
17923W        W34057  12.910  10.633   5.944  0.1466  0.3751  0.1416
17924W        W34058   8.935  12.894   5.381  0.1738  0.2272  0.2338
17925W        W34059   1.578   1.025   1.604 -0.2462  0.0824 -0.0789
17926W        W34060  14.447  16.252   2.960 -0.0793  0.0299 -0.2736
17927W        W34061   2.615  14.711  14.016  0.2946 -0.2313  0.3753
17928W        W34062  17.706  15.142   6.185 -0.0698 -0.1116  0.1730
17929W        W34063   3.826   9.090   2.152 -0.5143  0.0094  0.1784
17930W        W34064   5.094  17.189  13.895  0.1147  0.1963  0.0548
17931W        W34065  12.434   5.137  12.851  0.2080 -0.0609 -0.1009
17932W        W34066   7.904   6.428   6.018 -0.0464  0.0494  0.2249
17933W        W34067   0.722   0.986   1.510  0.1381 -0.1256 -0.1587
17934W        W34068  15.153   5.546  15.123 -0.0435 -0.0311  0.0606
17935W        W34069   5.950   2.703  15.998  0.0088  0.3880 -0.2217
17936W        W34070  15.201   8.059  11.402  0.1573 -0.3485  0.0570
17937W        W34071   6.327   6.180   3.863  0.0700  0.0220  0.1058
17938W        W34072   6.343   1.506   1.786 -0.2116  0.1081  0.1216
17939W        W34073   3.792   4.647   4.191 -0.1302  0.0239 -0.0372
17940W        W34074   2.266   9.870   5.610  0.1478 -0.0061 -0.2234
17941W        W34075  14.230  14.942  16.526  0.0238 -0.2907 -0.0868
17942W        W34076  12.225   0.750   6.468 -0.2310  0.1810  0.0394
17943W        W34077  17.556  17.551  15.203  0.2731  0.1401 -0.2176
17944W        W34078  15.621   8.716  11.086 -0.2739 -0.1353 -0.2873
17945W        W34079   0.089  17.014  11.737  0.0926  0.1974 -0.0900
17946W        W34080   7.963   8.747  14.029  0.1336 -0.3607 -0.0370
17947W        W34081   3.928   5.366  11.671  0.3245 -0.0132 -0.2044
17948W        W34082   0.573  15.589  16.422 -0.2112 -0.0987 -0.0289
17949W        W34083  10.765   4.038  16.460  0.1611  0.1748 -0.3325
17950W        W34084   8.261  11.226  13.308  0.3662 -0.3081  0.4741
17951W        W34085   9.138  15.590   0.296  0.0627 -0.0477 -0.0310
17952W        W34086  17.811  13.374   0.285 -0.1854  0.0648  0.0020
17953W        W34087   6.817   5.756   2.770  0.0118 -0.0366  0.4427
17954W        W34088   6.160   3.611  15.206  0.0946 -0.0235 -0.2594
17955W        W34089   7.165   0.600  10.928 -0.0835 -0.1649  0.2989
17956W        W34090   1.409  17.282   2.894  0.1038 -0.1462 -0.0797
17957W        W34091  15.099  11.009   3.436  0.2022 -0.3791 -0.0930
17958W        W34092   0.584   7.310   1.028 -0.1357  0.3628 -0.1738
17959W        W34093   2.832   7.703   1.447 -0.0651 -0.1309 -0.0783
17960W        W34094   6.361   9.625   4.502 -0.2521  0.0128  0.0589
17961W        W34095  15.600  12.944   4.308 -0.0916  0.0174  0.3295
17962W        W34096   5.346   8.696   1.131  0.1258 -0.0014  0.0424
17963W        W34097   2.981   1.490  15.958 -0.1760 -0.0941 -0.0134
17964W        W34098  13.071   0.196   5.567 -0.1192  0.0744 -0.1652
17965W        W34099   5.152  15.435   3.897  0.1827 -0.1224 -0.0423
17966W        W34100   8.909   5.621   2.736 -0.0039  0.0790 -0.1431
17967W        W34101  11.228  15.851   1.932 -0.0571  0.0367 -0.0291
17968W        W34102  11.839   7.230  12.696  0.2178  0.1684  0.3141
17969W        W34103  17.465   3.183   3.498 -0.2223  0.0566  0.1437
17970W        W34104  12.439   0.109  13.756  0.0773  0.1371  0.0401
17971W        W34105   6.207   0.257  11.787 -0.3265  0.0524  0.0222
17972W        W34106   4.469  11.318  15.130  0.1395 -0.3897  0.3718
17973W        W34107   3.250   4.701  12.815 -0.1808  0.2546 -0.3053
17974W        W34108   5.299  14.391   3.648 -0.3401 -0.0909  0.0809
17975W        W34109  16.157  16.628   4.121  0.4613  0.0677 -0.0916
17976W        W34110   3.334   2.547   0.319  0.1872 -0.2291 -0.1040
17977W        W34111   5.615   3.261  14.344 -0.0946 -0.2623 -0.1224
17978W        W34112   5.724  14.158   3.518  0.1565  0.0505  0.2564
17979W        W34113   0.580  14.515  13.840  0.1573  0.0854  0.0878
17980W        W34114   9.312   2.521  15.082  0.3351  0.1099 -0.3753
17981W        W34115  14.533   4.423  11.896  0.4276 -0.0343  0.3947
17982W        W34116  13.738   3.860  14.824  0.0332 -0.0327  0.1258
17983W        W34117   5.149  15.410  11.655 -0.0344  0.0151  0.0060
17984W        W34118   3.907   8.616  13.207  0.0034 -0.0853 -0.1337
17985W        W34119   9.509   7.385  14.781 -0.0652 -0.1286  0.0345
17986W        W34120  10.370   5.435  13.730  0.0546  0.0550  0.0913
17987W        W34121   3.972   5.864   2.500 -0.0545  0.1041  0.1031
17988W        W34122   2.375  16.459  15.972 -0.2979 -0.0474  0.0131
17989W        W34123   3.106   5.622  16.151  0.0987  0.1342  0.0335
17990W        W34124  14.053  15.848   4.670  0.0038  0.0342  0.0618
17991W        W34125   3.809   5.440   5.123  0.2006 -0.0338  0.0008
17992W        W34126   1.784   1.540   5.642  0.3447 -0.0183 -0.0676
17993W        W34127   7.786   9.525   4.367  0.2106  0.0610 -0.1187
17994W        W34128   4.800   9.986  11.417  0.2550  0.0638 -0.0635
17995W        W34129   7.961  13.479  14.861 -0.0692 -0.0261 -0.1542
17996W        W34130   2.247   4.167  16.123 -0.0110 -0.2673 -0.0534
17997W        W34131  15.955   5.708  13.142  0.0832  0.1111 -0.0241
17998W        W34132   1.162   8.746   3.306 -0.0502 -0.1977 -0.0258
17999W        W34133   8.352  10.921  15.181 -0.3867 -0.0487  0.1675
18000W        W34134   7.811   8.576  13.395 -0.0062  0.1569 -0.1269
18001W        W34135   4.882  13.007   0.721  0.3135 -0.1054 -0.0799
18002W        W34136   8.531   1.995  13.833 -0.1218  0.0695  0.2318
18003W        W34137  16.758   3.360   4.215 -0.0835  0.2168  0.0433
18004W        W34138   6.473  11.884  15.459 -0.1176  0.2417 -0.0366
18005W        W34139  16.811  14.364  16.375  0.1148  0.1260  0.0872
18006W        W34140  11.780   5.309  11.789  0.1003  0.1817 -0.1601
18007W        W34141  15.985  11.556   3.994  0.1579  0.0476 -0.2078
18008W        W34142  16.645   8.989  14.575 -0.0018  0.0580 -0.0121
18009W        W34143  16.330   6.659   5.386  0.1768  0.3022 -0.2393
18010W        W34144  11.228   8.726  12.040 -0.0617 -0.0212  0.0724
18011W        W34145  13.786  16.304  10.765 -0.2311  0.3143  0.1833
18012W        W34146  11.659   1.954   2.800  0.0795 -0.0478 -0.3500
18013W        W34147   7.597   1.935   1.443 -0.1610 -0.1131 -0.0640
18014W        W34148   0.418  11.586  11.903 -0.2587 -0.2003 -0.1027
18015W        W34149   0.073  17.168  12.259 -0.1403  0.0382  0.1862
18016W        W34150   4.086  13.723   4.502  0.0590  0.1615 -0.0373
18017W        W34151  17.934  16.827   0.099  0.1466  0.0533 -0.0060
18018W        W34152  11.119  11.953  14.538 -0.0133  0.1553 -0.1086
18019W        W34153   0.319   5.375  14.875 -0.3360  0.2352 -0.1744
18020W        W34154  15.888  17.596  12.606 -0.0128  0.2350  0.0581
18021W        W34155   5.358   8.064  15.088  0.1300  0.2849  0.2149
18022W        W34156  11.213  10.366   3.498 -0.2087  0.0784 -0.5309
18023W        W34157   0.639   4.573  10.475 -0.0965  0.0359  0.1656
18024W        W34158  10.056   8.454   3.890  0.2148 -0.1949  0.0304
18025W        W34159   6.839   9.146   2.103 -0.1505  0.1241  0.1818
18026W        W34160  10.825   8.963   4.924 -0.1520  0.1697  0.2286
18027W        W34161   1.619   9.675   3.655  0.0060  0.0680 -0.0586
18028W        W34162  11.112   6.264  14.095  0.0842 -0.0712 -0.1676
18029W        W34163  16.334  11.871  12.058 -0.1240 -0.1027  0.0311
18030W        W34164   9.229  10.626   2.107 -0.2034 -0.2876 -0.2069
18031W        W34165   2.525   6.403   4.928 -0.0091  0.2444 -0.1376
18032W        W34166  17.691   5.091  12.227  0.0021 -0.0412  0.1077
18033W        W34167   7.954   8.250   3.110 -0.0239 -0.0589  0.2013
18034W        W34168   3.611  13.304   0.260 -0.0197  0.2286 -0.2558
18035W        W34169  12.540   7.959   1.562 -0.2009 -0.0514 -0.2730
18036W        W34170  10.954  15.707   1.156  0.1728 -0.0440 -0.0752
18037W        W34171  16.686   0.489  14.066 -0.0992  0.4042  0.2051
18038W        W34172   7.720  13.054  14.119 -0.1953  0.0322  0.0317
18039W        W34173   7.491   2.821   4.333 -0.1348 -0.2754  0.4075
18040W        W34174   1.138   4.900  16.190 -0.2144 -0.0667  0.2009
18041W        W34175   3.925   2.031   2.554  0.1100 -0.0768 -0.0329
18042W        W34176   6.546  12.399   0.467 -0.0877  0.2199  0.2142
18043W        W34177  12.092  12.358  11.996  0.2294 -0.3253 -0.1273
18044W        W34178  14.956  16.059  11.744 -0.0640  0.2840 -0.0771
18045W        W34179   7.765   3.279  12.176 -0.2607  0.1336 -0.2036
18046W        W34180   0.963   7.052  12.887 -0.4300  0.2334 -0.1240
18047W        W34181  15.624   3.775  14.717 -0.0300 -0.0093  0.3006
18048W        W34182  17.494  10.406   2.099  0.0161 -0.0790  0.1155
18049W        W34183   1.919   3.365   1.929  0.1417  0.1338 -0.2106
18050W        W34184   1.438  11.111   3.195  0.0271 -0.1826 -0.0992
18051W        W34185   5.073   7.801   0.691 -0.0294 -0.4364 -0.0597
18052W        W34186  16.034   6.555   4.848 -0.1984  0.2238  0.1721
18053W        W34187  13.386   0.102   2.317 -0.1402  0.2188 -0.1406
18054W        W34188   3.913  13.071  12.939 -0.0935 -0.0482  0.2113
18055W        W34189  12.530  16.562   2.286  0.0233 -0.0041  0.2568
18056W        W34190  10.631  16.194   0.934  0.1554  0.3112  0.0401
18057W        W34191   8.225   5.349  12.918  0.1569  0.1363 -0.0492
18058W        W34192   3.494  10.012   1.869  0.1524 -0.0960  0.0764
18059W        W34193  13.334   5.346  12.796  0.0662 -0.3131 -0.0673
18060W        W34194  14.494   2.169  11.717  0.1146  0.2936 -0.1730
18061W        W34195  16.986  12.247  11.480  0.0570 -0.2399 -0.2665
18062W        W34196  15.297  18.054  14.865 -0.0533 -0.0183 -0.0683
18063W        W34197   6.092   7.721   5.256  0.0907  0.1551  0.3081
18064W        W34198  10.747   3.366  11.751 -0.2263  0.3611  0.1992
18065W        W34199  18.087   9.411  15.609  0.0929  0.0314 -0.0778
18066W        W34200   8.623   2.405  14.175 -0.1715  0.0539  0.3168
18067W        W34201   3.124  15.773   5.067 -0.2790  0.0967  0.1329
18068W        W34202   8.166   3.660   4.090  0.0162 -0.1151  0.0031
18069W        W34203   5.084   0.613   1.916  0.2358 -0.2028  0.0177
18070W        W34204  16.671   4.158   4.352  0.0866 -0.1745  0.0597
18071W        W34205  16.038  15.838  15.420  0.0497 -0.2668  0.1399
18072W        W34206   5.426  13.791  14.299 -0.2153  0.1439  0.1149
18073W        W34207   2.594  14.961   1.146 -0.1294 -0.1001  0.1418
18074W        W34208   8.820   1.691  15.792  0.0015 -0.0191  0.0228
18075W        W34209  13.267   3.177  15.803  0.3742  0.1967 -0.4009
18076W        W34210  17.481   4.264   1.279  0.0547  0.1823 -0.1565
18077W        W34211  16.802  15.936  16.502 -0.1145 -0.1829 -0.0886
18078W        W34212  12.825  11.237   4.010 -0.4023  0.0157  0.0769
18079W        W34213   3.864  12.770  13.385  0.0136 -0.0213  0.0743
18080W        W34214   7.139  13.450  12.946 -0.1588 -0.1000 -0.0612
18081W        W34215  16.503  17.444   2.157 -0.1207  0.1012 -0.1234
18082W        W34216   8.833   6.571  14.311  0.0622  0.0942 -0.0154
18083W        W34217  10.605  12.216   1.821  0.1288  0.0750 -0.0217
18084W        W34218   0.571   6.229  16.473 -0.2029  0.0883  0.1381
18085W        W34219  11.253  12.190   0.244  0.0696  0.1380 -0.1042
18086W        W34220   9.166  17.619  16.074 -0.0246 -0.1699  0.3725
18087W        W34221   9.697  13.050   2.013  0.0236 -0.1853  0.1381
18088W        W34222   1.337   6.365  11.787  0.0305  0.0752  0.1605
18089W        W34223  15.224   5.912  15.879  0.1482 -0.0437 -0.3049
18090W        W34224  11.249   2.689   6.003 -0.0456 -0.0993 -0.0237
18091W        W34225  17.854   7.726  13.184 -0.1960  0.0496 -0.3473
18092W        W34226  16.945  18.145   3.272  0.0588 -0.2498  0.5528
18093W        W34227   9.883   2.237  11.908 -0.1280 -0.1532  0.0242
18094W        W34228  15.112  17.041   3.155  0.0412  0.3908 -0.0694
18095W        W34229  13.188   4.653   2.329  0.1612 -0.1487 -0.0068
18096W        W34230   6.125   7.160  12.045 -0.0687 -0.0401  0.0987
18097W        W34231   4.315   9.824  11.456  0.0220 -0.1367 -0.0323
18098W        W34232   1.075   4.643   3.068 -0.2154  0.0730 -0.0363
18099W        W34233   3.484  12.687  13.668 -0.1829 -0.2065 -0.3607
18100W        W34234   1.873   8.544  14.246 -0.1033 -0.0853  0.0922
18101W        W34235  13.699  16.426   4.161 -0.0807  0.2008  0.0441
18102W        W34236  17.472  15.426  15.420 -0.0089 -0.1583  0.2808
18103W        W34237  16.081   1.767   3.920 -0.0324 -0.0873 -0.2664
18104W        W34238   1.552   7.814  12.227 -0.0006 -0.0575  0.1031
18105W        W34239   2.468   6.013  14.383 -0.0072 -0.0265 -0.0855
18106W        W34240  13.649   2.302   5.993  0.0335  0.0195  0.0093
18107W        W34241  15.369   4.625  14.007 -0.0971 -0.1130  0.2977
18108W        W34242   1.963  15.225  15.018  0.0963  0.2269  0.1951
18109W        W34243  16.733   4.014  15.085  0.1395  0.1212  0.0607
18110W        W34244   3.563  10.646  14.827  0.3433 -0.0182 -0.2060
18111W        W34245  13.717  13.081  11.884 -0.1594 -0.0297  0.1567
18112W        W34246   3.703   1.880   4.052  0.1520 -0.4273  0.1998
18113W        W34247   3.851   0.496  12.796 -0.0550 -0.1322 -0.1159
18114W        W34248  16.492  15.666  15.244  0.1639  0.1454  0.2711
18115W        W34249   5.274  12.580  14.577 -0.0679 -0.1013  0.1810
18116W        W34250  15.849  12.742   0.295  0.0428  0.1991 -0.1706
18117W        W34251   6.058   3.127  15.355  0.0526 -0.0647 -0.0532
18118W        W34252   8.812   3.303   0.702  0.0610 -0.2203 -0.2765
18119W        W34253   3.760   3.401  13.233  0.2698  0.1975 -0.0709
18120W        W34254   5.391  15.308  11.177  0.1871  0.1967  0.0722
18121W        W34255   3.716  13.121   1.612 -0.1758  0.0310  0.2499
18122W        W34256  12.823   3.974  15.646 -0.2946  0.2235 -0.0728
18123W        W34257   1.017  14.542   6.232 -0.2561  0.1119 -0.2872
18124W        W34258   0.898   6.113  11.585  0.0129 -0.2066  0.1094
18125W        W34259   4.031   2.866  13.095 -0.3975  0.0255 -0.0900
18126W        W34260   5.525  13.471   5.886 -0.1750  0.1118 -0.1370
18127W        W34261  16.632   9.400   3.894 -0.3136  0.0663 -0.0826
18128W        W34262  11.285  16.619   1.397  0.0549 -0.0050  0.0923
18129W        W34263  16.211   6.116   2.141 -0.0974 -0.1489 -0.0545
18130W        W34264   8.038  11.197   5.031  0.1034 -0.0454  0.1369
18131W        W34265  17.104   5.246  12.378 -0.1821  0.0215 -0.2077
18132W        W34266  12.406  13.726   0.471  0.2503 -0.3020 -0.1463
18133W        W34267  14.328   7.303   3.737  0.2751 -0.2020 -0.3363
18134W        W34268  12.223  11.951   1.772 -0.0374  0.1162 -0.0540
18135W        W34269   6.082   5.743   1.067  0.0829  0.2490 -0.1154
18136W        W34270   6.112   8.634  15.806  0.1163  0.3677  0.0435
18137W        W34271  12.797  17.027  15.261 -0.2157  0.0405  0.1905
18138W        W34272   1.613  13.989  11.248  0.0140 -0.1095  0.0297
18139W        W34273  14.649  17.926  11.536  0.0869  0.0360  0.1417
18140W        W34274  10.903   6.174  13.624 -0.2524  0.3208 -0.2727
18141W        W34275  16.941   9.113  12.844  0.2095  0.1105  0.1371
18142W        W34276  12.343   4.429   2.241  0.1370  0.1408  0.3459
18143W        W34277  11.984  11.366  16.090  0.0693 -0.1565  0.1167
18144W        W34278   0.161  15.291   2.577  0.0324  0.1180 -0.0220
18145W        W34279   3.615  10.204   4.358  0.1382 -0.0728 -0.1266
18146W        W34280   6.756   6.834   3.497  0.0593 -0.2304 -0.1253
18147W        W34281  13.226   1.759  13.164  0.1342  0.4248 -0.2065
18148W        W34282   9.609  12.315  11.013  0.1524  0.0557 -0.1007
18149W        W34283  10.087   3.238  13.790  0.6207 -0.2692 -0.1450
18150W        W34284   3.585   2.197  14.157 -0.3686  0.1402  0.2057
18151W        W34285   8.620   8.292  12.307 -0.0542  0.2627  0.0720
18152W        W34286   2.706  13.330  13.143 -0.2770 -0.1136 -0.1259
18153W        W34287   2.998   6.042  12.685  0.3067 -0.2159  0.0006
18154W        W34288  10.018  10.685   5.848 -0.1086 -0.3785 -0.0040
18155W        W34289   7.736  12.936  16.124 -0.0592  0.2439 -0.0782
18156W        W34290   5.464  16.567   5.417  0.3675  0.1648 -0.0969
18157W        W34291  17.609   8.601   1.738  0.0648  0.1499 -0.0139
18158W        W34292   2.241  17.279  11.975  0.0582  0.2762 -0.0543
18159W        W34293   6.222  12.411  16.074 -0.1169  0.1127 -0.1910
18160W        W34294   7.900   4.439  14.173  0.2014 -0.0443  0.1299
18161W        W34295   4.688   7.198  12.217 -0.1375  0.1498  0.2765
18162W        W34296  17.422   8.353  15.353 -0.2017  0.1699  0.1203
18163W        W34297   4.664  17.327  12.305 -0.0574 -0.0008 -0.1104
18164W        W34298  11.912  15.375  15.696  0.3397 -0.0850 -0.1210
18165W        W34299   1.500   2.530  12.129  0.0383  0.1475 -0.1015
18166W        W34300   8.020   6.963  14.365 -0.1253 -0.0718 -0.0175
18167W        W34301   7.997  10.094  15.744 -0.1403 -0.1592 -0.3212
18168W        W34302   8.292  17.142  15.886  0.1475  0.0089 -0.0361
18169W        W34303   1.557   9.990  12.039  0.0985  0.2227 -0.3985
18170W        W34304  13.938   8.294  15.844  0.1279  0.2150 -0.5477
18171W        W34305   1.762  12.019  13.494  0.0999  0.1140  0.0942
18172W        W34306   5.712  12.546  11.804 -0.0055  0.0361  0.1746
18173W        W34307   6.876   1.612   3.519  0.0265 -0.3526 -0.1352
18174W        W34308   2.406   7.353  13.140 -0.0701 -0.1074  0.1218
18175W        W34309   6.126   1.795  15.704 -0.4768  0.2150 -0.0240
18176W        W34310   1.683  12.649   3.792 -0.1216 -0.1083  0.0905
18177W        W34311  12.651   9.281  12.071  0.1834 -0.1731  0.3507
18178W        W34312   9.083   5.113   3.426 -0.0969 -0.0502 -0.2041
18179W        W34313   0.097   7.613  10.942 -0.0928  0.1089 -0.1731
18180W        W34314  14.140  12.316   0.550  0.1458  0.0129 -0.0989
18181W        W34315   7.509   0.705  13.230  0.0088 -0.0024  0.0427
18182W        W34316  13.777   2.952  16.413  0.2114  0.0116  0.1002
18183W        W34317   5.703   6.256   2.676 -0.4000 -0.1249 -0.0620
18184W        W34318  10.373  12.621  15.015 -0.3150 -0.2541  0.0186
18185W        W34319   8.092   4.119   5.897 -0.0199 -0.1824  0.1732
18186W        W34320   3.308  17.666   3.784  0.0723  0.0868 -0.2369
18187W        W34321  10.659   3.231   6.259  0.0769 -0.1295 -0.2103
18188W        W34322   7.390  14.827   4.664  0.0384  0.1469  0.0575
18189W        W34323   9.685   4.464   5.294  0.1532 -0.0420 -0.0231
18190W        W34324  15.249  16.837   4.620  0.3400  0.2401 -0.2376
18191W        W34325   4.655   3.227   2.756 -0.1208  0.3471  0.0484
18192W        W34326   5.039  10.650  14.977 -0.2277 -0.2452 -0.1225
18193W        W34327   1.535   2.820   0.720  0.1309 -0.0432 -0.0217
18194W        W34328   2.620   1.342   3.784 -0.0188 -0.1884 -0.0574
18195W        W34329   3.128  16.831  16.479 -0.0775  0.2120 -0.2516
18196W        W34330  17.480  13.538  12.755  0.0357 -0.4803 -0.0331
18197W        W34331  15.278  13.340  11.761  0.1877 -0.0649 -0.0436
18198W        W34332   7.024  17.362   4.157 -0.0304 -0.1398 -0.2324
18199W        W34333   9.607  17.498  14.699  0.1316 -0.0159  0.2010
18200W        W34334  17.063   9.145  14.838  0.0002  0.0002 -0.1656
18201W        W34335   9.510   6.322   1.496  0.0290 -0.0303  0.0501
18202W        W34336   5.372   4.415  14.159 -0.2069  0.0257  0.0247
18203W        W34337  11.476  17.786  15.238  0.5298 -0.0042 -0.0192
18204W        W34338  11.528  15.333   4.282  0.1927 -0.2700  0.0822
18205W        W34339   7.693  15.560   0.913 -0.2773  0.0358 -0.2150
18206W        W34340  15.184  13.435   5.543  0.2502  0.0306 -0.0906
18207W        W34341   3.470   7.361  10.978 -0.2678 -0.0653  0.2685
18208W        W34342  11.820  14.392  12.239  0.0578  0.2489 -0.0030
18209W        W34343  17.576   5.874   5.601 -0.1483  0.3314 -0.1247
18210W        W34344   4.378  12.739  13.584 -0.0992  0.1397  0.1255
18211W        W34345  14.116   3.589   4.267  0.0366  0.1011  0.2367
18212W        W34346  12.453   6.336   0.397 -0.0282  0.0100  0.0014
18213W        W34347   8.017   0.603   3.668  0.1209 -0.4194 -0.1865
18214W        W34348  13.582  15.937   3.308  0.3283 -0.3879 -0.2264
18215W        W34349   5.105   1.129  15.984 -0.0092 -0.0698  0.0864
18216W        W34350  11.432   1.358  15.550 -0.0656 -0.4205  0.0175
18217W        W34351   0.923  15.021   1.021 -0.0258  0.0591  0.0141
18218W        W34352  10.118  10.357  13.112  0.1699 -0.0033 -0.0465
18219W        W34353   7.965  11.463  11.302 -0.0390  0.0661 -0.0290
18220W        W34354  13.297  12.945   2.845 -0.3313  0.3834  0.0156
18221W        W34355  15.715   3.282  13.584 -0.1053  0.0410 -0.0411
18222W        W34356   5.414  15.008  11.569 -0.1126 -0.1373  0.0795
18223W        W34357  10.583   6.868   4.016  0.3331  0.0520 -0.1899
18224W        W34358   3.970   0.461  13.381 -0.0607  0.0022  0.1849
18225W        W34359   7.003   1.894   0.930  0.2921  0.0730 -0.0596
18226W        W34360   0.702  15.770   0.768  0.1250 -0.2347  0.0483
18227W        W34361   3.256   4.890  15.514 -0.0386 -0.0797  0.3902
18228W        W34362   1.002   1.997   2.929  0.4971 -0.1327 -0.0625
18229W        W34363   8.309  15.488  13.135  0.0890 -0.2035  0.0418
18230W        W34364   6.645  12.478  13.013  0.3359  0.2042 -0.0876
18231W        W34365  10.436   1.273   2.527  0.0713  0.0997 -0.2774
18232W        W34366  14.120  10.797   4.026  0.0995 -0.2105  0.1106
18233W        W34367  16.657  14.991   1.836 -0.0246 -0.2313  0.2934
18234W        W34368   5.639   8.500  14.095  0.0583  0.0782  0.3263
18235W        W34369  16.712   8.828  15.038  0.0075  0.3084  0.0370
18236W        W34370  16.015   1.336  12.560 -0.2696  0.0234  0.0640
18237W        W34371   5.276   1.180  14.091  0.1462  0.4109 -0.2525
18238W        W34372  12.248   5.377  12.072 -0.0608 -0.0087 -0.1806
18239W        W34373  10.495  11.934   0.442  0.0562  0.2325  0.1911
18240W        W34374   8.117  12.154  14.194  0.0378  0.0451 -0.2971
18241W        W34375   8.449   8.392   1.778 -0.3078  0.0791  0.1332
18242W        W34376  14.013   5.436   0.389  0.1093  0.0829 -0.0311
18243W        W34377  17.630  15.019   4.410  0.2525  0.0789  0.0224
18244W        W34378  10.921   3.498  11.273  0.0279 -0.0107  0.3710
18245W        W34379  18.067   0.228  16.084 -0.0075  0.1377  0.4920
18246W        W34380   0.204  10.719  15.637 -0.0560 -0.2961  0.3679
18247W        W34381   0.139  12.894   1.199  0.0146  0.0910 -0.2607
18248W        W34382   0.479  13.970  12.191  0.0219  0.1930  0.1146
18249W        W34383  16.627   9.474   4.383  0.2439  0.0002 -0.1329
18250W        W34384   5.236   5.086   4.773 -0.0160  0.4193 -0.0747
18251W        W34385   9.618   3.836   1.399  0.1298 -0.1980  0.0880
18252W        W34386  15.930   4.185  13.335  0.3510 -0.4308  0.1385
18253W        W34387  10.807   1.876   5.971  0.0750 -0.1808 -0.0517
18254W        W34388   5.024  16.515  16.444 -0.3047 -0.1605 -0.2062
18255W        W34389   1.451  15.252  14.979  0.0262  0.0905 -0.1404
18256W        W34390  14.835  13.231   3.670  0.0202  0.0447 -0.0822
18257W        W34391   4.084   4.294  14.959 -0.1606 -0.0944 -0.0005
18258W        W34392   2.610  17.965   5.219 -0.0002 -0.1346  0.0426
18259W        W34393   2.857   4.660  11.875 -0.0265 -0.2039 -0.0357
18260W        W34394   7.805  17.829  12.302  0.0860 -0.0515 -0.1829
18261W        W34395  11.119   2.525  13.912  0.0287 -0.1022 -0.1665
18262W        W34396  14.277   5.517   1.250 -0.1583  0.0300 -0.1329
18263W        W34397   4.612   6.178  10.842  0.1107  0.0429 -0.0427
18264W        W34398   2.047   8.746  11.291 -0.0530  0.0562  0.0905
18265W        W34399   1.534   9.952   0.226 -0.0203 -0.1486  0.1617
18266W        W34400  12.626  16.355  12.443  0.0564  0.1826  0.2429
18267W        W34401  14.373   4.829  13.278  0.2002 -0.3156 -0.0708
18268W        W34402   5.218  17.229   2.210  0.0934  0.0045 -0.0273
18269W        W34403  16.933   8.445   3.831 -0.1215  0.1131  0.2771
18270W        W34404   3.186   5.215  14.276  0.1434 -0.1445 -0.0641
18271W        W34405   7.981  12.998   3.096  0.0720 -0.3850  0.1236
18272W        W34406   9.625  15.092   2.759  0.0805 -0.0998  0.2746
18273W        W34407  16.110  11.641  14.806 -0.0049 -0.0141  0.2375
18274W        W34408  12.408  13.608  13.201 -0.1920  0.0003  0.3316
18275W        W34409  16.781   3.364   0.470  0.0787  0.0751  0.1600
18276W        W34410  14.932   1.391   5.467  0.1164 -0.2910 -0.3528
18277W        W34411  16.959   9.500  11.122  0.0960  0.1540  0.0814
18278W        W34412  17.475   4.828   1.489 -0.0268  0.2576  0.0298
18279W        W34413   7.867   0.529   3.107 -0.2109 -0.5518 -0.0454
18280W        W34414  17.282  15.163  13.134 -0.0042 -0.0250  0.1632
18281W        W34415   1.311  17.626   5.657 -0.0507 -0.0130 -0.0402
18282W        W34416  13.694  15.151  16.471  0.0828  0.2296  0.3096
18283W        W34417   3.172   0.976   2.445 -0.2136  0.1161  0.3528
18284W        W34418  16.885  13.934   2.667  0.0901  0.3434  0.1918
18285W        W34419  15.374   5.970   2.534  0.1457 -0.1636 -0.0176
18286W        W34420   8.274   0.771   0.516  0.0868  0.0052 -0.0890
18287W        W34421  10.864   9.825   5.452 -0.1127  0.1727 -0.1267
18288W        W34422   0.987   9.706  11.090 -0.0647 -0.1319 -0.0023
18289W        W34423   8.423   9.750  12.982 -0.1072 -0.1234  0.2080
18290W        W34424   3.998  17.089   1.828 -0.1297 -0.0941  0.2351
18291W        W34425   3.499   6.263  15.710 -0.6015  0.1256  0.1624
18292W        W34426   6.374  15.680   5.079  0.4152 -0.0230 -0.1375
18293W        W34427   5.154   9.751  13.645 -0.0317  0.1562 -0.1354
18294W        W34428   1.920   2.574   1.558 -0.0218  0.0353  0.5147
18295W        W34429  10.348  14.806   2.527 -0.2836  0.1898  0.0745
18296W        W34430   4.535   4.845  14.198 -0.0707  0.1092 -0.1193
18297W        W34431  12.343  10.283   0.253 -0.0515 -0.1327 -0.0619
18298W        W34432   7.928  10.715   0.207 -0.0411  0.0185  0.1426
18299W        W34433  11.684   1.855  12.313 -0.1595  0.2117  0.0587
18300W        W34434  18.168  12.213  16.172 -0.1101  0.0451 -0.0892
18301W        W34435  16.280  16.075   1.172  0.1567 -0.2190 -0.0189
18302W        W34436   1.335  17.291   3.863 -0.0663 -0.0500  0.0903
18303W        W34437  11.637   2.484   0.374  0.2137  0.2386 -0.1726
18304W        W34438   7.403   4.248  14.944  0.2430  0.2726  0.1045
18305W        W34439  17.827   5.379  12.573 -0.2241 -0.4093 -0.0257
18306W        W34440  11.114   0.960   3.272  0.0925  0.1207  0.2068
18307W        W34441   7.154   5.659   0.840  0.0137  0.1657 -0.1316
18308W        W34442  10.307   8.306  11.067  0.0047 -0.2027  0.1574
18309W        W34443  14.595  10.536  15.294 -0.0096  0.3165 -0.0900
18310W        W34444   7.078   5.788   3.597 -0.0407 -0.0680  0.0231
18311W        W34445   8.836  16.487  12.516 -0.1265 -0.1342 -0.0637
18312W        W34446   8.595   7.923   0.557 -0.1571  0.2955 -0.1290
18313W        W34447  10.714   0.305   0.156  0.1427 -0.4170 -0.0867
18314W        W34448   3.940   9.808   0.415 -0.3663 -0.3912 -0.1307
18315W        W34449   6.087  14.236   1.367 -0.1666  0.0984 -0.1722
18316W        W34450   6.381   9.747  11.287  0.2365 -0.1789  0.0925
18317W        W34451  16.037  12.773  15.993  0.3570  0.3181 -0.0114
18318W        W34452  18.144  11.220  11.786 -0.3633  0.2789  0.0163
18319W        W34453  10.349  13.519   5.449 -0.1122  0.2421  0.0899
18320W        W34454   2.753  16.295  13.969  0.0150 -0.0397  0.0328
18321W        W34455  15.413   8.798   3.028  0.0103  0.0210  0.0848
18322W        W34456  16.070   9.475   2.132 -0.0295  0.1233  0.1121
18323W        W34457  12.785   3.292  14.836  0.1039  0.1998 -0.1518
18324W        W34458  14.359   7.347   5.374  0.1914 -0.0255 -0.0590
18325W        W34459  12.293   6.064  10.895  0.1045 -0.0921  0.5374
18326W        W34460  14.042  12.009  13.770  0.2082 -0.1713  0.4095
18327W        W34461  10.517   4.541  13.529 -0.0216  0.1742 -0.2699
18328W        W34462  16.822  15.157   1.321 -0.3381 -0.1563 -0.0456
18329W        W34463   5.708   9.323   3.801 -0.0091  0.0297 -0.3046
18330W        W34464   3.808  15.793  11.282 -0.0297 -0.1034  0.0962
18331W        W34465   0.790  16.089  12.365 -0.1604  0.0998 -0.1282
18332W        W34466  13.952   3.019  12.775 -0.1367 -0.2981  0.0294
18333W        W34467  12.664  15.969   5.555  0.0521  0.1845 -0.2044
18334W        W34468   9.633  10.180  16.441 -0.1846  0.1031  0.1756
18335W        W34469   9.048   7.905   3.404  0.0410 -0.3783  0.2582
18336W        W34470   5.613   2.538  14.655  0.3553 -0.0887 -0.0185
18337W        W34471   7.500  17.092   4.297  0.0875  0.1532 -0.0877
18338W        W34472   8.781   0.598   4.051  0.0636 -0.2864  0.3146
18339W        W34473  16.883   9.868   3.917  0.4144  0.2302  0.0915
18340W        W34474   9.333  12.528   1.230 -0.0057 -0.0494 -0.0728
18341W        W34475  15.666   4.170   3.699 -0.1883  0.1187 -0.0360
18342W        W34476  17.240  15.274   4.969  0.3228  0.0749 -0.1294
18343W        W34477   7.224   5.086  13.259 -0.3799  0.0432 -0.0853
18344W        W34478   4.002  16.575   2.799  0.0678 -0.0952  0.0435
18345W        W34479   4.214   7.843  11.621 -0.1281  0.4071 -0.0955
18346W        W34480  15.627   7.884   0.679  0.0608 -0.0444 -0.0446
18347W        W34481   3.321   8.811  12.647  0.0663 -0.1244  0.1309
18348W        W34482  12.713  17.830   0.692  0.0038 -0.2108 -0.2306
18349W        W34483  16.113   7.251   0.585 -0.0425  0.2495  0.0571
18350W        W34484   4.222   2.657  12.668 -0.2815  0.1897  0.2445
18351W        W34485  15.160  16.033  14.103 -0.1154  0.3355  0.1856
18352W        W34486  17.892  15.883   1.365  0.1103  0.7394 -0.1153
18353W        W34487   1.935  10.153  15.122 -0.0817 -0.2524  0.0953
18354W        W34488   3.517   7.306  12.922  0.0532 -0.1142 -0.0060
18355W        W34489   4.560  12.363   1.639 -0.1027 -0.0074  0.1066
18356W        W34490  12.966  17.905  13.990 -0.1380  0.0792 -0.2239
18357W        W34491   6.018   8.632   4.022 -0.0354 -0.0922  0.0791
18358W        W34492   0.919  17.125   5.270  0.2115  0.2711  0.0370
18359W        W34493   5.247   6.609  12.028  0.3121  0.1055  0.3555
18360W        W34494   0.002   8.777   5.124  0.0043 -0.0540  0.0036
18361W        W34495  14.217  11.768   0.833 -0.2295 -0.1180  0.1463
18362W        W34496   7.935   7.742  12.706  0.2279  0.0015 -0.0005
18363W        W34497  13.947  10.177  16.232 -0.1532  0.0872 -0.0920
18364W        W34498  13.967  15.235  14.928 -0.0548 -0.2667  0.1004
18365W        W34499  12.855   4.921   3.894  0.0666  0.3949  0.0254
18366W        W34500   2.391  10.630   4.878 -0.1959  0.1351  0.2607
18367W        W34501  12.114   2.440   1.683 -0.1666  0.2829  0.1181
18368W        W34502  13.574  18.103  12.933  0.1585  0.0528  0.1056
18369W        W34503   5.558   1.110   0.296 -0.2189  0.0843 -0.1452
18370W        W34504   6.954   5.012   5.850  0.1242 -0.2244  0.1240
18371W        W34505   3.319  15.498   0.044  0.0468 -0.3284  0.1132
18372W        W34506   7.553   3.037  14.935 -0.2134 -0.2317  0.1542
18373W        W34507   7.064   9.784  13.311  0.2421 -0.5145 -0.1609
18374W        W34508  14.245   8.492   0.649 -0.2691  0.1431  0.1938
18375W        W34509  13.141   5.981   0.842  0.1080  0.1894 -0.2774
18376W        W34510   1.118  13.787   1.172  0.0255  0.1006  0.0993
18377W        W34511   3.167   9.116   4.481  0.0102  0.0734 -0.1711
18378W        W34512   6.335  10.958  14.338 -0.1951 -0.1159 -0.1995
18379W        W34513  12.977  13.864  13.862 -0.1895 -0.1092  0.0248
18380W        W34514  11.560   8.072  12.622  0.0947  0.1130  0.1887
18381W        W34515  15.067  14.697   6.155 -0.1106  0.1123  0.2210
18382W        W34516  14.730   4.749  15.436  0.3341 -0.1313 -0.0864
18383W        W34517   8.738  12.925   1.306 -0.0595 -0.0954 -0.0041
18384W        W34518   0.324   5.036  15.732  0.2735 -0.1286 -0.1056
18385W        W34519   0.426   7.305  16.119 -0.1154 -0.0865  0.2128
18386W        W34520  17.957   5.873  12.362 -0.0952 -0.3131  0.0132
18387W        W34521   9.084   8.233   4.907 -0.0671  0.0951 -0.2197
18388W        W34522  16.051  17.111  16.131  0.1761  0.3267 -0.0700
18389W        W34523  17.588   1.050   1.111 -0.1051 -0.2030  0.0835
18390W        W34524   9.192  11.169   4.294  0.2127 -0.0213  0.1534
18391W        W34525  14.734  14.745  11.922  0.2363 -0.0696 -0.3927
18392W        W34526   3.431  11.109   4.094 -0.1676 -0.0904 -0.1400
18393W        W34527  13.216   1.138   0.574  0.0961  0.2098  0.2378
18394W        W34528   0.150   0.112  13.003  0.1299  0.0480 -0.1328
18395W        W34529  13.710  11.586  16.053 -0.1953 -0.0548 -0.0610
18396W        W34530   0.135   3.967   1.547 -0.0316 -0.0358 -0.2362
18397W        W34531   1.631   8.115   0.640 -0.0350  0.1613 -0.0045
18398W        W34532  13.601   5.301   0.031 -0.1055 -0.0599 -0.0128
18399W        W34533  12.552   4.845  16.164  0.0180 -0.1308  0.2808
18400W        W34534   7.046   5.765  13.303 -0.0069 -0.1721 -0.1806
18401W        W34535  11.321  11.840   3.732 -0.1733 -0.2021  0.1190
18402W        W34536   7.456   1.633   0.855  0.1161  0.1921 -0.2146
18403W        W34537  14.568   2.232   4.507 -0.1395 -0.3915 -0.1880
18404W        W34538  13.857   3.471  12.553 -0.0613  0.0412 -0.0327
18405W        W34539  16.209  10.177  14.123 -0.3095 -0.2104  0.3855
18406W        W34540   6.799   4.818  13.448  0.2411 -0.3588 -0.3230
18407W        W34541  14.407   2.843  12.424  0.0361  0.0384 -0.1826
18408W        W34542  17.376   4.370   1.885 -0.0436  0.1131  0.1935
18409W        W34543  12.937   9.760  15.499 -0.0670  0.3412  0.0637
18410W        W34544   9.157  14.655   5.213  0.1217  0.1312 -0.1434
18411W        W34545  14.044  10.715  11.279 -0.3047 -0.1748  0.1251
18412W        W34546   6.480   7.467  16.418 -0.0603  0.0380  0.2030
18413W        W34547  14.396  14.041  16.168 -0.0635  0.0047 -0.0067
18414W        W34548   7.597   5.519   4.058 -0.0774  0.0338 -0.1251
18415W        W34549  14.902   5.378   4.354 -0.1403  0.4626 -0.0795
18416W        W34550   0.398   5.463  14.085  0.3426  0.0197  0.0115
18417W        W34551   0.646   7.449   2.357 -0.5412 -0.0658  0.0970
18418W        W34552   0.429  11.394  15.200 -0.1571  0.1028 -0.0832
18419W        W34553   1.337   8.170   6.039  0.0069  0.1375  0.2197
18420W        W34554  15.315  10.518  11.607 -0.1306 -0.3553  0.0104
18421W        W34555   1.396  17.365  14.289 -0.0620 -0.0025  0.2687
18422W        W34556  16.062   0.932   3.255  0.3418 -0.0223 -0.0919
18423W        W34557  17.948   2.391  12.009  0.2054  0.0898  0.3199
18424W        W34558   6.655  17.614  16.238  0.3115  0.0184 -0.0468
18425W        W34559   7.977   5.147  15.865  0.1471  0.1370 -0.1217
18426W        W34560   1.085   2.838  15.108  0.0613  0.1230  0.0131
18427W        W34561   1.604  10.321  13.869  0.2022  0.1181  0.0844
18428W        W34562   7.854   2.672   3.885  0.0921  0.3112 -0.0540
18429W        W34563  17.601  14.062   3.038 -0.1362  0.0158 -0.2141
18430W        W34564   1.268   7.900   4.140  0.3491 -0.0734  0.1620
18431W        W34565  13.458   0.503   3.778  0.0207  0.0755  0.1566
18432W        W34566   0.046  17.976  14.813  0.2336  0.1652  0.1327
18433W        W34567   7.235   7.986  11.229  0.1322 -0.3419 -0.0535
18434W        W34568  14.281   1.132  12.700 -0.0794  0.0691  0.0206
18435W        W34569  10.842   4.016   2.422  0.1216  0.0741 -0.0088
18436W        W34570   7.478   3.326   1.125 -0.2278 -0.0680 -0.0455
18437W        W34571  12.054   5.009   1.008  0.0359  0.3689 -0.1562
18438W        W34572  17.784   3.914  12.681  0.3034 -0.2177  0.5494
18439W        W34573  13.407  17.615   4.426 -0.3166 -0.0307 -0.0988
18440W        W34574  14.348   0.603   5.297  0.0089 -0.1137  0.1700
18441W        W34575   4.948  11.057   0.331 -0.1943  0.1794  0.0383
18442W        W34576  16.989  11.416   4.187  0.3806 -0.0764 -0.2168
18443W        W34577  13.195  16.088   1.127 -0.1429 -0.0604  0.1620
18444W        W34578  11.780   2.325   3.964 -0.2145 -0.0443 -0.2323
18445W        W34579   0.044  10.810  13.828  0.0001 -0.0006 -0.4116
18446W        W34580  12.800   1.635   3.116  0.1524 -0.0135  0.0534
18447W        W34581  17.178  14.394  15.138 -0.0595  0.2142 -0.0136
18448W        W34582  14.706   9.377   4.258 -0.1303  0.2803 -0.0714
18449W        W34583  14.531  16.978  11.551 -0.3134  0.2223 -0.1839
18450W        W34584   2.267   6.035   4.655 -0.0965  0.0662 -0.0647
18451W        W34585  11.500  11.481  15.863 -0.0584 -0.0847  0.0636
18452W        W34586   4.835  13.446  11.454  0.0068  0.0999 -0.2261
18453W        W34587  17.556   9.155   3.878  0.0112 -0.2152 -0.1224
18454W        W34588  16.103   9.082   2.778 -0.1080 -0.0526  0.0285
18455W        W34589  17.447   5.454   5.176  0.0299  0.1529  0.0062
18456W        W34590   5.042   2.970   0.988 -0.2290  0.1604  0.0624
18457W        W34591   0.622   9.470   0.433 -0.0257 -0.4034  0.4281
18458W        W34592   2.469   8.576   2.898 -0.2536 -0.0015 -0.2428
18459W        W34593   8.044   0.700  12.189  0.1850 -0.4191 -0.0106
18460W        W34594  17.101  12.080  13.147  0.0848  0.1849  0.2958
18461W        W34595   9.542   7.275  15.861  0.2969  0.1293 -0.1340
18462W        W34596  16.143  14.509  12.381 -0.0435  0.0771 -0.1841
18463W        W34597   5.116  12.392  12.595 -0.0061 -0.0666 -0.0876
18464W        W34598  17.876  13.686  14.839 -0.1194  0.0572 -0.1212
18465W        W34599   7.170  11.823  12.290 -0.0413  0.1452  0.0844
18466W        W34600   1.977   0.445  11.707  0.2598  0.2002  0.3745
18467W        W34601  15.833  12.162   4.619 -0.0914  0.2893 -0.2561
18468W        W34602   5.563   9.777  14.911  0.0556 -0.0166 -0.2283
18469W        W34603  17.253   9.989   4.271 -0.1292  0.1799 -0.0444
18470W        W34604   7.993   2.617   4.392 -0.0570  0.1182  0.1637
18471W        W34605   9.878   6.323  13.062 -0.0497  0.0174 -0.0328
18472W        W34606  14.839  17.481  15.616  0.0073  0.0716  0.4332
18473W        W34607  14.847   8.697   1.416  0.2144  0.1154 -0.0629
18474W        W34608  15.728   0.584  13.108 -0.0854  0.0905 -0.1069
18475W        W34609   9.616   2.906   1.492  0.0841 -0.0977 -0.0781
18476W        W34610   8.748  17.048  16.068  0.3374 -0.1777  0.1479
18477W        W34611  15.926   7.853  16.195  0.0200  0.3954 -0.2820
18478W        W34612  12.300   4.415  11.050 -0.0417 -0.3162 -0.0587
18479W        W34613   1.315   1.430   0.842 -0.0312  0.1650  0.1011
18480W        W34614   4.537   3.942   5.103 -0.0554 -0.3275  0.2335
18481W        W34615   4.911   5.690  14.021 -0.3195  0.1053  0.3958
18482W        W34616   0.326   1.427   3.204 -0.3144  0.0606 -0.2281
18483W        W34617  17.659   3.116   2.020 -0.2435 -0.0822  0.1003
18484W        W34618   1.721   7.441  11.902 -0.1703 -0.1328  0.1709
18485W        W34619   6.688   2.436   1.031  0.2546  0.1451 -0.2106
18486W        W34620  14.881   0.145   0.470  0.2033  0.1511 -0.0380
18487W        W34621   1.186  17.772   3.685 -0.0279 -0.1175 -0.0901
18488W        W34622   5.630   0.312  12.291 -0.0315 -0.1770 -0.4052
18489W        W34623   6.705   2.608  12.221  0.2671  0.2915  0.0404
18490W        W34624   3.460  11.569   1.082 -0.1840 -0.1952  0.1441
18491W        W34625   3.074   4.378   1.575  0.0888 -0.0874 -0.0586
18492W        W34626   9.131  16.253   1.521 -0.1824 -0.2611  0.0412
18493W        W34627  16.095   3.480   1.857  0.3621  0.0540  0.1680
18494W        W34628  16.371   1.981   1.259  0.1077  0.2430  0.1753
18495W        W34629  16.419  17.887  13.943 -0.0548 -0.3803  0.0688
18496W        W34630  12.176   7.232   1.213 -0.0662 -0.1484 -0.4066
18497W        W34631   0.639   4.813  11.123  0.0861 -0.3220  0.0514
18498W        W34632  17.148  14.819   1.051 -0.0636  0.0626 -0.3815
18499W        W34633   6.875  12.196  14.829  0.2587  0.5063 -0.0542
18500W        W34634  13.640   1.981  13.448 -0.1172 -0.1625 -0.1933
18501W        W34635   1.557   8.135   4.793  0.2539  0.2755 -0.1673
18502W        W34636   6.834  11.355   2.789 -0.1883 -0.0311  0.0924
18503W        W34637   3.353   1.903   2.184 -0.0950  0.0459  0.0863
18504W        W34638  10.494   8.442   3.634 -0.1718  0.0169 -0.1367
18505W        W34639  11.152   4.761  11.479 -0.2086 -0.0278  0.1472
18506W        W34640   7.816   1.640  13.403  0.0832 -0.2593  0.0711
18507W        W34641  11.411   7.979  14.305  0.1246 -0.0175 -0.0909
18508W        W34642   0.805   9.028   3.521 -0.0373 -0.2420 -0.0930
18509W        W34643   7.467  18.070  11.992 -0.0456 -0.1964 -0.0104
18510W        W34644   0.687  16.434   0.525  0.0872 -0.0537  0.1337
18511W        W34645   8.972   9.419   0.101 -0.1164 -0.1275  0.3046
18512W        W34646  10.705   8.258  12.103  0.0787  0.2011  0.1297
18513W        W34647  15.803   4.509  11.516 -0.1823  0.1890  0.0790
18514W        W34648   7.954  16.140  12.915  0.2531  0.0262  0.0626
18515W        W34649   0.605   2.956  15.081  0.0257  0.0304  0.0636
18516W        W34650   1.971  17.834  15.948 -0.1401  0.1763  0.1340
18517W        W34651   5.180   5.549   1.417  0.0908  0.0757  0.0187
18518W        W34652  14.431  14.990   4.999  0.0016  0.5811 -0.0094
18519W        W34653   3.608  11.497  16.421 -0.1817  0.0985 -0.0294
18520W        W34654   1.856   9.098   1.294 -0.2139  0.2911 -0.1011
18521W        W34655  12.531   4.977  12.315 -0.2528  0.0302  0.2375
18522W        W34656  18.032  10.923   0.050  0.0250  0.0999  0.0056
18523W        W34657  11.561   7.308  11.397 -0.1346 -0.0647  0.1041
18524W        W34658   8.119  15.517   3.448  0.2222 -0.1002  0.2356
18525W        W34659   5.542  11.326   4.259 -0.0980  0.0356  0.1590
18526W        W34660   7.573   6.673   2.336  0.0408 -0.1362  0.0828
18527W        W34661  13.057   2.836   1.589 -0.1092  0.1375 -0.0314
18528W        W34662  10.470  12.227   5.463 -0.0814  0.0096 -0.2105
18529W        W34663  10.767  14.407   1.154  0.3442  0.0073  0.0763
18530W        W34664   7.158   7.059   2.668  0.3282  0.0195  0.2586
18531W        W34665  11.072  15.309   6.094 -0.2255 -0.1245 -0.3174
18532W        W34666   4.931   6.429   3.629  0.0921  0.0203 -0.2342
18533W        W34667  14.354   4.799  11.617 -0.0555  0.0317  0.0592
18534W        W34668  13.453  13.629   2.327 -0.0511 -0.3609 -0.1901
18535W        W34669   1.317  17.886   2.961  0.2133  0.2009 -0.1847
18536W        W34670  10.518   1.927  14.303  0.1681 -0.0341 -0.0205
18537W        W34671  15.145   8.076  11.935 -0.0322 -0.0502  0.1577
18538W        W34672   4.101   6.063  13.711 -0.1363 -0.1186  0.3325
18539W        W34673  15.590  13.856  12.945 -0.0280 -0.0727  0.1985
18540W        W34674   9.346   0.369  11.568  0.0618 -0.1113  0.0680
18541W        W34675  17.625   9.851  13.853 -0.0432  0.0945  0.1389
18542W        W34676   2.997   0.797  12.058  0.0619  0.0617  0.0605
18543W        W34677   4.749  10.967   4.212  0.0151  0.3374  0.0623
18544W        W34678  14.503   9.553   3.849  0.2617  0.1964 -0.1323
18545W        W34679  12.724  11.800  11.297  0.0550  0.0451  0.1117
18546W        W34680  14.214   0.567   1.077 -0.0251 -0.0754 -0.1263
18547W        W34681   9.249  12.042   3.708 -0.1548 -0.1671  0.1694
18548W        W34682   9.824  10.819   0.905 -0.0835 -0.0511 -0.1770
18549W        W34683   9.522  15.486  14.441  0.2788  0.1259  0.1731
18550W        W34684   1.378  13.977  11.682 -0.1922 -0.2896  0.2286
18551W        W34685  16.299  14.059  16.525 -0.1012  0.2135  0.3033
18552W        W34686  16.832  18.037   5.008  0.3786 -0.2956  0.0203
18553W        W34687  16.982  13.946  14.397  0.0181 -0.1272 -0.1976
18554W        W34688  15.067   8.587   0.260 -0.0173  0.2384  0.0154
18555W        W34689  16.958   0.910  13.846 -0.3323 -0.0628 -0.1880
18556W        W34690  10.869  12.833  15.072 -0.2405 -0.2016 -0.0715
18557W        W34691   6.299   1.125  10.816 -0.2259  0.0194 -0.0745
18558W        W34692   6.211  11.101  15.492  0.0198  0.0168  0.1340
18559W        W34693  16.866   0.272   4.467  0.1679  0.1940 -0.3873
18560W        W34694   5.072   0.153   2.325  0.2012  0.0025  0.0189
18561W        W34695  12.036   9.719   2.652 -0.6210  0.2316 -0.1001
18562W        W34696   9.501   4.840  16.144  0.0880  0.0233 -0.1257
18563W        W34697   0.644   9.978   0.304 -0.0269 -0.0175 -0.0107
18564W        W34698   4.608   6.362  14.755  0.0439  0.4501  0.1177
18565W        W34699  15.026   0.009   1.486 -0.1744 -0.0957  0.0679
18566W        W34700  16.854  13.449  14.049  0.5451  0.1959  0.1961
18567W        W34701   5.468   2.010  14.693  0.1458  0.0258 -0.1954
18568W        W34702   1.247  11.733   0.897  0.3369 -0.0717  0.1547
18569W        W34703   1.406   0.258   5.876  0.1314  0.0948  0.0280
18570W        W34704   9.322   1.573   2.114  0.1573 -0.1905  0.3200
18571W        W34705  17.861  12.988   4.049 -0.2531 -0.3102  0.0406
18572W        W34706  12.971  13.012  14.102  0.2258  0.1980 -0.1923
18573W        W34707   7.077  17.463   4.953 -0.0684 -0.2453 -0.2738
18574W        W34708   8.816  10.096  13.985 -0.1191  0.0118  0.1012
18575W        W34709   0.420  13.601   1.374 -0.0683  0.3375  0.3341
18576W        W34710  12.024  15.058   1.947 -0.1043  0.0064  0.0388
18577W        W34711   4.962  18.043   5.989 -0.1049 -0.1359 -0.0106
18578W        W34712   0.806   8.045   0.170  0.0806 -0.3599 -0.0296
18579W        W34713   6.040  10.611  15.178  0.1829 -0.2197 -0.1016
18580W        W34714  11.183  13.272   5.337 -0.0635 -0.0990 -0.1029
18581W        W34715   1.573  17.864   3.367 -0.1337 -0.0899 -0.0524
18582W        W34716  11.760   3.369  14.721  0.0329 -0.2476  0.0296
18583W        W34717   8.173   7.412   1.668  0.1254 -0.2092  0.1813
18584W        W34718  10.929   7.217   1.584 -0.0871 -0.2020 -0.0024
18585W        W34719   9.494  12.834   2.825  0.0117  0.3926  0.4329
18586W        W34720   7.353  14.146   4.429  0.0116 -0.2817  0.0508
18587W        W34721  12.080  13.160  14.833  0.3236  0.1548  0.0968
18588W        W34722   9.466  15.533   4.033  0.0785 -0.1601 -0.1619
18589W        W34723  14.036  14.034  11.720 -0.1080 -0.1393 -0.0529
18590W        W34724  17.408   5.074  16.318 -0.0209  0.0544  0.1543
18591W        W34725   9.246   6.098   3.252  0.1488 -0.2277 -0.0103
18592W        W34726   0.244  12.673   0.280  0.3929  0.2184 -0.1276
18593W        W34727  13.245   9.374   2.067 -0.1093  0.3131  0.0993
18594W        W34728  16.018   9.858   4.292  0.2167  0.0149 -0.0651
18595W        W34729   5.449  17.990   0.306  0.0021  0.2389  0.3519
18596W        W34730  15.424   9.989   3.694  0.0397  0.3039  0.2141
18597W        W34731  14.437   8.451   4.943 -0.1303  0.2374 -0.2753
18598W        W34732  14.453  15.927  13.193  0.2730 -0.2063  0.2335
18599W        W34733   3.183   0.005   1.740  0.0560  0.0895  0.0814
18600W        W34734   2.499  11.226  12.035  0.1216 -0.2568  0.1821
18601W        W34735  10.344  12.261   0.102 -0.1830  0.0163  0.0919
18602W        W34736  13.440  12.498  16.149  0.4694  0.0523  0.0512
18603W        W34737  16.913  14.722  12.490 -0.1883  0.1178 -0.0102
18604W        W34738   7.562  17.188   3.733 -0.2470 -0.0517 -0.0477
18605W        W34739   5.668  14.624   3.973  0.0675  0.0867 -0.0275
18606W        W34740  11.535  15.706  15.786 -0.0148  0.0581 -0.2914
18607W        W34741   7.861   1.745   0.519  0.0931 -0.0645 -0.1574
18608W        W34742   7.069   6.453  13.055  0.2639  0.1750  0.0974
18609W        W34743  10.069   8.713   1.368 -0.0613 -0.0647  0.3383
18610W        W34744   1.746  12.287   2.877 -0.2375 -0.0424 -0.0923
18611W        W34745  12.721  10.190  11.516 -0.0506  0.2666 -0.2588
18612W        W34746  14.051   4.176  15.143 -0.0678  0.0846  0.0073
18613W        W34747   4.769  15.974  15.751 -0.0135 -0.1746 -0.0133
18614W        W34748   5.824   6.049  13.325  0.1832  0.0621 -0.1575
18615W        W34749  14.453   2.097   0.890  0.3857  0.4469 -0.1099
18616W        W34750   4.139   5.274   3.327  0.2059  0.0833 -0.1277
18617W        W34751   3.535   7.172   2.317  0.2538 -0.4604  0.0817
18618W        W34752   1.057   4.573   4.933  0.0962  0.1295  0.0565
18619W        W34753   9.756   4.128   1.943 -0.2871 -0.1399 -0.2014
18620W        W34754   3.585  10.834  11.120 -0.0217 -0.1000  0.0186
18621W        W34755   1.781   4.252   2.404  0.2710  0.2039  0.4500
18622W        W34756  12.719  14.405   4.342  0.1674  0.1085  0.0155
18623W        W34757   2.282  16.804   2.683 -0.0665  0.1794  0.3788
18624W        W34758   1.566   8.730  15.128  0.0042  0.2608  0.0330
18625W        W34759   6.614   9.507   0.539  0.0488  0.0656  0.3823
18626W        W34760   3.240   4.379  13.302 -0.1872  0.2255  0.3502
18627W        W34761  14.126  17.758   1.018  0.0747 -0.4917 -0.3186
18628W        W34762  12.791   3.370  12.773  0.0187 -0.1593 -0.1418
18629W        W34763   2.341   9.529  16.078 -0.1177  0.0210  0.3013
18630W        W34764  15.363   0.006  15.641 -0.3465  0.0823 -0.0060
18631W        W34765   8.969  17.288  16.456  0.0081 -0.0373 -0.1272
18632W        W34766   8.626   8.134  10.234  0.0475  0.3463  0.2694
18633W        W34767   1.785   8.562   2.738  0.4095 -0.3797  0.1845
18634W        W34768  17.580   7.509  15.695 -0.2617  0.0041  0.0165
18635W        W34769  14.349  11.037   0.235 -0.2074  0.3760 -0.2715
18636W        W34770   9.188   8.994   4.092 -0.0797 -0.1255  0.1276
18637W        W34771  17.665  15.083  11.938  0.0262  0.3610 -0.0967
18638W        W34772  11.383   3.971   2.423  0.2396 -0.0058  0.2406
18639W        W34773  18.105  10.138  12.861 -0.0575  0.2640  0.2837
18640W        W34774  12.525   7.165   3.651  0.0316  0.0283 -0.3780
18641W        W34775  15.258  18.050  14.042 -0.1518 -0.0061  0.1327
18642W        W34776  14.611   7.666   1.776  0.1087 -0.2595  0.3702
18643W        W34777   4.951  17.211   2.749  0.1815  0.0555  0.1372
18644W        W34778   4.781  11.760  11.913  0.4205 -0.0557  0.0412
18645W        W34779  14.364   7.086  13.378 -0.0833 -0.0083  0.1594
18646W        W34780   7.262  13.099  11.710  0.0089  0.0735  0.0829
18647W        W34781   0.552   7.491  13.190  0.0241 -0.2079  0.1693
18648W        W34782   1.407  17.728  12.083  0.1450 -0.0516 -0.2696
18649W        W34783  17.490   0.467   3.847  0.2222  0.0831 -0.1754
18650W        W34784  12.929   4.737  15.071  0.1042  0.0978 -0.0560
18651W        W34785  15.899   7.062   1.968  0.2696 -0.1317 -0.4422
18652W        W34786   2.610  17.784   6.321  0.2188 -0.0424  0.0234
18653W        W34787  13.090  17.419  13.089 -0.1298  0.0961  0.0200
18654W        W34788   4.728   8.702   0.287  0.2367 -0.1559  0.2347
18655W        W34789   5.862   7.142  13.059 -0.3634 -0.2447 -0.0723
18656W        W34790   0.520   4.226   2.409 -0.0527 -0.0430 -0.0346
18657W        W34791  14.661   9.531  15.150  0.2294  0.0071 -0.0596
18658W        W34792   5.514   3.117  13.847 -0.3383  0.2945  0.3348
18659W        W34793  15.563   9.616  16.100  0.0740 -0.0656  0.0998
18660W        W34794   7.540  13.547  11.724  0.3336  0.3329 -0.0318
18661W        W34795   8.793  10.551  16.062  0.0626 -0.0201  0.2696
18662W        W34796   2.399  17.406  15.489 -0.0271 -0.0730 -0.3453
18663W        W34797   1.799  11.326   5.350 -0.0303 -0.1503  0.2457
18664W        W34798  16.317  14.018   6.424  0.2999  0.3089 -0.0116
18665W        W34799   3.077  11.829  15.079  0.1461 -0.0962  0.1369
18666W        W34800  12.256   7.634   4.303 -0.0002 -0.1716 -0.3859
18667W        W34801   4.915   3.486  16.258  0.0037 -0.2846  0.2816
18668W        W34802   3.309   8.544   0.154 -0.0617  0.0248  0.0461
18669W        W34803   0.122  10.346   4.423 -0.0692 -0.2465  0.0755
18670W        W34804  13.022  14.802  12.670 -0.1559 -0.2270  0.0416
18671W        W34805   6.346  12.495   4.472  0.2977  0.3067  0.0579
18672W        W34806  17.850   4.330  14.060  0.2021  0.0304  0.2031
18673W        W34807   7.311  12.547  11.440  0.0964 -0.4167  0.0400
18674W        W34808   8.403  18.047   3.681 -0.4410  0.0851 -0.0998
18675W        W34809  14.025   6.000   1.300 -0.2047 -0.2698 -0.3784
18676W        W34810   3.876  10.228   1.582 -0.0012  0.2460 -0.1790
18677W        W34811   6.405  10.205  14.674 -0.1652 -0.3674 -0.2105
18678W        W34812  11.971   1.345  15.569 -0.1179 -0.0304  0.1456
18679W        W34813  17.701   0.179  16.511  0.1980  0.1007  0.2437
18680W        W34814   7.177  12.563  13.087 -0.0339 -0.0701  0.1861
18681W        W34815   0.794  11.664  11.550 -0.1611  0.0927 -0.1079
18682W        W34816   8.793   9.838  12.273 -0.1756 -0.0446 -0.1018
18683W        W34817  17.558  13.608   1.252 -0.0066  0.0408 -0.1424
18684W        W34818   2.587  14.310  14.366  0.3048  0.1146  0.0598
18685W        W34819   4.535   9.677  16.291  0.0855 -0.0853 -0.3414
18686W        W34820   4.278  16.451  15.900 -0.2125  0.0173 -0.0042
18687W        W34821  16.330   3.726   2.367  0.0556  0.1630 -0.1817
18688W        W34822  11.698   3.986  11.687 -0.2533  0.0667  0.1456
18689W        W34823  17.420  14.631  12.706  0.4534 -0.1204 -0.1811
18690W        W34824  12.270   9.616   3.097 -0.0780  0.2031 -0.1897
18691W        W34825   9.654   8.149  11.176 -0.1003  0.2485  0.0984
18692W        W34826   9.786   3.209  15.762  0.1287  0.0335 -0.0100
18693W        W34827  18.087   4.523  14.524 -0.0126 -0.4637  0.1764
18694W        W34828   6.860   6.300   2.649 -0.1253 -0.1216 -0.1450
18695W        W34829   4.791   3.062   2.312 -0.1244 -0.0825 -0.0344
18696W        W34830   2.666  15.183   2.810  0.2791  0.1764  0.2840
18697W        W34831   6.206   7.567  11.503 -0.3669 -0.4128 -0.0328
18698W        W34832  11.408  10.007  13.887  0.1136  0.3945 -0.0133
18699W        W34833   0.381  14.188  14.686 -0.3167 -0.0626 -0.1183
18700W        W34834   9.008  15.746   3.071  0.2712  0.0515  0.3643
18701W        W34835   0.638   3.045   3.249 -0.0598 -0.4623 -0.0084
18702W        W34836   4.677  10.134   0.003  0.0586 -0.1490 -0.3592
18703W        W34837  10.999   2.953  15.907  0.0901  0.2737  0.1641
18704W        W34838   0.937   3.990   3.901  0.0945 -0.2400 -0.3708
18705W        W34839   5.256  14.106  16.314 -0.0060  0.1407  0.3708
18706W        W34840   2.335   2.577   4.272 -0.0249 -0.0733 -0.3479
18707W        W34841  16.986   2.538  13.606  0.1491  0.2913 -0.0078
18708W        W34842  17.481  15.184   0.774 -0.0259  0.2065  0.1637
18709W        W34843   3.999   0.455   1.870 -0.2561  0.1239 -0.0766
18710W        W34844  15.563  12.261   0.272  0.1357  0.1230 -0.2118
18711W        W34845  10.707  12.619   0.182 -0.1538 -0.2966  0.1018
18712W        W34846   2.713  17.608   2.360  0.0621  0.1393  0.0430
18713W        W34847  10.937   5.704   5.634  0.2175  0.1123  0.0135
18714W        W34848   4.535   9.599   2.115  0.0611  0.0901 -0.1948
18715W        W34849  13.708  14.526  12.300 -0.4134  0.0781  0.0182
18716W        W34850  11.780  11.269   4.195  0.1497 -0.0706 -0.2201
18717W        W34851  11.088   1.742   0.400  0.0169  0.2174  0.1710
18718W        W34852  10.865  12.041   4.846 -0.0693 -0.0157  0.1854
18719W        W34853   1.405   9.715  16.220  0.0836  0.0440  0.0686
18720W        W34854  17.171  13.213   3.036 -0.1552 -0.1220 -0.0393
18721W        W34855  15.029   6.953   1.896  0.0979 -0.3283  0.2191
18722W        W34856   8.010  13.147   3.585 -0.0385  0.0185 -0.0333
18723W        W34857   4.030  17.678  12.001  0.1147  0.1430  0.0560
18724W        W34858   0.174   0.043  15.256 -0.3587 -0.1733  0.1039
18725W        W34859   5.359   6.601  14.178 -0.0593  0.1204 -0.1628
18726W        W34860   8.513   8.506  15.650 -0.0381  0.0244 -0.1283
18727W        W34861   8.209  17.022  16.343 -0.0993  0.1426  0.1897
18728W        W34862   0.195   9.085  15.953  0.0587 -0.0443 -0.3527
18729W        W34863  10.474   8.160  13.948 -0.1750  0.3575  0.0209
18730W        W34864   9.821  10.727  14.564  0.0917 -0.2145 -0.1458
18731W        W34865   7.977  17.773   3.883 -0.0445  0.0657  0.1829
18732W        W34866   9.282   0.815   2.578 -0.0473 -0.3733  0.1875
18733W        W34867   4.723  18.131  13.504 -0.1272 -0.1434  0.1687
18734W        W34868   1.160  10.128   4.857  0.3582  0.3891  0.1650
18735W        W34869  11.407  14.895  12.967 -0.2527 -0.1072 -0.4878
18736W        W34870  14.362  17.096   1.165  0.3091 -0.3858 -0.0206
18737W        W34871   1.886   3.379  12.532 -0.3311 -0.0414  0.1128
18738W        W34872   5.150  12.039  13.345 -0.3207 -0.0415  0.1291
18739W        W34873   6.172  12.014   4.445  0.0180  0.3952 -0.2800
18740W        W34874  15.237   6.236   4.942  0.0744 -0.0961  0.1456
18741W        W34875   6.891   5.145  14.236  0.3240  0.1668 -0.2393
18742W        W34876  12.730  14.087   3.951 -0.2876 -0.2950 -0.1022
18743W        W34877   6.338   8.633  11.538 -0.1681  0.0478 -0.0256
18744W        W34878   6.883   0.203   2.494 -0.0827  0.0262 -0.2115
18745W        W34879   2.964  11.915   1.093 -0.0152 -0.0412 -0.5297
18746W        W34880  14.343   5.836   1.682  0.0896  0.0724 -0.0229
18747W        W34881  14.288   2.634  16.417 -0.5185  0.0776 -0.1082
18748W        W34882   3.348  15.623   0.839  0.2967  0.0620  0.1525
18749W        W34883   6.702   7.117   2.127  0.1143  0.2529  0.1417
18750W        W34884   8.890   5.277  12.362  0.4586 -0.2486 -0.0393
18751W        W34885   5.016  10.146   2.880 -0.1943 -0.0264 -0.0063
18752W        W34886   8.624   8.329  11.617  0.4112  0.1620 -0.0596
18753W        W34887   3.911   4.564   5.796 -0.1811  0.1430 -0.1161
18754W        W34888   4.593  17.260   3.612  0.1016  0.2100  0.0255
18755W        W34889   9.825   3.452   3.610 -0.1086 -0.2019 -0.1752
18756W        W34890   8.461  11.558   2.226 -0.1538 -0.1147  0.1136
18757W        W34891   0.349   1.465   4.710  0.0272 -0.0322 -0.1461
18758W        W34892   9.149  17.764  14.621  0.1108 -0.0039  0.1365
18759W        W34893   0.567  16.957  15.349 -0.2386  0.1824  0.1915
18760W        W34894  10.678   9.822  12.561 -0.2154  0.0138  0.4604
18761W        W34895   2.890  13.394  13.842  0.0184 -0.1599  0.1500
18762W        W34896   4.169  12.547  11.627  0.1049  0.0141  0.0678
18763W        W34897   1.850  10.530  16.224  0.0956 -0.0754 -0.0374
18764W        W34898   3.373   2.212   3.862  0.2609 -0.0903  0.0364
18765W        W34899   1.257   6.509   2.438  0.0648  0.1622  0.3166
18766W        W34900  12.049   7.679   0.836  0.0690 -0.2444  0.4194
18767W        W34901  13.568   2.959  13.574 -0.2211  0.2250 -0.1725
18768W        W34902  17.116   1.978  11.344  0.2367  0.0482 -0.2100
18769W        W34903   5.574   9.475   9.688 -0.1200  0.0407 -0.0728
18770W        W34904  17.525   3.131  12.186  0.1350 -0.1222 -0.0386
18771W        W34905   8.368   3.766  11.396 -0.1222 -0.1862 -0.0532
18772W        W34906   5.823  12.334   3.400 -0.3964 -0.5042 -0.1871
18773W        W34907   7.370   7.430   2.849 -0.3494  0.0934 -0.1385
18774W        W34908   3.156  13.363  14.296 -0.3487 -0.0631  0.2887
18775W        W34909   5.205   7.136  12.271  0.1473  0.0501 -0.1288
18776W        W34910   6.143  11.824  11.930 -0.1793  0.0172 -0.1473
18777W        W34911  15.073  10.517   3.607  0.0941  0.0313  0.1554
18778W        W34912  12.203   4.994   1.516 -0.2636  0.3163  0.0840
18779W        W34913   8.561   7.972  15.766  0.1529 -0.1628 -0.1039
18780W        W34914   4.358   1.823   2.731  0.2807  0.0791 -0.1691
18781W        W34915   0.517  10.820   3.277  0.1450  0.1129  0.0325
18782W        W34916  16.592  14.019   3.401  0.0357 -0.1920 -0.2566
18783W        W34917  16.137   7.970   0.096  0.2836  0.2562  0.0910
18784W        W34918   9.211  18.154   4.907  0.0868  0.2069  0.0727
18785W        W34919  11.475   4.168  15.269  0.3895 -0.3214 -0.3752
18786W        W34920  15.249  16.730   1.724 -0.0865 -0.0303 -0.3200
18787W        W34921  13.286   5.506  16.210  0.2927  0.1095  0.2401
18788W        W34922   6.530  15.581  13.554 -0.0918  0.3310 -0.0183
18789W        W34923   7.372  17.611   0.942 -0.0393  0.0668  0.3391
18790W        W34924   1.368  11.860   3.451 -0.0851 -0.0883 -0.0832
18791W        W34925  14.040  16.866  15.974 -0.0594  0.2554  0.0783
18792W        W34926   5.648   8.837  15.884  0.1704  0.1055 -0.0806
18793W        W34927   7.077  12.659   3.395  0.1178  0.0162 -0.0519
18794W        W34928   5.177   9.273   5.202 -0.2246 -0.1597 -0.0014
18795W        W34929   9.829   2.840  12.880 -0.1119  0.0368 -0.1686
18796W        W34930  15.391   2.212   5.103 -0.1210 -0.1112 -0.2078
18797W        W34931  16.501   3.110  14.767  0.0961 -0.1859 -0.1411
18798W        W34932   2.101   5.605  15.840  0.0463 -0.2149  0.0726
18799W        W34933   5.018   4.829   4.109 -0.3213  0.1764 -0.2444
18800W        W34934   0.806   5.569   5.036 -0.0976 -0.0283  0.0322
18801W        W34935  11.887   1.148   5.622  0.2328  0.1960 -0.2584
18802W        W34936  12.179   3.215  11.863  0.1148  0.1378  0.2103
18803W        W34937   5.209   8.358  12.928 -0.0305 -0.2541  0.0009
18804W        W34938  10.677  14.468  15.360  0.2505  0.1017 -0.0581
18805W        W34939   4.287   7.760  15.941 -0.1780 -0.2427 -0.0946
18806W        W34940   8.573   0.799   1.045  0.1090 -0.2078  0.0959
18807W        W34941   2.887  17.631  15.652 -0.1421  0.1813 -0.1148
18808W        W34942   1.958  13.361  13.821  0.0857 -0.2568  0.0755
18809W        W34943  10.399   1.888   4.197  0.2839  0.0330  0.1710
18810W        W34944   3.104   1.103  14.115 -0.2461 -0.2097  0.1722
18811W        W34945  10.500  17.257   1.492 -0.4347  0.0862  0.0630
18812W        W34946   0.849   9.707   6.100 -0.2593  0.3565  0.1795
18813W        W34947   7.317   3.326  12.399 -0.0524  0.0427  0.0865
18814W        W34948  16.435   8.944  11.709  0.0343  0.2370 -0.3211
18815W        W34949  13.590  14.000  12.479  0.2172  0.0290 -0.1975
18816W        W34950   3.402   9.803  14.712 -0.0869  0.1347  0.1366
18817W        W34951   6.349   0.607   4.468 -0.1645 -0.1467  0.0677
18818W        W34952  10.975   6.034   2.468  0.4248  0.2652 -0.3000
18819W        W34953  13.997   0.442   3.618 -0.0214  0.1030  0.2454
18820W        W34954   8.279  16.184   4.055  0.1091  0.0998  0.1557
18821W        W34955  10.416   7.743  14.297  0.4419 -0.4420  0.1935
18822W        W34956  10.654  12.742   3.312  0.0898  0.1094 -0.2173
18823W        W34957   8.540   3.908   1.491 -0.0923 -0.0785 -0.2906
18824W        W34958  10.901  15.838   4.482  0.0616 -0.1197 -0.3018
18825W        W34959   9.451  13.330  12.430 -0.0543  0.0535 -0.0361
18826W        W34960   2.409  13.640  13.859 -0.0654 -0.0409 -0.0130
18827W        W34961  16.182   8.389   5.313 -0.5307 -0.0060  0.0456
18828W        W34962   5.741   8.412  11.222 -0.0512 -0.0540 -0.0097
18829W        W34963   6.736  14.825   2.752  0.1255 -0.0171 -0.0992
18830W        W34964   2.222   2.637   1.115 -0.0752  0.1542  0.2031
18831W        W34965   5.459   0.324  14.237 -0.0701  0.0314  0.0244
18832W        W34966   1.244  17.080   5.615  0.2779 -0.0937 -0.3376
18833W        W34967  13.739   2.770   2.344  0.0910 -0.4822 -0.1841
18834W        W34968   6.817  13.064  12.982 -0.1159  0.1402 -0.0973
18835W        W34969   9.234   5.178   2.809  0.1712  0.1929  0.0390
18836W        W34970  14.875   2.757   3.069 -0.1086 -0.2327  0.1261
18837W        W34971  17.848  17.531  14.727 -0.1757  0.1246 -0.0350
18838W        W34972   3.320   4.920  12.333  0.1608 -0.2196 -0.0477
18839W        W34973   8.048   3.954  11.085 -0.0345 -0.2640 -0.4270
18840W        W34974  13.609   3.098  14.221 -0.1213 -0.2637 -0.1487
18841W        W34975   4.359   0.662  13.829 -0.0949 -0.1878 -0.2354
18842W        W34976   2.500  12.348   1.923  0.2039  0.0075 -0.0334
18843W        W34977   4.075   6.586   2.766 -0.2941  0.0892 -0.1939
18844W        W34978   6.780  13.329   0.584 -0.0786  0.3821  0.2958
18845W        W34979   8.104  11.656  12.827  0.0621 -0.0421 -0.1923
18846W        W34980   1.628   5.830   3.943  0.0579 -0.1885  0.0063
18847W        W34981  13.141  12.197  15.465 -0.3028 -0.1505  0.1161
18848W        W34982  10.643  14.629  14.823 -0.3379 -0.0761 -0.0374
18849W        W34983  10.450   5.816  10.322  0.1366 -0.0506 -0.0145
18850W        W34984  14.307   0.812   3.214 -0.2481  0.1348 -0.0994
18851W        W34985   9.842   2.732  15.987  0.0663  0.2415  0.3115
18852W        W34986   8.080  12.283  10.261 -0.0285  0.0616  0.0133
18853W        W34987  16.746   3.025  12.475  0.1500  0.1840  0.1632
18854W        W34988   2.611  13.462   3.605 -0.1612 -0.1765  0.1560
18855W        W34989   1.574  14.983   3.061  0.0332  0.0869  0.1968
18856W        W34990   9.750  16.401   2.169  0.1807 -0.2591 -0.2530
18857W        W34991   5.556  16.707  14.555  0.1334 -0.0575 -0.0404
18858W        W34992  11.453   4.448   2.636 -0.0687 -0.1528  0.2183
18859W        W34993   9.106   2.094  12.358  0.0142  0.1950  0.0718
18860W        W34994   0.528  10.486   2.031  0.1172  0.1868  0.2453
18861W        W34995  11.539  11.458   5.156  0.1179  0.1288  0.1066
18862W        W34996  13.247   1.720  15.085 -0.1322 -0.0881  0.2009
18863W        W34997   1.783   2.726   5.088  0.0861 -0.2721  0.0923
18864W        W34998  14.267   0.371   0.653 -0.0676 -0.1862 -0.0089
18865W        W34999  18.151  12.242   0.173  0.1370  0.0252  0.1385
18866W        W35000   4.105  10.114  11.794  0.0847  0.2402  0.0502
18867W        W35001   0.629   4.846   2.819  0.0203 -0.0665 -0.0436
18868W        W35002   2.920   7.995   0.537  0.1653 -0.0159 -0.0391
18869W        W35003   2.011   1.768  12.068  0.0625  0.2166  0.1864
18870W        W35004   9.939  10.900   4.231  0.0692  0.1387  0.1376
18871W        W35005   9.584  11.679  14.545 -0.1100 -0.3844  0.3925
18872W        W35006   8.017   4.110   4.542 -0.1270 -0.1071 -0.1097
18873W        W35007   7.861  15.615   4.932  0.3327  0.0604  0.3217
18874W        W35008   2.058  12.071   2.117 -0.1254 -0.1572 -0.0718
18875W        W35009  15.343   0.736   4.643  0.0213 -0.0617 -0.0315
18876W        W35010  16.095   3.200  13.254  0.0382 -0.0220  0.2558
18877W        W35011  12.037  13.614   3.275 -0.0540  0.0718  0.2589
18878W        W35012   9.839  11.370  15.839 -0.1429 -0.2549 -0.0312
18879W        W35013   7.538   9.629   2.704  0.0514  0.0228 -0.2450
18880W        W35014   7.707  13.428  16.068  0.0997 -0.0957 -0.0937
18881W        W35015   3.382   5.463  13.294  0.1268 -0.0210 -0.1531
18882W        W35016  13.266  18.175   6.027  0.1665 -0.0742 -0.3025
18883W        W35017   9.888   7.138  15.067 -0.2401  0.4567  0.0344
18884W        W35018  16.306  11.179  14.234 -0.0677 -0.2409  0.0339
18885W        W35019   9.382   9.415   3.778  0.2720 -0.2779 -0.4171
18886W        W35020  11.750  14.659  13.727  0.1944  0.0140 -0.2391
18887W        W35021  10.260   8.542   3.159 -0.0595  0.0673  0.1272
18888W        W35022  16.473   5.868   2.984  0.1839  0.0339 -0.2247
18889W        W35023   8.412  10.172   3.847  0.0387 -0.2488 -0.0316
18890W        W35024   2.127   4.800  13.876 -0.1751 -0.0990  0.0383
18891W        W35025  11.891  14.006   3.591  0.2775  0.4771 -0.2495
18892W        W35026   6.014   9.047   4.434  0.1117  0.1193 -0.0364
18893W        W35027   3.727  12.382  11.444 -0.0379  0.2035  0.0160
18894W        W35028  12.029   9.168  13.124 -0.1455 -0.0051  0.1540
18895W        W35029   4.688   5.060   1.128 -0.2075  0.1864 -0.1618
18896W        W35030  10.259  14.703   4.547  0.0869 -0.1369  0.1672
18897W        W35031   9.301  11.739   2.213 -0.2501 -0.1779  0.0093
18898W        W35032   2.682   5.240   3.803  0.1378 -0.2074  0.0116
18899W        W35033   1.514   6.329  14.576 -0.1652 -0.0637 -0.1653
18900W        W35034   5.205   8.761   2.027  0.0285 -0.2422  0.0597
18901W        W35035   8.088  12.007   2.491  0.0384  0.0822  0.2119
18902W        W35036  11.899  14.686   6.047 -0.0965  0.0401 -0.0958
18903W        W35037  15.254  17.421   2.819  0.2579 -0.0150 -0.0147
18904W        W35038   4.356   7.381  14.131  0.1685 -0.2543 -0.0051
18905W        W35039   2.589   5.883  10.623  0.0168 -0.0167  0.1722
18906W        W35040  13.636   1.729   1.994 -0.0543  0.2353  0.1789
18907W        W35041   8.316  15.098  12.218  0.2646 -0.2902 -0.1238
18908W        W35042  14.403  11.357  12.471 -0.0478  0.2312 -0.0308
18909W        W35043  11.337   3.205  13.154  0.1120 -0.1048  0.1744
18910W        W35044  11.860   5.927  13.999  0.1134  0.0065  0.1612
18911W        W35045   8.471  16.762  14.597 -0.1405 -0.1979 -0.0546
18912W        W35046   6.682   1.825   3.108 -0.0495 -0.0020 -0.1693
18913W        W35047   7.498   8.750  14.237  0.0946  0.1089 -0.1428
18914W        W35048  16.851   5.611   2.406 -0.0469  0.2617  0.2076
18915W        W35049   5.403   2.346  12.705 -0.0495  0.2029 -0.0424
18916W        W35050  14.485  12.312   5.807  0.2922 -0.2197  0.0434
18917W        W35051  14.522   4.386   3.778  0.0749  0.0336 -0.0488
18918W        W35052   7.869   2.092  13.017 -0.1007  0.1631 -0.1340
18919W        W35053  10.943   5.234   1.953 -0.0596  0.0472  0.2993
18920W        W35054  12.600  13.197   0.724  0.0338  0.2157  0.5623
18921W        W35055  11.570  16.838  13.246 -0.0190  0.0767 -0.1448
18922W        W35056  11.003   1.835  14.123  0.1586  0.1835  0.0052
18923W        W35057  17.130  17.046   4.848  0.0152 -0.2612  0.1418
18924W        W35058  11.114  11.496   4.744 -0.2752 -0.0678  0.2864
18925W        W35059   5.998   7.588   4.134 -0.0442  0.3203  0.0976
18926W        W35060   9.722   0.801  12.465  0.1175 -0.2017 -0.0034
18927W        W35061   9.677   7.737   0.126  0.2072  0.2828  0.0353
18928W        W35062  10.400   2.031  13.367 -0.2232  0.0226  0.1090
18929W        W35063  10.604  10.290  12.812  0.2828 -0.0866  0.1115
18930W        W35064  17.125  17.295  15.199  0.3655  0.0317 -0.1297
18931W        W35065  13.371   7.964  15.167  0.0357 -0.1486  0.0714
18932W        W35066  12.370   6.589   5.820  0.0925  0.1402 -0.1479
18933W        W35067  14.788   9.644   1.694  0.1570 -0.0409 -0.0959
18934W        W35068   2.156   9.683   2.043  0.3245  0.0575 -0.2178
18935W        W35069  17.800   2.186   0.675  0.0330 -0.0380 -0.2317
18936W        W35070   9.032   5.050   4.422 -0.1696 -0.0706 -0.0597
18937W        W35071  10.828   8.208   1.722  0.3414 -0.0602 -0.2002
18938W        W35072   5.864  15.568   3.984  0.0045 -0.1746 -0.0877
18939W        W35073   2.469   0.659   3.283 -0.1073  0.0196  0.0681
18940W        W35074  17.812   1.920  11.846  0.0123 -0.1161 -0.1594
18941W        W35075   0.124  11.345  12.730  0.0566 -0.0089  0.1369
18942W        W35076  14.071   5.614  16.475 -0.2026  0.1485  0.4023
18943W        W35077   7.620  12.337   4.279 -0.0729 -0.0370  0.1547
18944W        W35078  16.654   6.589   1.408 -0.0408  0.2044  0.1984
18945W        W35079   3.686   9.135   3.663  0.0397  0.3023 -0.2792
18946W        W35080   1.190   5.586   3.699 -0.0464  0.0828 -0.0870
18947W        W35081  16.169   7.496   4.754  0.0057 -0.2636  0.1001
18948W        W35082   4.807   5.518  12.091 -0.0100 -0.0238 -0.2953
18949W        W35083   6.961   0.676  14.051 -0.0044 -0.2656 -0.2638
18950W        W35084   8.559   6.203  10.669 -0.0273  0.0983 -0.0002
18951W        W35085   7.845   5.636  12.795 -0.1043  0.0723  0.1554
18952W        W35086   0.772   6.608   2.478  0.4574 -0.0712 -0.1980
18953W        W35087  11.204  17.968   1.922 -0.0134 -0.0711  0.3072
18954W        W35088  15.821   0.235  15.528 -0.0223 -0.1482  0.0974
18955W        W35089  14.706   1.060  14.150 -0.1136  0.1650  0.2053
18956W        W35090  15.349   3.998   2.062  0.1825 -0.0666  0.0154
18957W        W35091   1.729   5.288  14.531  0.0217 -0.0845 -0.0338
18958W        W35092  12.839   7.335  12.968 -0.0124  0.0014 -0.0251
18959W        W35093  17.549   3.023  16.138  0.0550 -0.0500 -0.0072
18960W        W35094  12.724  13.743  15.893 -0.0724  0.3825 -0.0795
18961W        W35095  13.751   4.369  14.816 -0.4134 -0.3412  0.1834
18962W        W35096  10.157   7.126   2.290  0.2146  0.3447 -0.0834
18963W        W35097   6.847  16.187  14.036  0.0688 -0.3785  0.0281
18964W        W35098  14.065  16.280   0.070 -0.2411 -0.0546 -0.1278
18965W        W35099   4.452  14.770  13.784 -0.0904  0.1407  0.1781
18966W        W35100   4.031   1.298  14.610 -0.3223 -0.2030 -0.1442
18967W        W35101   5.532   6.704   3.951  0.1545  0.1693 -0.2114
18968W        W35102   3.642   5.737  11.552  0.0382  0.0700  0.0579
18969W        W35103   2.184  10.566  13.077 -0.4108 -0.0413 -0.0173
18970W        W35104   4.518   3.217  16.159  0.2663 -0.0070  0.2973
18971W        W35105  12.701   4.570  14.324 -0.1565 -0.2231 -0.1343
18972W        W35106  14.889   5.539  14.365  0.2583 -0.0754 -0.1665
18973W        W35107  12.799   9.321   4.698  0.1570  0.3019  0.0572
18974W        W35108   4.670   2.455   3.116  0.0894  0.0556  0.2713
18975W        W35109   8.246   5.935   4.636  0.0210 -0.2267  0.0701
18976W        W35110  16.966   6.784   5.208 -0.1287  0.0353  0.2179
18977W        W35111   5.503  11.120  14.597 -0.0295 -0.1564 -0.0829
18978W        W35112  15.106  16.316  14.613 -0.0374 -0.0524 -0.0754
18979W        W35113   8.222  13.342  13.015  0.1262 -0.0869  0.0801
18980W        W35114   9.093  13.485  12.047 -0.1920 -0.1458 -0.2318
18981W        W35115  11.793   9.216  16.144  0.0053  0.1047  0.0747
18982W        W35116   1.375   9.723  12.434  0.1395  0.3162 -0.0702
18983W        W35117  11.547  13.138  16.264 -0.1014  0.0158 -0.0253
18984W        W35118   4.194  13.203   3.086 -0.1138 -0.1485 -0.2539
18985W        W35119  17.027   1.671  15.545  0.1049 -0.0908 -0.2694
18986W        W35120  14.292   8.921   1.430  0.1809  0.3054  0.1976
18987W        W35121   8.874   6.549   2.775 -0.0297 -0.4892  0.2395
18988W        W35122   8.142  14.532   0.188  0.3289 -0.0230 -0.0440
18989W        W35123   0.054   7.427   4.150  0.1596 -0.2554 -0.2470
18990W        W35124   3.491   2.668  13.809  0.0076  0.1088 -0.0500
18991W        W35125   6.588  14.751   5.153  0.0156 -0.1648  0.2119
18992W        W35126   1.564  18.138  14.275 -0.1351 -0.1882  0.4204
18993W        W35127  15.285  14.236  14.348 -0.1286  0.1977 -0.1592
18994W        W35128   5.367  12.167   2.075 -0.0745 -0.3161  0.2160
18995W        W35129   6.645   0.302  14.591  0.3919  0.0591 -0.0803
18996W        W35130   4.612   3.852   1.873 -0.1461 -0.1821  0.1129
18997W        W35131  12.356  12.961   0.315 -0.0859 -0.0667 -0.0939
18998W        W35132  10.736   3.329  14.548  0.1343 -0.1425 -0.2887
18999W        W35133   0.289   3.543   3.162 -0.1366 -0.2127  0.0472
19000W        W35134  10.672  10.602   2.007  0.1487  0.1880  0.3392
19001W        W35135   2.760   9.737   2.061  0.0282 -0.0034  0.0702
19002W        W35136  15.930  10.548   1.579  0.2207 -0.5743 -0.0597
19003W        W35137  10.213  15.426  15.735  0.1478  0.1621  0.0566
19004W        W35138  13.217   1.133   2.005 -0.0119  0.1261  0.2260
19005W        W35139   9.841  14.676  16.523  0.0953 -0.0616  0.0275
19006W        W35140  10.577   4.320   2.784 -0.1322  0.0769 -0.2825
19007W        W35141   5.217   0.868  14.953 -0.1822 -0.3335 -0.0456
19008W        W35142  12.426  14.901   1.593  0.0423 -0.1488 -0.3711
19009W        W35143   9.632   4.843  15.106  0.0345 -0.1323 -0.1786
19010W        W35144   2.376   8.779   0.675 -0.0577 -0.0831  0.0932
19011W        W35145   0.814  15.108   0.591  0.0444  0.0462 -0.0866
19012W        W35146   9.827  13.635  12.681 -0.1481  0.1420  0.1570
19013W        W35147   4.356   3.124  14.702  0.4980  0.1385  0.0453
19014W        W35148   5.487  17.478   5.334 -0.0584  0.3356 -0.1634
19015W        W35149   8.500   4.854   4.274 -0.0796  0.1227 -0.2355
19016W        W35150   5.389   5.525   2.230  0.2316  0.1503 -0.1167
19017W        W35151   1.739   4.836   2.543 -0.0688 -0.1158 -0.0890
19018W        W35152  15.989   4.247   1.498 -0.1555  0.0562  0.0411
19019W        W35153  14.994  12.809   2.165  0.1422 -0.0377 -0.1953
19020W        W35154  15.665   5.571  16.033  0.0014 -0.1174 -0.0484
19021W        W35155  17.030   5.194   4.975 -0.2955 -0.3839  0.1309
19022W        W35156   1.212   0.278   0.593 -0.1431 -0.1082  0.0557
19023W        W35157  17.126  17.836   4.047 -0.1864  0.0387  0.0334
19024W        W35158  11.308   7.983  11.301  0.1327 -0.0447  0.1502
19025W        W35159   0.776  10.768   1.716  0.2049 -0.0672  0.2633
19026W        W35160  11.198   7.203   1.069  0.0482 -0.0226 -0.2307
19027W        W35161   1.384  17.558   0.541 -0.0827 -0.0685  0.3775
19028W        W35162  17.735   8.154  12.956 -0.1449  0.2161  0.0709
19029W        W35163  15.044  15.409  14.907  0.1177 -0.0866 -0.0429
19030W        W35164  16.479  12.210  14.286 -0.0223 -0.0959 -0.1947
19031W        W35165   7.329  16.507  14.324  0.1003  0.5308  0.2743
19032W        W35166   8.626  16.410  11.499  0.3512 -0.0901 -0.0555
19033W        W35167   5.481  10.441  15.843 -0.0702  0.0601  0.1498
19034W        W35168   6.820  10.456  12.772 -0.1904  0.2495  0.0008
19035W        W35169  14.981   4.374   5.429  0.2267 -0.2780  0.2018
19036W        W35170  14.436   0.320  13.089 -0.1525  0.0944  0.0513
19037W        W35171  10.857   7.695   3.952 -0.2225  0.2156 -0.0342
19038W        W35172   4.719  11.264   4.606 -0.0582 -0.0825 -0.2198
19039W        W35173   8.693   3.953   5.371  0.0300  0.1417  0.1219
19040W        W35174   3.023   5.327   5.264  0.0023  0.1598  0.1949
19041W        W35175   2.371   3.402  16.131  0.2942 -0.0478 -0.2435
19042W        W35176  13.985   0.119   0.950  0.2335 -0.0928 -0.1283
19043W        W35177  17.997   1.637   1.023  0.0900  0.1778  0.0234
19044W        W35178  10.308  11.284   4.493 -0.3114  0.1996  0.2067
19045W        W35179  10.673  12.182  12.702  0.2165  0.1088  0.1884
19046W        W35180   4.848  13.085  15.546 -0.0987 -0.1165 -0.2179
19047W        W35181  11.624   1.352   5.943  0.1110  0.1765 -0.1717
19048W        W35182   2.744  14.771   4.069 -0.2857 -0.1897  0.0174
19049W        W35183   3.627   6.461  14.938  0.3274  0.3979 -0.0690
19050W        W35184   9.068   3.279  13.393 -0.3196  0.2169 -0.0618
19051W        W35185   6.761   9.214  14.038 -0.1198  0.1124  0.1769
19052W        W35186  16.632  17.002  15.275  0.1136 -0.1706 -0.0760
19053W        W35187  11.705  17.784  14.701  0.0817  0.2366 -0.2075
19054W        W35188   8.745   1.033   0.615 -0.1205 -0.0374  0.0524
19055W        W35189   2.501  12.700  15.933  0.1334 -0.0304 -0.1503
19056W        W35190  15.477   4.473  12.432  0.1350 -0.2691  0.0106
19057W        W35191   8.857  17.629   4.429  0.0873  0.2092  0.1551
19058W        W35192  10.989  14.832   1.311  0.1443  0.0625  0.0626
19059W        W35193   3.438  13.025  14.586  0.1136 -0.0789  0.2424
19060W        W35194  13.725   3.268   2.142 -0.1303 -0.0789  0.3582
19061W        W35195  14.815  14.671   4.789 -0.0973  0.0083  0.1291
19062W        W35196  14.649  15.661   2.300  0.1140  0.2306  0.3200
19063W        W35197  16.027   5.033   2.778 -0.0430 -0.1331  0.1710
19064W        W35198  17.368   0.905  16.202  0.0897 -0.2004  0.3101
19065W        W35199  13.998  14.438  16.031  0.1526  0.3552  0.1875
19066W        W35200  16.521   8.678  11.087 -0.0800  0.2116 -0.2916
19067W        W35201   0.527   0.263  14.948 -0.0619  0.0033  0.2276
19068W        W35202   3.310   4.616  16.365  0.0849  0.3311  0.1774
19069W        W35203   8.723   8.018   3.803  0.1037  0.1932 -0.2233
19070W        W35204   1.268   8.536  11.802 -0.1644 -0.2028 -0.0580
19071W        W35205   2.782  11.560  12.915 -0.0736  0.0992 -0.0910
19072W        W35206  12.575   5.469  12.523  0.1188  0.1886  0.0268
19073W        W35207  15.593   5.982   3.495 -0.0694 -0.2585 -0.1155
19074W        W35208  10.845   0.528  13.062 -0.2481  0.0328 -0.1625
19075W        W35209   0.175  13.793  14.762  0.0736  0.1288  0.1115
19076W        W35210  17.534  11.589   4.197 -0.0197 -0.0350  0.5143
19077W        W35211   0.622   4.402  12.850  0.4456 -0.1585  0.3743
19078W        W35212   5.845   6.177   3.947 -0.1055  0.0257 -0.1718
19079W        W35213  15.983   2.975   0.316  0.1386 -0.3740 -0.0446
19080W        W35214  14.480   6.815   5.295 -0.1498 -0.0261 -0.2222
19081W        W35215   1.968   8.497   0.697  0.1384 -0.4343  0.2999
19082W        W35216   6.390  10.565   1.571  0.3175 -0.1097  0.0885
19083W        W35217   3.894  17.573   6.478  0.0886 -0.1493 -0.0363
19084W        W35218  11.250  10.125   9.829 -0.1680 -0.1027 -0.1150
19085W        W35219  15.643  10.287   3.346 -0.0027  0.2490 -0.0694
19086W        W35220  10.215  11.986  13.251 -0.1105  0.2092  0.1996
19087W        W35221   9.164  10.271  12.354  0.1457  0.1909  0.0274
19088W        W35222   1.623  11.622  16.150 -0.1264 -0.3965  0.1176
19089W        W35223  11.050   4.196   2.884  0.0407 -0.1541  0.1920
19090W        W35224  10.234   0.008   1.643 -0.0500 -0.0404  0.0802
19091W        W35225   9.831   8.853   2.947  0.2316  0.1473  0.2059
19092W        W35226  16.637   4.845   5.502  0.0182 -0.0909  0.2270
19093W        W35227   5.744  12.998  13.263  0.1358  0.3743  0.2004
19094W        W35228   0.225  10.500   3.031 -0.0346 -0.2008  0.3880
19095W        W35229   8.242  10.482  14.341 -0.2809  0.1070 -0.0339
19096W        W35230   6.713   3.333  15.792 -0.2512  0.0599 -0.2144
19097W        W35231  16.181   5.890  10.016 -0.3356 -0.1225 -0.0127
19098W        W35232  15.663   5.102   2.212  0.0387  0.1375  0.0112
19099W        W35233   6.532  16.657  15.692 -0.0898 -0.0988  0.0146
19100W        W35234  13.362   2.585  12.426 -0.0487 -0.5971 -0.2562
19101W        W35235  13.244   6.427   1.156  0.0282  0.2682 -0.2435
19102W        W35236   1.010  10.168  14.631 -0.2963  0.0393 -0.1044
19103W        W35237  16.626  12.777   1.325 -0.0801 -0.5920 -0.2288
19104W        W35238  14.066  17.410   4.981  0.0095  0.0902  0.3706
19105W        W35239   9.037   8.234  15.314 -0.0233  0.0343 -0.1223
19106W        W35240   6.816   7.750  15.686  0.0711 -0.0218 -0.0831
19107W        W35241   6.761  13.832   1.362 -0.0746 -0.1546 -0.4317
19108W        W35242   1.175   4.288   0.600 -0.0823 -0.2112  0.0580
19109W        W35243   5.919  14.434   0.366 -0.1555 -0.0064  0.0594
19110W        W35244   8.941  12.984   4.076  0.2014  0.4601  0.0345
19111W        W35245  13.306  16.320  16.325 -0.0095  0.0544 -0.0401
19112W        W35246   8.600   2.111  12.256  0.0285  0.2112  0.1068
19113W        W35247  14.111  11.207  16.392  0.1938 -0.1980  0.0431
19114W        W35248  11.231  10.305   2.786  0.4948  0.1205 -0.1164
19115W        W35249   9.348   5.205  16.426 -0.0410 -0.2577  0.0207
19116W        W35250   8.206   7.437  12.947 -0.0660  0.2039  0.0185
19117W        W35251   8.451   1.201   4.829 -0.1149  0.0071  0.3147
19118W        W35252  16.775  10.069   2.102 -0.0393  0.0565  0.2525
19119W        W35253  17.823   7.872  12.334  0.2156  0.0461  0.1414
19120W        W35254  13.336   9.398   3.668  0.5420 -0.1036  0.1797
19121W        W35255   8.811   4.015  11.698 -0.1716  0.2764 -0.0549
19122W        W35256   3.992  15.620   5.235 -0.1557 -0.1381  0.0321
19123W        W35257  10.470  10.797  12.934 -0.2081  0.0898 -0.1804
19124W        W35258  10.537  15.603  12.799 -0.0931 -0.0599 -0.1818
19125W        W35259   0.782  10.827   5.364 -0.0647  0.0894  0.0380
19126W        W35260  16.447  10.329  13.654 -0.2152 -0.1683 -0.2828
19127W        W35261   4.753   9.214  16.138 -0.0604 -0.1037  0.1042
19128W        W35262  14.579  17.477   1.967  0.2841 -0.0097 -0.4214
19129W        W35263   6.970  13.612   2.164 -0.2392 -0.0405 -0.1234
19130W        W35264   1.060  16.470  14.139  0.1001  0.0555  0.2244
19131W        W35265   3.872  16.681   4.854 -0.0821  0.0861 -0.1332
19132W        W35266  15.119   6.064   0.717 -0.1637 -0.0960  0.1778
19133W        W35267   5.342   6.783  15.842 -0.1813  0.3594 -0.2805
19134W        W35268   5.994   5.999   1.600  0.3262  0.2955 -0.2995
19135W        W35269   1.987  10.583  15.744  0.0070  0.1024  0.2940
19136W        W35270   6.448  16.147   3.517 -0.2240  0.0586  0.1186
19137W        W35271  12.943  16.252   6.054 -0.0537 -0.2986 -0.0418
19138W        W35272  13.573   2.089  15.255 -0.0819  0.0394  0.0041
19139W        W35273   7.915   8.185  13.044  0.0871  0.0103  0.0918
19140W        W35274   3.558  13.191  13.408 -0.0296 -0.0271 -0.1532
19141W        W35275  16.159   8.996  12.192 -0.0607 -0.0796  0.0160
19142W        W35276   4.082   8.967   0.286  0.1399  0.0952 -0.2857
19143W        W35277  17.369   5.484   4.254  0.1773 -0.0577  0.3266
19144W        W35278  11.951  14.612   3.678  0.1400 -0.1434 -0.0096
19145W        W35279   3.163  13.879   1.482  0.2967 -0.0959  0.3506
19146W        W35280  13.205   6.766  13.773  0.0745  0.0616 -0.0900
19147W        W35281  16.102  11.899   2.787  0.0147  0.0759  0.0441
19148W        W35282   7.741  10.156  10.947 -0.1235  0.1499 -0.0105
19149W        W35283  13.484  11.899  15.360  0.2192 -0.1353 -0.1709
19150W        W35284  15.488  10.384   2.285  0.4037 -0.1421  0.0741
19151W        W35285   1.008  12.165  13.028 -0.0567 -0.1139 -0.1228
19152W        W35286  12.289   7.988  13.368 -0.0258 -0.1042 -0.1132
19153W        W35287  12.163   0.184   1.839  0.0356 -0.0655 -0.0501
19154W        W35288   3.044   5.163  11.987 -0.1298 -0.0473  0.0033
19155W        W35289  14.867   3.677   5.995 -0.1120 -0.0116  0.0158
19156W        W35290   5.306   2.427  13.617 -0.0257  0.0037 -0.1354
19157W        W35291   9.289   9.345  12.586 -0.1406  0.0370  0.0307
19158W        W35292   7.441  14.367   4.908 -0.1434  0.1961  0.4230
19159W        W35293  18.049  16.243  15.461  0.1165 -0.0795  0.1478
19160W        W35294  16.714   2.774  14.426  0.0568 -0.1349 -0.1204
19161W        W35295  12.269  10.016  10.674  0.2405 -0.0913 -0.1207
19162W        W35296   8.581   6.033   6.051  0.2145 -0.1806  0.1646
19163W        W35297   6.799  10.688   5.477  0.1542  0.1652 -0.1277
19164W        W35298   7.168   3.582   0.357  0.1342  0.2084  0.0187
19165W        W35299   6.920  10.948  15.857 -0.1297 -0.0856 -0.0142
19166W        W35300  16.957  11.073  12.121  0.1163 -0.2492  0.3116
19167W        W35301   7.456   8.985   0.160 -0.1127  0.1019 -0.1662
19168W        W35302   8.891   2.552   3.685  0.0897 -0.1592 -0.1861
19169W        W35303  11.197   5.875   0.907  0.0269  0.3598 -0.1407
19170W        W35304  15.686   4.876  14.369  0.0417  0.2983 -0.1212
19171W        W35305   0.562  17.209   1.550  0.2165  0.0943  0.2893
19172W        W35306   2.605   7.355   0.197  0.1356  0.0816 -0.0723
19173W        W35307  14.235   4.232   0.860  0.0025  0.0980 -0.0567
19174W        W35308  13.187   4.721   5.046 -0.0412 -0.0510 -0.0123
19175W        W35309  13.301  11.127  14.743  0.2702  0.1590 -0.0157
19176W        W35310   0.414   6.300   3.576 -0.0223 -0.1819 -0.2068
19177W        W35311   5.207   9.694  13.142  0.0255  0.1517  0.1342
19178W        W35312   0.240   2.974  12.151 -0.0611  0.0382 -0.0081
19179W        W35313   9.569  14.286  12.051  0.0529  0.0527  0.0347
19180W        W35314   3.999  14.035  12.177 -0.2819 -0.1985  0.0387
19181W        W35315  12.629   4.077  12.096  0.0245  0.1463 -0.4483
19182W        W35316  15.777  15.226  16.453  0.0476  0.0322 -0.0941
19183W        W35317  13.905   7.944  12.768 -0.3661  0.0488 -0.0422
19184W        W35318  11.053  10.646   4.614 -0.1012 -0.1519  0.0305
19185W        W35319   4.295   8.592   0.039  0.0123 -0.2463 -0.0052
19186W        W35320  12.210  10.653  11.476  0.1118 -0.3647  0.1600
19187W        W35321   6.505   5.723  14.988 -0.2176 -0.0551  0.0515
19188W        W35322  12.105  14.434   0.385 -0.2146 -0.2340 -0.1625
19189W        W35323   5.541   7.702   1.432 -0.0619  0.0544  0.2579
19190W        W35324   0.664   0.610  11.870  0.0140  0.0289  0.0085
19191W        W35325   4.912  13.815  16.060 -0.1694 -0.1662  0.0725
19192W        W35326   6.474   6.247  14.944  0.2690  0.1573  0.4588
19193W        W35327   6.647   3.824  12.416 -0.0433 -0.2695  0.1272
19194W        W35328   4.856   3.824   4.673  0.0544 -0.0177 -0.0520
19195W        W35329   0.623  16.104   5.372 -0.2697  0.1211 -0.2857
19196W        W35330   9.734  17.001  14.948  0.0289 -0.0440  0.3114
19197W        W35331   5.018   7.351  14.496 -0.0427  0.1904 -0.1561
19198W        W35332  15.974  10.399  14.579 -0.0139 -0.0013  0.2138
19199W        W35333   0.529  16.996  15.844  0.2615  0.2420  0.3912
19200W        W35334   4.107  10.653  11.590  0.3212  0.2473 -0.3807
19201W        W35335  14.107   8.936  11.981  0.3210  0.3548  0.0546
19202W        W35336   7.909   3.970  14.114  0.0991 -0.1675 -0.2861
19203W        W35337   7.764   1.746   5.176 -0.1018  0.1257 -0.2420
19204W        W35338   9.406   4.338  12.591 -0.0998 -0.1237  0.3903
19205W        W35339   8.729  18.087  14.886  0.1128  0.1377  0.2870
19206W        W35340  13.217   3.151  14.514  0.1666  0.2089 -0.0728
19207W        W35341  11.082   3.601  14.045  0.2201  0.1905  0.0695
19208W        W35342   0.577  17.351   0.378  0.2236  0.1656 -0.5702
19209W        W35343   4.934   0.526  12.036  0.2227 -0.2749 -0.1676
19210W        W35344   5.158   0.779   3.640  0.0638  0.2541  0.0517
19211W        W35345   8.592   8.081  14.538  0.0332 -0.0467 -0.1027
19212W        W35346  16.743   7.647  14.560  0.0503 -0.0883 -0.1924
19213W        W35347  12.954   4.428   3.286  0.0291 -0.3632 -0.2707
19214W        W35348  10.148  15.560   4.741  0.0279  0.1905  0.1143
19215W        W35349   0.625  13.026   2.673 -0.1711  0.1238 -0.3751
19216W        W35350  17.448   9.471  14.693 -0.0838 -0.1123  0.3503
19217W        W35351   9.612  16.556   1.610 -0.0482 -0.1431  0.0967
19218W        W35352  11.667   6.785  10.702  0.0307 -0.0808 -0.2457
19219W        W35353  15.306   8.052   6.097 -0.0897 -0.1892 -0.0872
19220W        W35354   6.397  15.415  14.914 -0.0627  0.1096 -0.1673
19221W        W35355  15.111   7.213  14.613  0.0955  0.0083  0.0367
19222W        W35356   7.308  15.576   3.084 -0.1651  0.1226 -0.0904
19223W        W35357  12.131  12.366   3.789 -0.0428 -0.0215 -0.1281
19224W        W35358   1.875  10.701   2.641 -0.2235  0.0571  0.1478
19225W        W35359   7.009   6.360  15.151  0.0854  0.1553 -0.1138
19226W        W35360   5.520   8.237  14.488  0.1541 -0.3396  0.1401
19227W        W35361   4.386  12.560  12.192 -0.0283  0.1127  0.0288
19228W        W35362   3.095   0.510   0.961 -0.0219 -0.2804 -0.0616
19229W        W35363  17.186  12.611  12.280 -0.1085 -0.0145 -0.1644
19230W        W35364  15.498  17.643   2.372 -0.2198 -0.0099 -0.1030
19231W        W35365   8.272   2.431   1.839 -0.4905 -0.1974  0.0155
19232W        W35366  15.524   4.428  11.934 -0.2327 -0.0961  0.0781
19233W        W35367   5.126   0.939  12.576  0.1476  0.1396 -0.1075
19234W        W35368   7.161  13.550  16.177 -0.2854  0.4306  0.0155
19235W        W35369   1.709   5.662   4.467  0.1850 -0.0764  0.0596
19236W        W35370  17.026  12.615   3.357 -0.2584 -0.2156  0.0613
19237W        W35371  10.558   7.263   2.041  0.0136  0.0709  0.3528
19238W        W35372   9.817  18.130   4.775  0.1858 -0.2109  0.0067
19239W        W35373   7.541  12.426   0.054  0.0332 -0.0408 -0.3410
19240W        W35374   0.071  13.290  14.987 -0.0401  0.0193 -0.0222
19241W        W35375   0.898  11.213  15.842  0.2863 -0.0691 -0.5197
19242W        W35376  15.985  10.361   2.880  0.1175 -0.0289  0.0468
19243W        W35377  18.028  12.786  13.764 -0.1357 -0.0677 -0.3696
19244W        W35378   2.859   8.687  12.767 -0.0580 -0.2719 -0.1440
19245W        W35379   6.606  17.881   4.144 -0.0761 -0.1334 -0.0774
19246W        W35380  16.996   1.308  11.940 -0.1124 -0.1829  0.0143
19247W        W35381  15.530   4.032  11.516 -0.3766 -0.3533  0.0690
19248W        W35382  10.063  10.248  11.301  0.2356  0.1649 -0.3329
19249W        W35383   9.180   8.897   3.559 -0.1844  0.0685 -0.0199
19250W        W35384   2.492   7.145  16.162 -0.0175 -0.1759 -0.0159
19251W        W35385   7.304   6.585  14.345 -0.0026 -0.0961  0.1298
19252W        W35386   5.261   7.486   4.823 -0.0499 -0.1091  0.2301
19253W        W35387   9.796   1.300  12.228 -0.0350  0.1039  0.2325
19254W        W35388   5.027  12.607  15.578  0.1706  0.3273  0.1056
19255W        W35389   9.984  13.846   1.623  0.1618 -0.1748  0.1622
19256W        W35390   5.343   9.274  11.866 -0.0691 -0.0492  0.1168
19257W        W35391   1.215  16.172   0.168  0.3297  0.1975 -0.1066
19258W        W35392   8.544   9.264  12.358 -0.3447  0.1491 -0.3813
19259W        W35393  15.229   2.866   3.946  0.1783 -0.1543 -0.1201
19260W        W35394  17.587   4.405   4.130 -0.2094 -0.1643  0.3697
19261W        W35395  11.085  13.628   3.611 -0.1954  0.3016 -0.0230
19262W        W35396   9.849   3.142  14.538 -0.0283 -0.0134  0.2633
19263W        W35397  12.567   3.875   6.106 -0.0014 -0.0083  0.1337
19264W        W35398   5.512   1.288  15.035 -0.0033  0.0865 -0.1210
19265W        W35399   0.931  16.411   3.402 -0.1137  0.5972 -0.0241
19266W        W35400  17.866   5.747  15.716  0.2068 -0.0601 -0.0558
19267W        W35401  11.079  10.744   2.354  0.0210  0.0504 -0.1985
19268W        W35402   3.160  12.494   1.753  0.2310 -0.0812  0.1465
19269W        W35403   2.249   0.744   2.125 -0.1600  0.0902  0.1861
19270W        W35404   3.389  14.616  13.464 -0.0105 -0.2017 -0.0624
19271W        W35405  17.269   3.684   2.958 -0.2883 -0.3004 -0.2029
19272W        W35406   2.678   0.831   2.388 -0.0635  0.2936 -0.3231
19273W        W35407  16.279   2.157   5.213  0.2512 -0.2321 -0.2768
19274W        W35408   5.081  12.855   3.225  0.1181 -0.3245 -0.0080
19275W        W35409  16.979   4.605  11.633  0.1488  0.2341 -0.0078
19276W        W35410  13.282   3.141  11.998 -0.0028 -0.0789  0.0489
19277W        W35411  17.765   6.325   2.582 -0.1177 -0.1070 -0.0039
19278W        W35412  18.139  10.486   2.119 -0.2698  0.0879  0.3390
19279W        W35413  12.325  11.655  12.553 -0.1108  0.2764  0.0244
19280W        W35414  14.268  17.308  15.830  0.0988  0.1270 -0.1282
19281W        W35415  10.924  11.521  16.513 -0.1552  0.0755 -0.1722
19282W        W35416  10.400   3.102   5.371  0.1087 -0.2533  0.0214
19283W        W35417   1.865  14.428  16.351  0.0023 -0.1484  0.3712
19284W        W35418   8.758   4.739   5.750 -0.0621  0.1679 -0.2088
19285W        W35419  16.702  16.769  13.118 -0.1227 -0.2540  0.3679
19286W        W35420  15.069   4.536   2.661  0.0309  0.0503  0.0556
19287W        W35421   7.822   2.201   2.644 -0.0665 -0.0051 -0.1519
19288W        W35422   0.574   8.731   0.857 -0.0706  0.2013  0.2019
19289W        W35423   1.654   4.227  11.262  0.0685  0.0797  0.3188
19290W        W35424   4.805  17.549  16.025 -0.3444 -0.0142 -0.3568
19291W        W35425   4.388   5.672  10.785 -0.2178 -0.0483  0.3169
19292W        W35426   7.804   5.224  11.373 -0.0887  0.1764  0.2438
19293W        W35427  18.092  17.782  13.092 -0.0072 -0.1808 -0.1676
19294W        W35428  10.843  15.318  14.720  0.2937  0.1327  0.0632
19295W        W35429  12.837  11.846  15.706  0.0612 -0.1754 -0.2109
19296W        W35430  10.981   8.208   3.741 -0.3341 -0.0215 -0.2952
19297W        W35431  14.794  17.185  15.037 -0.1009  0.1010 -0.0674
19298W        W35432  17.052   0.042   5.464  0.0776 -0.1085  0.3621
19299W        W35433  15.330   0.990  16.159 -0.1270 -0.1011 -0.3861
19300W        W35434  14.443  10.510  11.702 -0.2313  0.2630 -0.0331
19301W        W35435   6.591   2.741   0.219 -0.3577  0.2084 -0.0928
19302W        W35436   9.458   6.560  15.961  0.0753 -0.1864 -0.0169
19303W        W35437  13.872  12.534  12.897 -0.3077  0.0417 -0.0421
19304W        W35438  15.272   2.407   3.132  0.0908  0.3310 -0.3130
19305W        W35439  13.038   6.980   2.953 -0.0872 -0.3349 -0.0487
19306W        W35440   2.203   6.272   6.376 -0.0779 -0.3902 -0.1526
19307W        W35441   0.229  15.541  11.946 -0.1855 -0.1228  0.3158
19308W        W35442  14.147  12.475   5.228  0.2988 -0.1225  0.0996
19309W        W35443   2.921   2.020   1.779  0.2415  0.0967 -0.1782
19310W        W35444   2.738  16.136  15.393  0.2023  0.3121 -0.0257
19311W        W35445   2.480   9.842  14.376  0.0841 -0.0460  0.0826
19312W        W35446  17.199   9.467   4.051 -0.0861 -0.1968  0.1710
19313W        W35447  16.387   9.296   1.808  0.0428  0.1194  0.1503
19314W        W35448   1.362  12.834   2.315 -0.0610 -0.1513  0.0246
19315W        W35449  15.208  12.556   5.828  0.2136 -0.0826  0.1300
19316W        W35450  14.589   8.660   3.193  0.2870 -0.2781  0.1282
19317W        W35451   2.621  11.817   3.242 -0.0517  0.0489 -0.0659
19318W        W35452  11.795  10.099  14.156 -0.3172 -0.1259  0.0720
19319W        W35453  12.605   1.359   4.895 -0.0079  0.2782  0.1670
19320W        W35454   4.928   0.876   0.379  0.3117 -0.1594 -0.0051
19321W        W35455  11.307  13.243   3.912 -0.0405  0.3838  0.2517
19322W        W35456   7.434  11.767  15.437  0.5665 -0.0295  0.0590
19323W        W35457  16.076   3.370  14.572  0.3043  0.2257  0.1042
19324W        W35458   7.987   1.889  12.011  0.2594 -0.0643  0.2483
19325W        W35459   1.464   1.430   1.965  0.0422 -0.2872  0.4516
19326W        W35460   6.151   1.572  10.999 -0.0140 -0.0270 -0.2407
19327W        W35461   9.191   3.121  14.358 -0.1061 -0.1942  0.0122
19328W        W35462  17.923   2.669  14.967 -0.0157  0.2247  0.0625
19329W        W35463  15.404  11.943  14.096  0.0180 -0.1603 -0.2079
19330W        W35464  12.187  15.890  14.948 -0.0552 -0.0787 -0.0573
19331W        W35465  11.727  14.555   1.892  0.1735 -0.1123  0.0315
19332W        W35466   3.918   1.147   1.304 -0.2265  0.4346  0.1025
19333W        W35467  17.843  11.343   3.159 -0.2206  0.0984  0.2332
19334W        W35468   1.050   5.933   4.058 -0.0525 -0.0164  0.4779
19335W        W35469  16.441  12.363   0.977  0.2476  0.1240  0.0384
19336W        W35470  14.630   3.681   1.649 -0.1581  0.2867 -0.1024
19337W        W35471   3.977   4.474  16.292 -0.0295 -0.2881 -0.2736
19338W        W35472   0.844  11.700   4.267 -0.1887  0.0743 -0.2006
19339W        W35473  10.359   4.206   5.382  0.2167  0.2491  0.0820
19340W        W35474   4.945  14.571  14.425  0.0590  0.4293 -0.0961
19341W        W35475   0.686   2.421   1.733 -0.1084 -0.0079  0.2377
19342W        W35476   2.544   4.329   6.302  0.0184  0.3933 -0.1628
19343W        W35477  14.537  17.496   5.143  0.0438  0.2886  0.0148
19344W        W35478  13.079   5.100   5.374  0.0299  0.2758 -0.0716
19345W        W35479   1.620   5.086   2.061  0.1012 -0.0861 -0.1933
19346W        W35480   4.841   1.846   3.794  0.1358 -0.0306 -0.1129
19347W        W35481   4.438  10.197   3.851  0.0406  0.2548 -0.0399
19348W        W35482   0.370  15.055   6.483 -0.0185  0.2455 -0.1391
19349W        W35483  15.026  13.180   0.052 -0.1296 -0.0627  0.0715
19350W        W35484  17.649   6.867   2.400 -0.0490  0.1005 -0.2170
19351W        W35485   2.449   9.264  11.774  0.0508  0.3126 -0.1260
19352W        W35486   8.033   9.479  12.981  0.1067  0.3062 -0.2168
19353W        W35487   7.207  15.107   1.347 -0.1339 -0.1027  0.3932
19354W        W35488   3.870   2.985   2.795  0.1802  0.1505 -0.1202
19355W        W35489   6.615   1.208   0.595 -0.0181 -0.1175  0.1400
19356W        W35490  13.452  16.964   2.078  0.2321  0.0092 -0.0264
19357W        W35491   6.966  10.094   3.911  0.3617  0.0621 -0.0676
19358W        W35492   9.978   7.872  10.932  0.1370  0.0094 -0.0295
19359W        W35493  16.976   3.970  14.156 -0.1883  0.3362 -0.1711
19360W        W35494   6.002   5.963   0.097  0.0627 -0.2790 -0.0915
19361W        W35495  15.971  13.372   1.678 -0.2911  0.1205 -0.0091
19362W        W35496   2.141   8.132  14.204  0.2117  0.1002  0.1371
19363W        W35497  15.559  15.898   2.323  0.0353 -0.0703 -0.1096
19364W        W35498   5.642   3.592  11.208 -0.1558 -0.0607 -0.0597
19365W        W35499  16.238   1.927  12.625  0.2118  0.0308  0.1499
19366W        W35500   9.093  10.010   2.571 -0.1753  0.0038 -0.4628
19367W        W35501   5.102  12.417   2.675 -0.0840 -0.0342  0.1658
19368W        W35502   3.945  10.162  12.383  0.0756  0.3096 -0.0681
19369W        W35503   3.316  14.600  11.806 -0.0028  0.0206  0.2721
19370W        W35504   6.798   4.532   4.269 -0.0068 -0.0016  0.1096
19371W        W35505  12.980   3.555  15.968 -0.1456  0.1254 -0.0992
19372W        W35506  12.160  10.785  14.965  0.0958 -0.1268 -0.1230
19373W        W35507  15.009   1.176   1.658  0.1878 -0.1338  0.2165
19374W        W35508   1.030  15.193   1.480 -0.0374 -0.2406  0.3542
19375W        W35509   5.410  17.841  15.077 -0.0060 -0.1196 -0.0326
19376W        W35510  15.634   6.040  10.866  0.0561  0.2757 -0.0226
19377W        W35511  14.501  17.059   1.638 -0.0715 -0.2638  0.1271
19378W        W35512  17.049  12.774   5.760 -0.0815 -0.0801  0.3916
19379W        W35513  17.417  10.050   3.800  0.2632 -0.1674 -0.0423
19380W        W35514   6.969  14.870  13.588 -0.0505  0.1198  0.0614
19381W        W35515  14.605  14.453   3.517 -0.2608 -0.0602  0.2677
19382W        W35516   8.458  10.679   3.591  0.2056  0.2257 -0.2218
19383W        W35517   7.863  14.237   5.149 -0.1185  0.0825 -0.0966
19384W        W35518  13.992   3.138   4.537 -0.0676  0.2913  0.1342
19385W        W35519   3.819   7.060   3.327 -0.0527  0.0410 -0.3155
19386W        W35520  16.484   4.829   1.983  0.1827  0.4368 -0.1472
19387W        W35521  12.153  12.507  12.512  0.0368  0.0161  0.0147
19388W        W35522  17.767   5.807   2.617  0.1518  0.1232 -0.1631
19389W        W35523  11.918   0.652  11.474 -0.0990 -0.2414  0.2220
19390W        W35524   8.392  11.820   3.815  0.2050  0.3243  0.0175
19391W        W35525   3.969   8.405   5.319 -0.0732  0.0530  0.0380
19392W        W35526  10.882  14.197  11.792 -0.2821 -0.2903  0.1857
19393W        W35527   0.228   3.625  11.583  0.0096  0.1367  0.0240
19394W        W35528   0.856   9.104  15.766 -0.0484  0.0836 -0.0179
19395W        W35529  16.895   0.803  16.209 -0.0351 -0.0667 -0.3737
19396W        W35530  11.665   0.962   0.244 -0.2801  0.1774  0.1383
19397W        W35531   4.759  16.353   5.724 -0.2338  0.0940 -0.0267
19398W        W35532  10.505   3.704  13.687  0.3226  0.0580 -0.1307
19399W        W35533   6.026  11.916  10.384  0.0509  0.2010  0.1166
19400W        W35534   0.554  18.124  14.559 -0.1351  0.1828  0.0789
19401W        W35535  12.213   4.203   5.990  0.1896  0.2439  0.0717
19402W        W35536   0.309   2.620  15.933 -0.0944 -0.0467  0.0480
19403W        W35537  13.207   8.332  10.770 -0.3943  0.1920 -0.0684
19404W        W35538  11.094   1.985  16.130  0.3239  0.1220  0.0561
19405W        W35539   6.745  15.242   0.442  0.0026 -0.1620  0.0568
19406W        W35540   9.259  11.267   9.755  0.0413  0.4104 -0.0672
19407W        W35541  15.155   9.220  11.187 -0.1032 -0.2352 -0.0859
19408W        W35542   2.983  11.673   1.567  0.2669  0.1512 -0.1729
19409W        W35543   4.084  15.420   1.355  0.1026 -0.1987 -0.0069
19410W        W35544  10.530   5.838   5.939  0.2163  0.0265  0.2469
19411W        W35545  14.530   8.288   2.855 -0.2731 -0.0378  0.0106
19412W        W35546   6.251  16.524   0.159 -0.0448 -0.0864  0.0078
19413W        W35547  10.242  10.853  15.255  0.1507  0.0533 -0.0998
19414W        W35548   8.758   6.093   2.528 -0.1268 -0.1197 -0.0418
19415W        W35549  11.779   8.191   3.120 -0.0545 -0.0183  0.0088
19416W        W35550  13.243  14.967   3.755  0.1897  0.1308  0.0772
19417W        W35551   6.427  18.014  14.827 -0.1669 -0.3660 -0.2148
19418W        W35552  13.193  16.761   3.413  0.0293  0.1982 -0.0278
19419W        W35553  16.785  15.923   4.042  0.1007 -0.0559 -0.0221
19420W        W35554   9.445  18.024  15.851  0.0277 -0.3105  0.1187
19421W        W35555   2.776  15.409   0.063  0.2630  0.3300 -0.1408
19422W        W35556  15.363   3.493  13.894 -0.1317  0.0258 -0.0731
19423W        W35557  11.687   9.399   2.237 -0.0413 -0.0138 -0.1718
19424W        W35558   1.615  15.208  12.929 -0.0373 -0.2377  0.0791
19425W        W35559   1.475   4.739  12.632 -0.1230 -0.0963 -0.0970
19426W        W35560  11.043  12.961   4.303 -0.0342 -0.0097  0.1005
19427W        W35561   2.728  13.264  15.491 -0.0982  0.1098 -0.1365
19428W        W35562  12.560  11.647  11.730 -0.1328 -0.2044 -0.1942
19429W        W35563   3.453   0.475   5.787  0.2012 -0.1517 -0.1077
19430W        W35564   6.954  17.626   5.765 -0.3618  0.1465  0.3180
19431W        W35565   8.551  15.548  12.130  0.1314 -0.0990 -0.1355
19432W        W35566  17.680   4.510  15.292 -0.4055 -0.2631  0.0463
19433W        W35567   7.806   4.434   0.344 -0.1101  0.0508 -0.0006
19434W        W35568   8.972  12.426  13.584  0.2025 -0.1989 -0.0224
19435W        W35569  15.320  15.975   1.381 -0.0863 -0.2002  0.2006
19436W        W35570   1.446  12.726   4.262  0.1232  0.3338 -0.0362
19437W        W35571   5.301  17.888  13.173 -0.2195  0.4836 -0.0063
19438W        W35572   3.045   0.833   1.384 -0.1305  0.0045 -0.3253
19439W        W35573   7.192  12.873   5.218 -0.2998 -0.0977 -0.2360
19440W        W35574   3.725  11.067  16.182 -0.1263 -0.2555  0.0170
19441W        W35575   8.714   2.550   5.945 -0.0332  0.1125 -0.1744
19442W        W35576  14.077  10.543   2.370 -0.0640  0.0171  0.0856
19443W        W35577   0.593  16.703   3.870  0.2487  0.0346 -0.0537
19444W        W35578  17.998   8.570  13.636 -0.0239  0.2839 -0.1102
19445W        W35579  13.226  12.118  14.410 -0.2094 -0.1021  0.1909
19446W        W35580   3.803   6.465  12.578 -0.0712  0.1464  0.2829
19447W        W35581   7.642   5.961   0.616  0.2579  0.1218  0.1210
19448W        W35582  13.999   6.507  12.549  0.1587 -0.0664 -0.0327
19449W        W35583  14.389  12.936   1.658 -0.0607  0.2416  0.1299
19450W        W35584   5.040   7.809  13.540  0.1858 -0.1046 -0.1345
19451W        W35585   1.877  13.860   5.226  0.3071 -0.1220 -0.2030
19452W        W35586  15.699   8.446  12.639  0.1157  0.3127  0.1122
19453W        W35587   9.261   5.055  12.724 -0.1038 -0.0618  0.3101
19454W        W35588   1.651   1.921  13.332 -0.2116  0.1011 -0.2098
19455W        W35589  14.328   2.511  15.072  0.1708 -0.1285  0.0567
19456W        W35590   4.975  12.963   3.937  0.1279  0.1319  0.0695
19457W        W35591  16.173  17.251   3.631  0.1951  0.1510 -0.0910
19458W        W35592  13.860   3.922  12.293  0.0653 -0.3114 -0.2078
19459W        W35593   0.325   0.991  12.148  0.0138 -0.0950 -0.2070
19460W        W35594   6.749   5.328   5.539 -0.2422  0.0743  0.1723
19461W        W35595  18.061  14.900   3.445  0.0329  0.0575 -0.3527
19462W        W35596  15.511  17.219   1.982 -0.2329 -0.0517  0.2196
19463W        W35597   7.416  14.632  13.671  0.3541 -0.0481  0.0892
19464W        W35598   9.795   0.422  16.333  0.2916  0.1540 -0.0624
19465W        W35599  16.328   2.917   1.247 -0.0441  0.2553  0.0543
19466W        W35600   5.506  13.297  12.348 -0.0546  0.0533 -0.0494
19467W        W35601   1.063   4.108   4.683  0.0684  0.0428  0.0550
19468W        W35602   6.217   4.085  15.390  0.0659  0.0606  0.2823
19469W        W35603  11.468   2.042  13.787  0.1774  0.3738 -0.2044
19470W        W35604   3.323  11.890  16.201 -0.0018  0.1631  0.3378
19471W        W35605   3.630  14.026   6.180  0.1215  0.2519  0.1664
19472W        W35606  10.082   5.100   4.368 -0.1470 -0.0638  0.3953
19473W        W35607   0.173  16.218   3.307  0.0378  0.3040 -0.0909
19474W        W35608  14.328   9.708  15.536  0.0335 -0.1859 -0.0044
19475W        W35609  15.377  10.302  15.777 -0.1446  0.4397  0.2351
19476W        W35610  15.741   0.053   1.819 -0.1286 -0.0673  0.1624
19477W        W35611   5.653   2.017   2.222  0.0676  0.2148 -0.1017
19478W        W35612  14.851  11.374  16.221 -0.1497 -0.0416 -0.2512
19479W        W35613   6.423   4.520  15.062  0.0174  0.3407 -0.0616
19480W        W35614   8.032  10.030  14.268  0.0253  0.2691 -0.0499
19481W        W35615  12.551  14.925   4.463 -0.0177 -0.0346 -0.1089
19482W        W35616  14.389   5.307  11.467  0.1392 -0.0086  0.1863
19483W        W35617  13.872   1.442  13.942 -0.0054 -0.0212  0.0476
19484W        W35618  18.027  11.774  12.952  0.3470 -0.0964 -0.1028
19485W        W35619   3.236   7.626  15.649  0.0925 -0.0007  0.2402
19486W        W35620   9.736   7.671  13.626 -0.2000 -0.1336  0.0892
19487W        W35621  11.373  10.076  11.659 -0.0539 -0.2083  0.4450
19488W        W35622  16.635  10.880   1.097 -0.1416  0.1270  0.0791
19489W        W35623   9.860  13.424  11.554 -0.1349  0.1309  0.2472
19490W        W35624   4.095   3.592   2.098  0.2341 -0.0778 -0.1756
19491W        W35625   1.923  17.533  14.100  0.1108  0.0189  0.1001
19492W        W35626   8.540   3.463   3.725 -0.2162 -0.2107  0.3370
19493W        W35627  11.932  11.619  14.024 -0.0124  0.0881  0.1964
19494W        W35628   9.136   6.792   3.967 -0.3324  0.0793 -0.1038
19495W        W35629   3.943   1.510   4.831 -0.2260  0.0599  0.0045
19496W        W35630  16.651   0.266   1.381  0.0803 -0.0172  0.0047
19497W        W35631  11.839   7.534  16.343  0.1220 -0.2731 -0.0470
19498W        W35632   6.682  17.861   0.783 -0.1521  0.1232  0.1247
19499W        W35633   6.838  10.287  13.282 -0.1562  0.0552 -0.0344
19500W        W35634  10.332  14.785   1.298 -0.4552 -0.3245 -0.1719
19501W        W35635  14.773   7.776   0.213 -0.2488 -0.0620  0.0864
19502W        W35636  16.707   6.658  12.801  0.0942 -0.0451  0.0540
19503W        W35637   2.739  13.265   1.321  0.2226  0.0329 -0.0978
19504W        W35638   3.005  10.626   3.623  0.0354  0.1191  0.0233
19505W        W35639   6.972  16.177   2.240 -0.1212 -0.1778 -0.3078
19506W        W35640  11.268   0.922  15.149  0.0461  0.1612 -0.1751
19507W        W35641  17.181   2.745  11.617 -0.4259  0.0642  0.0193
19508W        W35642  13.835   2.547  16.132 -0.0256 -0.1928 -0.1253
19509W        W35643   9.954  15.564   3.929 -0.1918 -0.1275  0.3267
19510W        W35644   5.886  12.086  11.563 -0.2925 -0.1575  0.0917
19511W        W35645   8.609   4.416   1.550  0.0638 -0.2028  0.0783
19512W        W35646   7.113  17.405   3.528  0.1217  0.0655 -0.1138
19513W        W35647   8.669   0.129  14.006  0.2169  0.0393 -0.0931
19514W        W35648   6.465   1.965   1.241  0.0555 -0.0814 -0.2023
19515W        W35649  13.554  15.484  14.525  0.1167 -0.0295 -0.1149
19516W        W35650  15.737   3.763   2.281  0.0674 -0.2216  0.2065
19517W        W35651   7.200  10.161  12.975 -0.0835  0.1683 -0.0049
19518W        W35652   8.763   3.939  14.399 -0.2990  0.2340 -0.2756
19519W        W35653   1.088  16.487   4.684 -0.0647  0.1043  0.4194
19520W        W35654   9.598   5.154   2.207  0.0127  0.1867 -0.0816
19521W        W35655   6.636   6.840   2.614  0.3276  0.3523  0.3097
19522W        W35656   8.080   0.045  12.198 -0.2199  0.0131 -0.0038
19523W        W35657  14.047   3.656   2.109  0.0008  0.0342  0.1350
19524W        W35658  16.958   1.442   4.012  0.1349  0.0353  0.2457
19525W        W35659   5.490  12.804   1.308  0.1839  0.0189 -0.2436
19526W        W35660  14.790  12.865  13.938 -0.1450 -0.0496 -0.0718
19527W        W35661   1.433   1.844   0.466  0.0055 -0.1295 -0.2657
19528W        W35662  12.017   2.913   0.163  0.0485  0.0857  0.0968
19529W        W35663  15.748  17.787   4.070  0.0865 -0.0240  0.1058
19530W        W35664   6.889   2.752   2.251 -0.1665  0.2187 -0.1451
19531W        W35665  12.285   4.191  11.602  0.2335 -0.1708 -0.1812
19532W        W35666   4.553   0.093  12.976 -0.1944 -0.2030 -0.0165
19533W        W35667  15.492  13.971   2.637 -0.3620 -0.0194  0.1191
19534W        W35668   5.303   1.229   3.572  0.0323  0.1727 -0.0713
19535W        W35669  15.069  13.856  13.089 -0.1491  0.0689 -0.0067
19536W        W35670  15.483   1.026  13.314 -0.3757 -0.1531  0.0602
19537W        W35671  10.558  14.084   3.947 -0.0234  0.2505 -0.2163
19538W        W35672   2.631   1.307   4.429  0.2627 -0.3476  0.0210
19539W        W35673  14.634   1.771  15.316 -0.0824 -0.0062 -0.1375
19540W        W35674   2.258   0.170   2.966  0.1490  0.0691  0.0001
19541W        W35675  14.455  11.806   1.466 -0.0307 -0.3872  0.2517
19542W        W35676  13.025   5.831  14.059 -0.0950 -0.2328  0.1151
19543W        W35677  15.869   3.166   4.760  0.0005  0.0403  0.0488
19544W        W35678   4.964  14.050  14.250  0.2912 -0.1615 -0.1975
19545W        W35679  11.620  14.056   5.450  0.4123 -0.2012  0.3562
19546W        W35680   6.165  10.426   2.471 -0.2883 -0.0907 -0.3727
19547W        W35681  15.317  14.502   3.534 -0.0720 -0.0912 -0.1670
19548W        W35682  15.839   3.728   4.539  0.1885 -0.0535 -0.0847
19549W        W35683  13.779   9.118  12.363 -0.2899 -0.1490  0.0767
19550W        W35684   5.576   5.442   4.554 -0.0586  0.0345 -0.0520
19551W        W35685   0.905  14.328   2.628 -0.1456 -0.1006 -0.2386
19552W        W35686   7.858   7.763   2.526  0.1063 -0.0934  0.2566
19553W        W35687   2.062   7.431   2.455  0.0881  0.1208  0.0226
19554W        W35688  11.707  16.158   4.517 -0.0981  0.1674  0.0425
19555W        W35689   4.626  12.821  16.480  0.2827  0.3119 -0.0714
19556W        W35690  12.957   1.184  12.576 -0.2150 -0.0328 -0.1086
19557W        W35691  17.710   1.241   0.163  0.1990 -0.3000 -0.2102
19558W        W35692  10.848   7.818  10.514 -0.0280 -0.0271  0.1714
19559W        W35693  11.900   0.373   5.316 -0.1867 -0.0313  0.0683
19560W        W35694   2.304   6.876   2.519 -0.3241  0.0091 -0.0436
19561W        W35695   2.334  14.071  16.107 -0.0760  0.2654 -0.1001
19562W        W35696  15.434   8.410   2.610  0.0215 -0.1021  0.1563
19563W        W35697   5.513   2.353  16.349  0.0341 -0.1245 -0.1503
19564W        W35698   8.094   0.776  14.554  0.2526 -0.0922 -0.0572
19565W        W35699   2.503   4.862   4.103  0.0309 -0.2144  0.0425
19566W        W35700  14.182  15.478   1.723 -0.2493  0.1952  0.1642
19567W        W35701  10.876   2.600   2.735 -0.2552 -0.0853  0.2606
19568W        W35702   0.269   1.434   1.171 -0.2493  0.2450 -0.2088
19569W        W35703   2.740  13.865   3.940  0.4032 -0.1163  0.0898
19570W        W35704   9.084   7.532   3.723 -0.1806 -0.1262  0.2486
19571W        W35705  13.851  16.969   5.326  0.3317  0.0846  0.0383
19572W        W35706   3.339  13.812   0.379  0.1626  0.0127 -0.3525
19573W        W35707   2.077  13.986   1.197  0.2212 -0.2854  0.0452
19574W        W35708  12.212  17.396  15.865  0.0579 -0.1866 -0.1324
19575W        W35709  13.955  16.578   3.732 -0.0214  0.5328  0.0452
19576W        W35710   8.159  11.167  12.744  0.0758  0.1530  0.1481
19577W        W35711   4.364  10.917  10.559 -0.2732  0.1127  0.1084
19578W        W35712   3.236   3.431  13.199  0.2191 -0.0706  0.2408
19579W        W35713  16.015  17.858  16.340 -0.0476  0.1744 -0.0212
19580W        W35714   4.282   7.707   2.347  0.2437 -0.0386  0.0713
19581W        W35715  15.353  13.086  12.872  0.1966  0.0400 -0.1275
19582W        W35716  17.238   6.834  11.290  0.1851  0.0568  0.1047
19583W        W35717   7.649  17.967   3.053  0.0867 -0.0588  0.0484
19584W        W35718   0.602   1.049  12.617  0.0186  0.3493 -0.0330
19585W        W35719   4.439  16.413   0.110 -0.0860 -0.0208  0.2174
19586W        W35720  11.900  17.554   5.622  0.1459 -0.1934  0.0723
19587W        W35721   2.713   7.762  14.904  0.2397 -0.3259 -0.0710
19588W        W35722  12.111   2.235  11.940 -0.0163  0.1350  0.1874
19589W        W35723   4.946  10.766   4.863 -0.0439 -0.3406  0.2015
19590W        W35724  11.429   6.642   4.299  0.1824 -0.0227 -0.0071
19591W        W35725  12.010   8.440  16.311 -0.0545 -0.2054 -0.3146
19592W        W35726  12.473   1.329  13.921 -0.0295 -0.0040 -0.2798
19593W        W35727   0.431  15.598  12.428 -0.1051 -0.0778 -0.2502
19594W        W35728   7.642   6.861   2.782 -0.2290  0.0717 -0.3207
19595W        W35729   9.715  17.843   5.988  0.1032 -0.3675 -0.2088
19596W        W35730   3.739   1.731   5.199  0.0642 -0.0081  0.0643
19597W        W35731  13.838  14.717   1.128 -0.1353  0.3400  0.0071
19598W        W35732  15.822   8.795  11.678  0.0407 -0.0243 -0.0385
19599W        W35733   8.549   6.783   5.828  0.0470  0.2252  0.0599
19600W        W35734  11.972   4.068  15.194  0.2293  0.3329 -0.1672
19601W        W35735  14.413   1.345   0.484  0.0245 -0.0138  0.0340
19602W        W35736  10.812  15.967   6.716 -0.0884  0.5780 -0.0546
19603W        W35737  17.436  15.622  16.494  0.2805 -0.0869 -0.3939
19604W        W35738  17.460   7.739   0.044  0.4285 -0.3006  0.3040
19605W        W35739   1.474  17.086  11.960  0.2403  0.3968  0.1041
19606W        W35740   4.935   1.522  12.088 -0.0507  0.1115 -0.0312
19607W        W35741  16.698   7.303   2.452  0.2522  0.1456 -0.0269
19608W        W35742   2.739  16.511   1.521 -0.2782  0.1931 -0.1348
19609W        W35743   8.423   2.018   4.294  0.0391  0.0057  0.1913
19610W        W35744   3.931  17.574  15.674  0.0482 -0.1436 -0.3390
19611W        W35745  15.552   4.563   3.415 -0.0643  0.0168 -0.1859
19612W        W35746  17.385   1.805   1.796 -0.0128  0.1981 -0.0016
19613W        W35747   1.493  10.642   4.955 -0.3198 -0.0359 -0.2631
19614W        W35748   8.841  13.354   5.533  0.1035 -0.0284 -0.2252
19615W        W35749  14.987   8.823  14.951  0.2116 -0.0616  0.1038
19616W        W35750   8.048   7.511   3.443  0.2654 -0.0785 -0.0204
19617W        W35751  14.264  11.097   5.071  0.0768  0.1105  0.1774
19618W        W35752  12.182   8.124  11.884  0.0362  0.1349 -0.3682
19619W        W35753  12.091  11.235   0.648  0.0207  0.2815  0.1140
19620W        W35754   7.390   3.706   6.162 -0.0817 -0.2105 -0.0859
19621W        W35755  17.119   6.903  14.052  0.1722  0.2934 -0.1242
19622W        W35756   5.497  17.493  13.929  0.4065  0.2585  0.0405
19623W        W35757  16.065   5.112   1.892  0.3813 -0.0959 -0.1738
19624W        W35758  13.909   4.689   1.196 -0.0473 -0.1312  0.2280
19625W        W35759   7.685  15.861   3.409  0.0132  0.1352 -0.1011
19626W        W35760  15.202  11.468   5.091 -0.1029 -0.3922  0.0958
19627W        W35761  14.450  16.569   0.192 -0.1901 -0.0732  0.1996
19628W        W35762   8.179  13.613   3.365  0.1654 -0.1356 -0.3319
19629W        W35763  10.947  14.247  15.024  0.0389 -0.2708 -0.0071
19630W        W35764   3.455   4.061  13.894 -0.0953  0.0861  0.2115
19631W        W35765  18.155   4.514   2.262  0.2480 -0.2815 -0.0179
19632W        W35766   9.225  10.961  16.391 -0.1450  0.0256 -0.0092
19633W        W35767  11.767  15.009  11.945  0.2212 -0.1022 -0.2031
19634W        W35768   5.955   3.911   1.183  0.0817 -0.0791 -0.2154
19635W        W35769   7.227   2.674   4.769 -0.2435  0.0044  0.1484
19636W        W35770   5.298  14.563  12.599 -0.0086 -0.1788 -0.0404
19637W        W35771  18.146   8.287   1.026 -0.2617  0.0893  0.0851
19638W        W35772  15.288   5.244  13.007  0.2790 -0.0331  0.2800
19639W        W35773   0.924  16.711   4.269  0.0497 -0.3417 -0.0349
19640W        W35774   4.345   8.473   4.888  0.1748  0.0915 -0.0730
19641W        W35775  10.742  10.668  12.527  0.0408 -0.0623 -0.0335
19642W        W35776   8.848  16.169  13.003  0.3394 -0.1495 -0.3200
19643W        W35777   1.650  11.617  15.153 -0.2346  0.2200 -0.2478
19644W        W35778   0.745  11.981   0.787 -0.1954 -0.2680 -0.1139
19645W        W35779  16.382   0.055   5.205 -0.1201 -0.0251  0.0459
19646W        W35780   3.365   3.189  15.467  0.4116 -0.0133  0.0596
19647W        W35781   4.507   4.119   4.036 -0.0328  0.3584  0.0077
19648W        W35782   5.068  11.924  15.033  0.1663  0.1326  0.0217
19649W        W35783   7.220  17.751  14.307 -0.1307 -0.1518 -0.0187
19650W        W35784   7.921   5.789  10.182 -0.0956  0.2476 -0.0890
19651W        W35785   3.709   3.886  15.855  0.0819  0.2163 -0.2042
19652W        W35786  17.982  11.047   3.532  0.2786 -0.1354 -0.1694
19653W        W35787   4.814   6.198   4.905  0.0195  0.1394 -0.2452
19654W        W35788  14.446  12.672   0.823 -0.3452 -0.3697  0.0056
19655W        W35789   5.777  11.436   0.156 -0.2449  0.1288  0.2529
19656W        W35790   8.818  11.644  15.679 -0.0980  0.0453  0.0619
19657W        W35791  12.890  14.671  16.365  0.1927  0.1269 -0.0235
19658W        W35792   2.599  14.608  11.915 -0.1082 -0.0232 -0.0783
19659W        W35793   9.674   9.916   1.272  0.0820 -0.0633  0.3490
19660W        W35794  11.586  12.091  12.744 -0.2670 -0.0108  0.0776
19661W        W35795   7.911  11.445  13.693  0.1115 -0.2430  0.1159
19662W        W35796   3.450   9.929  15.388  0.2198 -0.2014  0.0184
19663W        W35797  16.695   0.140   1.933 -0.3623  0.0919 -0.2383
19664W        W35798  11.923   2.190  16.111  0.0920 -0.2586  0.3234
19665W        W35799  16.069   3.449   0.195  0.0004 -0.2239 -0.5264
19666W        W35800  15.322  10.955   4.942 -0.0774  0.0759  0.3032
19667W        W35801   5.550  13.687  16.206  0.2966 -0.0353 -0.1372
19668W        W35802   5.487   7.572  15.382  0.0500  0.2594  0.3020
19669W        W35803   7.896  17.861  14.547  0.3354 -0.0543  0.0035
19670W        W35804   3.558  15.294   0.404  0.1570  0.0419  0.0200
19671W        W35805   4.046   7.312  14.960  0.1259  0.1183  0.0128
19672W        W35806   4.320   6.776  14.964 -0.1513 -0.1707  0.2668
19673W        W35807  10.822  16.135  14.446 -0.1908 -0.0757  0.0170
19674W        W35808  15.877   6.903   5.408 -0.0593  0.0538  0.1456
19675W        W35809   9.682  16.684  15.328  0.3598  0.2751  0.2108
19676W        W35810   7.761   0.687  13.632  0.3771 -0.3195  0.1814
19677W        W35811  10.170  10.257   1.369  0.4211  0.1407 -0.0092
19678W        W35812   7.615   4.655   2.547 -0.1999 -0.3653 -0.0710
19679W        W35813  17.749   1.365  15.144 -0.1748  0.1954  0.1177
19680W        W35814  16.844   0.208  15.850 -0.5279 -0.0719 -0.0632
19681W        W35815   2.236   0.760  14.308 -0.1574  0.3561  0.0785
19682W        W35816   9.863  14.194   0.113  0.1119  0.1421  0.0449
19683W        W35817   2.663   5.654  15.549  0.2603  0.2812  0.5571
19684W        W35818   8.112   6.278   5.118  0.2451  0.1414  0.2578
19685W        W35819  10.991  14.109  13.272  0.0569 -0.1086  0.1558
19686W        W35820  13.178  11.512   4.826  0.2465 -0.1199  0.2577
19687W        W35821  16.862   3.674  11.605 -0.0036  0.3831 -0.0224
19688W        W35822  18.063  15.610   4.466  0.0941  0.1528 -0.0644
19689W        W35823   0.439  14.476  12.782  0.0012  0.0991  0.0286
19690W        W35824   4.991   4.746  15.055 -0.0564  0.0658  0.1672
19691W        W35825  14.977   1.131   1.089 -0.0379  0.0118  0.0910
19692W        W35826   8.428   6.048  13.575 -0.0103 -0.0839  0.0393
19693W        W35827   2.496  15.848   5.900 -0.3106 -0.5256  0.0508
19694W        W35828   7.134   6.215  11.841  0.2339 -0.0797 -0.0078
19695W        W35829   9.717   5.124   1.144  0.1333  0.1043  0.2516
19696W        W35830   9.063   7.217   4.185  0.0074  0.1504  0.5140
19697W        W35831   7.606   8.207  14.475 -0.1292  0.0652  0.1780
19698W        W35832   3.511   4.515  15.176  0.1742  0.1633 -0.3673
19699W        W35833   5.947   1.531  16.447 -0.0288 -0.0825 -0.1980
19700W        W35834  17.924   4.241   1.625  0.2987  0.1018 -0.0314
19701W        W35835   7.709  13.846   0.428 -0.0517  0.3606  0.2243
19702W        W35836  14.746  14.171  12.767 -0.2245 -0.1758  0.1700
19703W        W35837   5.839   9.468  12.013 -0.0584  0.0280 -0.1900
19704W        W35838   5.520  18.090   2.242  0.2984 -0.2175  0.0181
19705W        W35839   8.550   9.293  10.600  0.0409  0.1155  0.4818
19706W        W35840   8.568   3.268  15.105  0.0642 -0.0766 -0.0580
19707W        W35841   3.976  14.421   0.255  0.0215 -0.0345  0.0161
19708W        W35842   4.743   8.058  14.745  0.1919  0.0110 -0.2363
19709W        W35843  16.555  11.779  12.546  0.0028  0.0602  0.2211
19710W        W35844  12.168   3.999   2.737  0.2289  0.1068  0.2664
19711W        W35845  10.982   9.746  10.811  0.2620 -0.1776  0.0460
19712W        W35846   7.444  15.406  12.636 -0.0969 -0.0195  0.2409
19713W        W35847   3.782   9.980   3.983  0.0002  0.2974 -0.2575
19714W        W35848   0.341  15.373   5.999  0.1086 -0.1893 -0.0881
19715W        W35849  14.924  16.705  15.108  0.0861 -0.1243  0.2168
19716W        W35850  12.489   3.781  12.481  0.0266  0.0873  0.1220
19717W        W35851  11.875  15.701   0.216 -0.0178  0.1519  0.2217
19718W        W35852   9.530   5.569   1.355 -0.0139  0.1719  0.0046
19719W        W35853   0.720   9.511  13.337  0.1388 -0.0189 -0.3488
19720W        W35854  17.651  12.199  16.160 -0.3750 -0.3667  0.0638
19721W        W35855  17.944   4.805   4.301 -0.0554  0.2323 -0.0315
19722W        W35856  13.766   9.482   4.053  0.3834  0.2303 -0.2897
19723W        W35857   8.048  15.164   4.967 -0.2107  0.0452  0.0731
19724W        W35858   9.666   3.650  14.611 -0.0720  0.1132  0.1374
19725W        W35859   8.016  13.676  13.428  0.1741 -0.1996 -0.1451
19726W        W35860  17.458  10.571   2.733  0.2296  0.0278 -0.4821
19727W        W35861  12.069  12.795   6.000  0.0140 -0.1756  0.0927
19728W        W35862   8.013   7.334  15.934  0.1581 -0.3020  0.3561
19729W        W35863   7.816  10.787   1.108 -0.3233  0.5652  0.2041
19730W        W35864  10.790   4.413   3.905  0.0539 -0.0537  0.0918
19731W        W35865   4.015   5.451  15.321 -0.2612 -0.0883 -0.0083
19732W        W35866  17.150   9.532   4.520 -0.0045  0.4476 -0.3399
19733W        W35867  10.755   4.661   3.048  0.0789  0.0525 -0.1990
19734W        W35868   2.144   7.179   0.238 -0.3221 -0.0732  0.1075
19735W        W35869   1.519   3.398  14.073 -0.1501 -0.0187  0.0733
19736W        W35870   5.482   2.847  12.065 -0.3728  0.0353  0.1646
19737W        W35871   8.432   6.586  13.335 -0.0870  0.2548 -0.3889
19738W        W35872   6.268  12.914  13.032 -0.0412 -0.0191  0.0226
19739W        W35873  16.083   9.931  16.270 -0.1048 -0.2230  0.0004
19740W        W35874  12.678  16.031   2.399  0.0240 -0.2971  0.1583
19741W        W35875   3.873   8.442  12.405 -0.0311  0.1668 -0.0333
19742W        W35876  17.647   2.383  16.326  0.0806  0.1048 -0.0730
19743W        W35877   3.414  17.061  11.954  0.0955 -0.3095  0.0412
19744W        W35878  14.601  15.642  14.613 -0.1867  0.3555  0.2654
19745W        W35879   4.765   5.813  13.176 -0.0367  0.2336 -0.2537
19746W        W35880  16.195   1.237   1.223  0.2163  0.2801 -0.1112
19747W        W35881   1.615   5.440   4.931 -0.0032 -0.0004  0.0486
19748W        W35882  17.933  11.339  16.373  0.1168 -0.0560  0.2520
19749W        W35883  15.708  10.531   0.083  0.2415  0.2340 -0.3193
19750W        W35884   0.363  12.479   5.301  0.2388 -0.0152  0.0458
19751W        W35885   0.837  10.235   0.706 -0.2223  0.1794 -0.1814
19752W        W35886  12.221  10.605  15.420 -0.2483 -0.2283  0.0070
19753W        W35887   4.382   1.264   4.992 -0.0079  0.1239 -0.5387
19754W        W35888  12.033  14.118  14.387 -0.1058 -0.0699  0.2362
19755W        W35889  13.721   1.807  12.920  0.1691 -0.0059 -0.0444
19756W        W35890   3.054  14.293   3.870  0.0345  0.1161 -0.0296
19757W        W35891   9.571  13.847  12.325 -0.1574 -0.1950  0.0617
19758W        W35892   9.721   6.663  16.502  0.3178 -0.0550 -0.0298
19759W        W35893  17.739   2.039   4.326 -0.0679 -0.3269 -0.0375
19760W        W35894  13.512   8.953   0.086  0.0029  0.0872 -0.0628
19761W        W35895   7.651   7.402  15.625 -0.0243 -0.1267 -0.0359
19762W        W35896  13.382  15.393   5.872  0.1553 -0.1033 -0.2375
19763W        W35897   5.046   4.070  13.934  0.0441 -0.0624  0.2125
19764W        W35898   2.730  14.611  12.415  0.3157 -0.0632 -0.0701
19765W        W35899  10.840  11.910   1.457  0.0375 -0.1285  0.0870
19766W        W35900  13.237   3.302  13.505 -0.1207  0.1764  0.0384
19767W        W35901   8.090  17.768   3.408  0.2985 -0.0521 -0.2453
19768W        W35902   7.239  12.238   1.338 -0.6100 -0.0603 -0.0682
19769W        W35903  15.557  13.772  10.801 -0.0512  0.1356 -0.0636
19770W        W35904  14.501  18.013   3.925 -0.1816  0.2768  0.1035
19771W        W35905   6.233  16.943  13.753 -0.0481  0.2072  0.2328
19772W        W35906   2.017   6.931   0.655 -0.1768  0.0254 -0.2716
19773W        W35907  12.161  12.671  14.771  0.0297 -0.2088 -0.4151
19774W        W35908   7.867  14.178   3.775 -0.2224  0.2291  0.2874
19775W        W35909  16.654   3.326  13.349 -0.0109  0.1783 -0.4539
19776W        W35910  12.780  11.055  11.851 -0.0452 -0.0717  0.1241
19777W        W35911  17.778  10.940   2.793  0.0738  0.0372 -0.0015
19778W        W35912   7.366   4.259   2.275  0.0903  0.3725  0.0055
19779W        W35913  14.400  16.854   3.604  0.0044 -0.1118  0.2948
19780W        W35914   9.934  12.101  10.613 -0.4859  0.0958  0.0077
19781W        W35915  10.102   0.887   0.079  0.2050  0.0883 -0.0110
19782W        W35916   7.266  12.925  15.931 -0.1542  0.3024 -0.0674
19783W        W35917   2.577  16.643   0.261  0.1030  0.2211  0.0117
19784W        W35918  15.126   6.972   4.308  0.0045  0.0701  0.4471
19785W        W35919  14.485   4.396   2.033 -0.1280  0.1309  0.1618
19786W        W35920  12.308  14.650  13.535  0.2822  0.1287 -0.1008
19787W        W35921  17.396  18.140   5.128 -0.0915  0.0105 -0.4425
19788W        W35922  15.810  12.475   1.035 -0.0137  0.1456  0.3234
19789W        W35923  13.465  11.336  12.372 -0.2637 -0.1078  0.1351
19790W        W35924   2.907  10.894  12.932  0.0894  0.2503  0.0019
19791W        W35925   6.627   3.155   2.236  0.0021  0.0318 -0.2837
19792W        W35926   9.904   6.372   5.993  0.2760  0.4057  0.2528
19793W        W35927  15.294  15.732  13.709 -0.4084 -0.1423 -0.0893
19794W        W35928   1.179  11.598   6.115 -0.0159  0.2929  0.0745
19795W        W35929   0.311   3.956   2.762 -0.1018  0.1845  0.1222
19796W        W35930   5.610   4.205  14.666 -0.1903 -0.1950  0.1418
19797W        W35931   0.207   5.812   1.607  0.0749 -0.1380  0.3600
19798W        W35932  11.713  13.888  11.967 -0.1049 -0.2196  0.2277
19799W        W35933   8.995   6.511  11.891  0.3056  0.0361  0.0464
19800W        W35934  12.899   5.048  14.033  0.0884 -0.2422 -0.0905
19801W        W35935   6.285   6.427  13.584 -0.1246 -0.2486 -0.0344
19802W        W35936   0.953  16.629  12.422 -0.2022  0.1744 -0.0383
19803W        W35937   1.192   4.894  13.685  0.2570 -0.0508  0.0750
19804W        W35938  17.360  16.231   3.179  0.3102  0.0044 -0.1437
19805W        W35939  15.151   7.059   3.423  0.0711 -0.2097  0.2480
19806W        W35940  14.995  13.725  15.611  0.0042 -0.2099  0.0050
19807W        W35941   6.109   1.786   0.383  0.0503 -0.1063 -0.0548
19808W        W35942  16.786   3.533  15.341 -0.0169 -0.0317  0.0483
19809W        W35943  15.489   9.443  14.969  0.0305  0.0128 -0.1631
19810W        W35944   4.940   2.226  12.501  0.1224  0.4068  0.0019
19811W        W35945   7.184  12.481  16.212 -0.1175 -0.1379  0.4548
19812W        W35946   0.479   4.237  13.869  0.0337  0.0162 -0.0166
19813W        W35947  13.938   7.726  15.939  0.0944 -0.2302  0.4805
19814W        W35948   1.781   8.795   5.524  0.0836  0.0955  0.3412
19815W        W35949   3.884   9.492  13.040 -0.2630  0.0436 -0.0482
19816W        W35950   0.101   0.559   2.710 -0.2344  0.0586 -0.1069
19817W        W35951  15.591   6.270   2.019  0.0597 -0.3202 -0.1348
19818W        W35952   9.168   9.440  16.140  0.0357  0.1174  0.0535
19819W        W35953   8.414  12.838  14.050 -0.0473 -0.3794 -0.1507
19820W        W35954   6.677  11.446   0.431 -0.1471  0.1537 -0.0075
19821W        W35955  15.352  12.181   1.147 -0.2500 -0.3427 -0.0194
19822W        W35956  16.646  17.106  14.577  0.1425 -0.3649 -0.0647
19823W        W35957  15.799  10.841   0.459  0.1359 -0.0912 -0.0762
19824W        W35958   9.052   4.081  12.979 -0.2003  0.1842 -0.0114
19825W        W35959   6.563  12.375  15.222 -0.0696  0.0494 -0.1949
19826W        W35960   9.706  16.372   4.175 -0.0728 -0.2569 -0.0318
19827W        W35961   7.795  17.365   1.874 -0.0614 -0.0522 -0.2189
19828W        W35962   8.792   0.663  16.266  0.0141  0.2707  0.3324
19829W        W35963   7.498   4.257  14.352  0.0016  0.0698 -0.1131
19830W        W35964   4.788  14.371  15.214 -0.0078 -0.1567 -0.2090
19831W        W35965  11.013   8.431   0.401 -0.1051 -0.2293 -0.0515
19832W        W35966   3.893   2.237  14.596  0.1759  0.0936  0.1266
19833W        W35967   0.084   5.110   5.264 -0.1269  0.0120  0.0589
19834W        W35968   8.625   3.491   5.077  0.1113 -0.0996  0.3897
19835W        W35969   6.800  16.220   2.758 -0.0843 -0.0363  0.2321
19836W        W35970   9.449   1.913  14.317 -0.2721 -0.0426 -0.2042
19837W        W35971   3.268  17.076   4.948  0.1126  0.3630  0.4456
19838W        W35972  17.532   2.635  12.010 -0.2658 -0.2155  0.0165
19839W        W35973   0.281   7.418  14.417 -0.2317 -0.1626 -0.0612
19840W        W35974  17.321  10.541  16.004 -0.2442  0.0315 -0.1689
19841W        W35975  13.105  14.276   3.115 -0.1621 -0.1328  0.1497
19842W        W35976  10.935  13.244   6.312 -0.1630  0.2381 -0.0071
19843W        W35977  11.493  11.321  11.921 -0.2479 -0.0706  0.1768
19844W        W35978   0.397  13.149   4.627 -0.0777 -0.0316 -0.2326
19845W        W35979   8.686   2.932   1.135  0.0171 -0.0596 -0.0184
19846W        W35980   5.186  15.111   2.976  0.0701 -0.0785  0.2363
19847W        W35981   9.604   2.663  16.513  0.0423 -0.0883  0.1404
19848W        W35982   7.212   5.952  12.297  0.0573  0.1042 -0.0956
19849W        W35983  11.693   9.675   0.518 -0.2565 -0.0620  0.1188
19850W        W35984   3.843  16.498   3.288  0.1400  0.5485 -0.1802
19851W        W35985   0.555  17.837   4.997 -0.0968  0.1526 -0.2873
19852W        W35986  17.117   0.317   4.898  0.2405  0.1560 -0.1253
19853W        W35987   9.281   7.506   5.692  0.0399  0.1242 -0.2824
19854W        W35988   2.173  17.520   2.224 -0.0254  0.0691  0.2510
19855W        W35989  13.581   8.086   4.087  0.0806 -0.1701  0.0417
19856W        W35990   7.431   9.243  14.060  0.2097  0.0203 -0.0060
19857W        W35991   1.112  16.663  11.838  0.1345 -0.0515  0.0836
19858W        W35992  14.424  13.766   0.093  0.3217 -0.0728  0.3015
19859W        W35993   2.777   7.083   2.773 -0.1194 -0.1116  0.0096
19860W        W35994   3.745  12.898   0.966 -0.1041 -0.5059 -0.2756
19861W        W35995   0.820   1.946  14.365  0.0596 -0.2592 -0.1360
19862W        W35996   9.921  15.072  13.949  0.1303  0.1769 -0.3076
19863W        W35997  14.635   3.312  15.510  0.1507  0.0222 -0.3093
19864W        W35998  11.671   5.433  15.467 -0.2330 -0.2163  0.2788
19865W        W35999   0.303   7.749   4.428  0.0755 -0.0089 -0.1591
19866W        W36000  17.119   9.534   2.134  0.1095  0.1530 -0.2945
19867W        W36001   4.176  16.619   4.405  0.0222 -0.0483 -0.0884
19868W        W36002   3.742  11.818  14.612  0.1861 -0.2535 -0.0804
19869W        W36003  12.020   3.162   3.935  0.1463 -0.0210  0.1039
19870W        W36004   6.371   1.552  14.734  0.1807 -0.0188 -0.1776
19871W        W36005   2.692   8.712   5.584  0.0316  0.0854 -0.1738
19872W        W36006   9.452   1.722   5.308  0.0459 -0.2454 -0.1720
19873W        W36007   4.498  11.993   5.332 -0.2339  0.0810 -0.0477
19874W        W36008   5.752   8.415  13.307 -0.1132 -0.0986  0.1753
19875W        W36009  16.998   8.406   0.286 -0.0407  0.2100  0.0516
19876W        W36010   9.614   8.382  12.558 -0.1844  0.2928 -0.1716
19877W        W36011  16.870   1.133   4.568 -0.0360  0.2207 -0.4494
19878W        W36012   7.524   9.492  15.851  0.0350  0.1843 -0.2457
19879W        W36013  16.239  17.181   5.351  0.5831  0.1428 -0.1851
19880W        W36014   3.327  15.966   4.484 -0.0797  0.1748 -0.0383
19881W        W36015  15.518   7.282  15.975  0.2829 -0.1540 -0.0768
19882W        W36016  13.397  15.957   3.909  0.1849 -0.4296 -0.1984
19883W        W36017  13.666   6.217   3.524  0.1589  0.3559  0.0801
19884W        W36018   0.711   5.757  16.075  0.0357  0.2030 -0.0945
19885W        W36019  14.933   3.222  12.563 -0.0035  0.0070  0.3171
19886W        W36020  10.557   5.008  14.831  0.3481  0.4243 -0.0484
19887W        W36021  14.454   3.779   4.492  0.0141 -0.1619 -0.0456
19888W        W36022  15.293   0.718  12.888  0.1955  0.0557 -0.0028
19889W        W36023  15.733   6.477   0.418 -0.1602  0.0360  0.2835
19890W        W36024   6.526   5.777  12.629 -0.0613  0.1818  0.0176
19891W        W36025  10.854   8.444  16.406  0.0316 -0.2054  0.1179
19892W        W36026  12.134   7.979   0.174  0.0611 -0.0885  0.3373
19893W        W36027   3.484   8.794  13.653  0.3105 -0.1336  0.0512
19894W        W36028  17.728   1.725   2.981  0.0622 -0.3127  0.0237
19895W        W36029  15.990   2.137  15.593  0.0497  0.1370 -0.0499
19896W        W36030  10.314   6.811  14.929  0.2905 -0.0608 -0.0307
19897W        W36031   8.575   3.937   0.382  0.0948  0.0526 -0.1363
19898W        W36032  12.094   1.333   4.757  0.2542  0.1201  0.3590
19899W        W36033   4.139   0.499   5.888  0.2708 -0.0255 -0.2584
19900W        W36034   4.218   4.974   5.990  0.0215  0.0467  0.2500
19901W        W36035  10.834  14.843  15.702  0.0239 -0.0995 -0.0527
19902W        W36036   7.410  14.160   1.517 -0.1369  0.0945  0.1245
19903W        W36037   7.053   9.019  14.414 -0.2793 -0.1030  0.0747
19904W        W36038   1.936  17.322  11.259  0.0897 -0.2038 -0.0068
19905W        W36039   2.343  15.983  13.809  0.1265 -0.1201 -0.1387
19906W        W36040   9.703  12.012   4.601  0.0850  0.2726 -0.1288
19907W        W36041  17.917   7.943   3.349  0.1963 -0.0148  0.2660
19908W        W36042   1.604  10.090  10.774  0.0461  0.0450  0.1416
19909W        W36043   8.342  10.638  11.569 -0.1943 -0.2568 -0.1888
19910W        W36044   9.608  12.648   2.352 -0.0311 -0.1056 -0.0505
19911W        W36045  15.320  12.589   3.164  0.1443 -0.0290  0.0811
19912W        W36046  13.644   0.350  13.877  0.0026  0.0495  0.2123
19913W        W36047  14.392  14.817  15.168 -0.4338 -0.0732 -0.1531
19914W        W36048  16.148   3.181   3.870 -0.1033  0.1420  0.0088
19915W        W36049   9.349  14.288   0.035  0.0159  0.0053 -0.1801
19916W        W36050   8.191   0.625  13.929  0.2000  0.0519 -0.2687
19917W        W36051   4.513   5.197  16.353 -0.1226 -0.1642 -0.2123
19918W        W36052   3.069  14.554   3.238  0.0099  0.1896  0.1433
19919W        W36053  17.456  13.179   1.652 -0.1164  0.0070 -0.0674
19920W        W36054  13.765   9.517   2.062  0.1548 -0.1020  0.0289
19921W        W36055  17.838   0.495   4.265  0.0574  0.2244 -0.1128
19922W        W36056  13.787   9.961  13.364 -0.0676 -0.1357 -0.0652
19923W        W36057  17.547   4.499  14.786  0.1068 -0.1670 -0.2463
19924W        W36058   7.178  11.635  13.212 -0.0177  0.2093 -0.1296
19925W        W36059   7.689  18.161   1.935 -0.1100  0.1076  0.0595
19926W        W36060   1.344   1.639   2.907  0.0696 -0.0357  0.0432
19927W        W36061  16.398  14.261  16.035  0.0019 -0.3961 -0.1135
19928W        W36062   4.508  13.520   4.786 -0.0459  0.0599 -0.1940
19929W        W36063  16.660   8.452  15.865  0.0165 -0.2307 -0.1016
19930W        W36064  17.447  15.061  15.804 -0.1946 -0.3089 -0.2745
19931W        W36065   1.295  17.211  12.980  0.3723  0.1789  0.0414
19932W        W36066  12.416   4.693   4.676  0.0658  0.2345  0.0649
19933W        W36067   3.126   6.947   4.812  0.0321  0.1332 -0.2386
19934W        W36068  15.509   3.842   4.158  0.2508 -0.0438  0.2271
19935W        W36069   0.830   8.446   2.554  0.1686  0.0919  0.2129
19936W        W36070  16.496  13.301   5.376 -0.0328 -0.1904 -0.4156
19937W        W36071   2.820   2.908  14.643  0.1074 -0.2172  0.1981
19938W        W36072  13.294  13.173   4.412  0.0867 -0.1320  0.1056
19939W        W36073   3.274  15.493   3.635 -0.0637  0.4797  0.2036
19940W        W36074  13.480   1.199   3.432  0.2020 -0.1756 -0.0957
19941W        W36075   5.929   0.582  16.164 -0.1308  0.2043  0.4294
19942W        W36076   9.372   8.665   3.094  0.0348 -0.0955  0.0643
19943W        W36077  12.801  15.903   0.695 -0.2954 -0.0307  0.0891
19944W        W36078  18.114   8.745  12.399 -0.1338  0.1271 -0.2684
19945W        W36079  13.547  13.789   5.211 -0.0964  0.0287 -0.3351
19946W        W36080  14.694  17.430  12.016  0.0363  0.2193  0.3880
19947W        W36081  12.469  16.154  15.710 -0.3571  0.0981 -0.0481
19948W        W36082  15.438   0.918   1.804  0.1405  0.0953 -0.1167
19949W        W36083  15.713  10.862  11.737  0.0609 -0.0891 -0.1830
19950W        W36084   3.154   4.941   1.154 -0.0992  0.2560 -0.1583
19951W        W36085  12.458  15.588  13.264 -0.3847  0.1300 -0.1310
19952W        W36086  15.370  15.404  13.361 -0.3307 -0.3482  0.1138
19953W        W36087  13.420  17.921  13.852  0.1439 -0.4361 -0.1753
19954W        W36088  14.956  10.837   4.028 -0.2313 -0.0844  0.4184
19955W        W36089   6.180   1.171   2.704 -0.1985 -0.2958  0.1740
19956W        W36090  16.055  16.752   2.428 -0.0336  0.2625  0.2580
19957W        W36091  10.279   0.196  12.339  0.0005  0.1380 -0.1280
19958W        W36092   8.914   1.652   1.840 -0.0525  0.0014  0.1791
19959W        W36093  11.685   0.196  12.794  0.0024  0.1406 -0.1260
19960W        W36094  17.030  13.721   0.252  0.1104 -0.0346 -0.0535
19961W        W36095  13.350   4.854  15.398 -0.0249  0.1854  0.0065
19962W        W36096  15.457  17.101   0.160  0.1342 -0.1112 -0.0677
19963W        W36097   5.571   7.506  12.358 -0.0505 -0.0912 -0.1659
19964W        W36098  15.347   8.580  11.904  0.0895 -0.0901  0.1162
19965W        W36099   4.054   5.398   4.634  0.0686  0.3412 -0.1391
19966W        W36100  14.437  12.185   3.123 -0.0369 -0.2554  0.1050
19967W        W36101  15.296  10.802  15.048 -0.2203 -0.0929 -0.0205
19968W        W36102  13.782   8.070   3.588 -0.3389  0.1935  0.2852
19969W        W36103  17.124   1.951  13.299 -0.1319  0.1303 -0.1510
19970W        W36104   2.828   5.222  11.140 -0.1065 -0.0368  0.2248
19971W        W36105   8.336   5.496  13.416 -0.1550  0.0148 -0.1208
19972W        W36106   9.095   3.727   5.121 -0.2287  0.2804  0.0395
19973W        W36107   5.389  16.612   4.905  0.3208  0.0495 -0.1361
19974W        W36108  10.878   8.689  13.609  0.0645  0.1256 -0.3184
19975W        W36109   8.712  17.995   5.305 -0.0413 -0.1961 -0.1145
19976W        W36110   3.748  14.771   0.512 -0.0533 -0.0216 -0.2172
19977W        W36111  14.220  12.600  13.774 -0.1523 -0.2313 -0.2382
19978W        W36112  12.978  13.151  12.259 -0.1945  0.2107 -0.1689
19979W        W36113   1.459   3.442  12.119 -0.1875  0.2280 -0.0526
19980W        W36114   8.346   3.009  12.020 -0.1355 -0.1387 -0.2899
19981W        W36115   3.752  13.774   4.865 -0.1370  0.0659  0.2618
19982W        W36116  11.258   1.903   2.489  0.0216  0.0755  0.2736
19983W        W36117  14.498   5.119  12.032 -0.2228  0.2003 -0.1951
19984W        W36118   2.418  14.365   3.821 -0.3771 -0.1347  0.0786
19985W        W36119   3.957  16.157  14.568  0.3501 -0.1259 -0.3423
19986W        W36120  13.609  13.909  16.059 -0.0688 -0.1308 -0.4154
19987W        W36121   9.091  14.755   4.043  0.1474  0.1250 -0.1327
19988W        W36122  17.336   1.233   1.743 -0.0921  0.0670  0.1213
19989W        W36123  10.654   6.460  12.736 -0.2878 -0.0810 -0.0316
19990W        W36124   5.346  13.102  15.392 -0.4254  0.2274 -0.0781
19991W        W36125  11.707   0.339  14.121  0.1522 -0.0192  0.0420
19992W        W36126   3.838   3.800   4.638  0.1351 -0.1336 -0.0387
19993W        W36127   8.133   6.578   2.129 -0.1914 -0.1718 -0.0214
19994W        W36128  16.300  12.628  14.491  0.0175 -0.0149  0.3176
19995W        W36129   2.853  11.471   4.577  0.0597 -0.2277  0.0759
19996W        W36130   9.290   1.291  13.104 -0.0594 -0.0724  0.0147
19997W        W36131   1.761   6.471  12.176  0.3686  0.0542 -0.1428
19998W        W36132  14.032   9.573   9.720  0.2004 -0.0677 -0.1633
19999W        W36133   4.894  16.647   4.926 -0.0050 -0.0322 -0.1836
20000W        W36134  12.433   7.949  14.663  0.0625 -0.1246 -0.0881
20001W        W36135  15.618  14.822   1.663  0.0481  0.0249  0.0384
20002W        W36136   4.992   6.521   5.206 -0.0435 -0.0251  0.1323
20003W        W36137  13.868   2.928   1.460 -0.0250  0.1830  0.1096
20004W        W36138   1.938  13.266  12.744  0.0249  0.0771  0.2153
20005W        W36139   8.683  15.949  16.003 -0.0708 -0.0514 -0.0325
20006W        W36140   6.296  15.485  11.912  0.0803 -0.0985 -0.2372
20007W        W36141  16.870  14.811   2.208 -0.3921  0.0099  0.0637
20008W        W36142   7.611  16.811   1.879 -0.0745  0.0796 -0.2062
20009W        W36143   4.198   0.224  15.389 -0.0442 -0.1658  0.0782
20010W        W36144   2.821   3.404   1.433 -0.2191 -0.5527 -0.0007
20011W        W36145   5.450  13.835   4.618 -0.3009  0.3001 -0.2865
20012W        W36146  11.675   8.179   2.242 -0.1017 -0.4684 -0.0587
20013W        W36147   6.322   0.324   2.301 -0.3295 -0.2639 -0.2037
20014W        W36148   5.966   0.195  13.356  0.1305 -0.3203 -0.2235
20015W        W36149   7.747   6.427   0.457 -0.0315 -0.1378  0.0231
20016W        W36150   6.100  16.794  15.501  0.0677  0.0069 -0.1826
20017W        W36151   8.372  15.888   4.930  0.2723 -0.2856 -0.3256
20018W        W36152   2.023  13.308  15.166  0.1676  0.2102  0.2282
20019W        W36153  10.547  13.383   1.104 -0.0666 -0.2715 -0.2457
20020W        W36154  12.651   6.697   4.966 -0.0453  0.2499  0.0716
20021W        W36155   5.456  13.972  13.427  0.0417  0.0472 -0.1526
20022W        W36156  13.268  12.131   2.959  0.0680 -0.3567 -0.2155
20023W        W36157   9.614   1.388  15.292  0.1984 -0.0030 -0.2446
20024W        W36158   9.781   4.850  11.931  0.0366 -0.1475  0.0377
20025W        W36159  16.572  10.328   4.939  0.2985  0.0214  0.0851
20026W        W36160  16.003   6.192   4.049  0.1968  0.0331  0.1856
20027W        W36161   7.792   4.049  15.843 -0.2368  0.0238  0.0923
20028W        W36162   9.430   0.373  12.550  0.0970 -0.1111 -0.1002
20029W        W36163   6.206  15.033   1.161  0.2590 -0.2855  0.0930
20030W        W36164  15.370   7.425  15.457 -0.0990 -0.1424 -0.1488
20031W        W36165   5.318  15.898   1.032 -0.1625  0.2109  0.0580
20032W        W36166  10.320   8.295  12.452 -0.2419 -0.2089  0.2103
20033W        W36167   1.184   0.373  16.032 -0.1996  0.0218 -0.0189
20034W        W36168   1.412   4.569   2.293 -0.0109  0.4290  0.0144
20035W        W36169  10.821   2.908   0.037  0.1510 -0.0214 -0.2132
20036W        W36170  12.241   6.280   2.943  0.2629  0.1337 -0.2107
20037W        W36171   5.527   3.820   2.842  0.0905 -0.0062  0.0901
20038W        W36172  15.995   1.649  16.511  0.1929  0.0246 -0.0871
20039W        W36173   8.392   0.161   1.476 -0.1835  0.0452  0.0371
20040W        W36174   8.525   4.832  12.795  0.1592 -0.0164  0.0152
20041W        W36175   6.283  14.920   1.646 -0.2093  0.0114 -0.1036
20042W        W36176   2.252  14.004  15.577 -0.0386 -0.2085 -0.0845
20043W        W36177  14.546  10.808   4.319 -0.1442 -0.1139  0.1527
20044W        W36178  12.933   1.889  14.004  0.1147  0.4225 -0.0357
20045W        W36179  10.084   6.410  15.995 -0.0612  0.1701 -0.1638
20046W        W36180  17.776   9.769   3.920  0.2307  0.0809 -0.2657
20047W        W36181   1.841  16.622   0.649 -0.0080 -0.1599  0.2759
20048W        W36182   9.102  15.592   2.454 -0.0920  0.0733 -0.1744
20049W        W36183  12.208  16.225  12.735 -0.0830  0.3025  0.0180
20050W        W36184  14.873   9.276  11.679  0.0394  0.0468 -0.4404
20051W        W36185   2.041  11.871   3.141 -0.2044  0.1463 -0.2458
20052W        W36186   5.551  17.638  14.472 -0.0432  0.0201 -0.0270
20053W        W36187  12.084  14.637  15.221  0.2268 -0.1564 -0.0992
20054W        W36188   6.973  12.571   1.120  0.0160 -0.1973  0.0214
20055W        W36189   1.244   8.816  16.031 -0.0745  0.3484  0.0319
20056W        W36190   3.802  17.960   4.330 -0.0206 -0.0837  0.1195
20057W        W36191  15.761   6.049   5.013  0.0165 -0.2506  0.0235
20058W        W36192  11.541   3.736   2.906  0.0918  0.2246  0.1367
20059W        W36193   2.618  12.775   3.939  0.2560  0.3275  0.0144
20060W        W36194  15.139  10.178   0.248 -0.1659  0.0482  0.0884
20061W        W36195   7.448   7.870  12.384 -0.0106 -0.0624 -0.2003
20062W        W36196  16.402   0.725  13.756 -0.1992 -0.0790 -0.3456
20063W        W36197   9.808   7.724  13.164 -0.1198 -0.0720  0.0794
20064W        W36198  11.637   4.737   4.109  0.0271  0.1223 -0.1334
20065W        W36199  12.625   3.542  16.388 -0.2282  0.2755 -0.0729
20066W        W36200  14.975  10.873   5.870 -0.0636 -0.0939 -0.0863
20067W        W36201  13.971   8.811  10.513  0.2111 -0.1275  0.1931
20068W        W36202   7.678  17.496   2.855  0.0264 -0.0028 -0.2399
20069W        W36203   7.320   3.803   1.989 -0.0281 -0.1296  0.1986
20070W        W36204   8.660   1.481  14.041  0.1780 -0.2853 -0.0523
20071W        W36205  13.844  14.214  14.082  0.1158 -0.2330  0.2011
20072W        W36206  15.772   7.611  14.144  0.0488  0.0885 -0.1779
20073W        W36207   5.943  17.503   3.092  0.3162 -0.4818  0.1431
20074W        W36208   5.647  10.843   4.297 -0.0984  0.1999 -0.1051
20075W        W36209   1.103   8.871   2.614 -0.2940  0.0497  0.0013
20076W        W36210  11.373  10.869   0.004 -0.0206  0.1374  0.2650
20077W        W36211  11.459  16.866   4.163 -0.1307 -0.1020  0.1214
20078W        W36212  12.100   4.270  13.209  0.1290  0.1924  0.1487
20079W        W36213  13.628  12.280  15.651  0.0338 -0.1267  0.0911
20080W        W36214   2.600   4.529  15.398  0.0248  0.1216 -0.1125
20081W        W36215  14.743   8.113   4.674  0.3347 -0.2318 -0.4448
20082W        W36216  16.410   4.507  12.510  0.1402  0.1054  0.0288
20083W        W36217   1.350   9.048  10.204  0.0405 -0.2122 -0.2564
20084W        W36218   5.207  12.992   4.905  0.0200 -0.0109  0.2892
20085W        W36219   4.990  15.012   2.166  0.0835 -0.1099 -0.0486
20086W        W36220   2.914   2.674  11.808  0.0507  0.0658 -0.0608
20087W        W36221  18.092   6.482   0.597 -0.1422 -0.1540  0.0056
20088W        W36222  17.207  16.913  16.228  0.2689  0.4016  0.0741
20089W        W36223   0.246   5.650   0.834 -0.1806 -0.2437  0.0914
20090W        W36224   8.012   5.665  15.943  0.2372 -0.2527  0.2775
20091W        W36225  15.789  12.542  12.503 -0.1953 -0.0234 -0.0297
20092W        W36226  10.156   6.361   0.158  0.3484 -0.6565 -0.0997
20093W        W36227  14.569   8.271   3.983 -0.0138 -0.1105 -0.0298
20094W        W36228  16.339  13.957   4.428 -0.0489  0.1147  0.0224
20095W        W36229   4.921   7.356  11.286  0.0188  0.0411 -0.2144
20096W        W36230   5.312   4.008   0.386  0.1098  0.0569  0.2345
20097W        W36231  15.797   5.312  11.561 -0.4618  0.0612  0.0163
20098W        W36232   0.859   5.793   4.605 -0.1967 -0.1206  0.3820
20099W        W36233  11.313  16.692   5.417 -0.0012  0.0453  0.4098
20100W        W36234  15.282   8.437  14.474  0.5698  0.3492 -0.1369
20101W        W36235  11.048   7.366   0.049  0.0821 -0.0539 -0.1039
20102W        W36236  10.054   3.595   4.028 -0.2335 -0.0055 -0.1568
20103W        W36237   0.946   2.011   0.821 -0.0442  0.0698 -0.0760
20104W        W36238  16.599   6.389  14.512 -0.2209 -0.0993 -0.1971
20105W        W36239   3.164   7.618  15.171  0.0262  0.1469 -0.0063
20106W        W36240   9.618   8.864  12.771 -0.1858 -0.0797  0.0201
20107W        W36241  16.573   1.570   1.050  0.0009  0.0032 -0.1718
20108W        W36242  13.452  11.740  12.050 -0.0924  0.1710 -0.2332
20109W        W36243  16.594   5.529   1.346  0.1222  0.0618  0.1067
20110W        W36244   3.465   8.435  11.345 -0.1079  0.4461 -0.1770
20111W        W36245  14.555   4.229   3.075 -0.2520 -0.1446 -0.1825
20112W        W36246   5.348   1.262  12.317 -0.2339  0.1610  0.0312
20113W        W36247  17.455  12.709   5.036 -0.1583  0.1719 -0.1173
20114W        W36248  12.909   5.890   4.758 -0.0492 -0.0802  0.1127
20115W        W36249   1.857   5.619   5.787 -0.1514  0.3278 -0.4576
20116W        W36250  16.685  10.842   4.902  0.1839  0.1793 -0.0167
20117W        W36251  10.275   2.265   1.375  0.1148  0.2867  0.0598
20118W        W36252   8.823  15.945   4.678  0.2906  0.0280 -0.4030
20119W        W36253   0.206   6.986   1.853 -0.1053  0.0992  0.2710
20120W        W36254  12.967  11.354  13.141  0.4897  0.1492  0.1632
20121W        W36255   9.755   5.393  15.166 -0.0892 -0.0059 -0.0789
20122W        W36256  17.617  11.791  14.498  0.0475  0.2940  0.0562
20123W        W36257   7.054   3.099   1.324  0.2069 -0.0030  0.1000
20124W        W36258   5.209   6.378   0.800 -0.0483  0.2118  0.1364
20125W        W36259  11.549   7.209  14.589 -0.5393  0.0435  0.1301
20126W        W36260  13.533   4.531   3.116  0.0156  0.3629 -0.0295
20127W        W36261  12.489  11.884   1.208  0.0584  0.0346 -0.0310
20128W        W36262  16.183   9.588   2.620  0.0955 -0.0907  0.2207
20129W        W36263  15.867  15.531  11.405 -0.4516  0.0676  0.0877
20130W        W36264   8.130  10.932  14.670 -0.0219  0.0224 -0.0580
20131W        W36265   9.866   3.810  14.124 -0.2121  0.1169  0.0007
20132W        W36266   6.891   0.623   0.597  0.1566  0.1176  0.4139
20133W        W36267   0.231   6.232   0.913 -0.0841  0.0469  0.2143
20134W        W36268  13.234   9.531   1.574 -0.0989 -0.0080 -0.0899
20135W        W36269  18.025  15.555   5.906 -0.1923  0.0116 -0.2912
20136W        W36270   2.966   0.016   1.137  0.0774 -0.2843  0.0915
20137W        W36271   0.107  12.884   6.066  0.0311  0.1883 -0.0041
20138W        W36272   9.729   2.653   5.975 -0.0939 -0.0950 -0.0445
20139W        W36273   0.395  17.204  14.065  0.1940 -0.2227  0.2536
20140W        W36274   3.407  12.026   0.908 -0.2112 -0.0328  0.0529
20141W        W36275  14.452   7.359   4.884 -0.0381  0.0426 -0.2420
20142W        W36276   7.187  14.420   1.919 -0.1568  0.0631  0.2082
20143W        W36277   0.633   1.330   2.400 -0.1825 -0.4107  0.0482
20144W        W36278  13.637  12.303   5.285 -0.0389 -0.4143  0.0677
20145W        W36279   6.587   7.351  15.435 -0.0953 -0.0668 -0.0793
20146W        W36280   9.414  18.121   2.957  0.0801 -0.0578  0.0863
20147W        W36281   3.759  12.473   5.312 -0.4050  0.0671 -0.1246
20148W        W36282  12.486   9.843  15.714 -0.0123  0.1959  0.1690
20149W        W36283   4.395  14.470   2.967  0.3761 -0.0666  0.0581
20150W        W36284   2.207  15.786  12.777 -0.0316  0.0864  0.0869
20151W        W36285   3.118  15.757   5.608 -0.1346  0.0042 -0.1197
20152W        W36286   8.437  11.674  13.408 -0.3348  0.2724 -0.1502
20153W        W36287   0.498   6.840  16.381 -0.0314 -0.0615  0.1781
20154W        W36288  15.185  17.881   4.681  0.2297 -0.1786 -0.3553
20155W        W36289  16.039   8.584  11.261  0.2337 -0.0211 -0.0892
20156W        W36290   4.347   5.547   0.142  0.0472 -0.2644 -0.0101
20157W        W36291  12.086   9.284  13.670  0.0165  0.2918 -0.4601
20158W        W36292  11.109  12.973  16.411 -0.1366 -0.1301  0.1260
20159W        W36293  17.122  11.953   4.190  0.1677 -0.1019 -0.0805
20160W        W36294   4.283   6.401   3.305 -0.1920  0.1865 -0.1080
20161W        W36295  11.491  14.808  16.356 -0.1722 -0.1641 -0.3518
20162W        W36296  12.933  15.453  15.501  0.1071 -0.0659 -0.0354
20163W        W36297  10.478   4.510  16.532 -0.0622 -0.0100 -0.0467
20164W        W36298  12.718   0.385  14.673 -0.1144 -0.1288  0.2844
20165W        W36299   7.274   6.999   3.149  0.1055  0.0259  0.0946
20166W        W36300  10.678  10.300   2.860 -0.0953 -0.1657 -0.0367
20167W        W36301   8.233  14.656   5.052  0.1288  0.1020  0.2655
20168W        W36302  18.109  14.390   3.515 -0.1210 -0.1411  0.1794
20169W        W36303  12.975   0.151  11.563 -0.0970 -0.2343 -0.2464
20170W        W36304  16.227   7.200  16.161  0.4765 -0.0107  0.0323
20171W        W36305   7.767  11.773  14.067  0.0286  0.1064 -0.2864
20172W        W36306  15.577   0.616  16.378  0.0024 -0.0365  0.0871
20173W        W36307  13.073   7.245   4.316 -0.0109  0.4187  0.3003
20174W        W36308   3.914   4.409   0.759  0.0774 -0.1329  0.0537
20175W        W36309  14.134  10.229  11.378  0.4472  0.4565  0.1496
20176W        W36310  13.622   2.271  12.670 -0.1960  0.2538  0.1533
20177W        W36311  16.234   4.886  16.084  0.2410  0.0309  0.0493
20178W        W36312   3.626   2.184   0.566  0.1750  0.1778  0.0379
20179W        W36313  15.409  13.833  15.351 -0.1223  0.1822 -0.1016
20180W        W36314  16.194  11.468   5.341  0.0061 -0.1782 -0.0753
20181W        W36315  10.476   5.780   5.401  0.0895 -0.0488 -0.2143
20182W        W36316  17.653  14.147   5.555 -0.1261  0.1523  0.3209
20183W        W36317  11.845  11.025  16.425 -0.2220 -0.0009 -0.1577
20184W        W36318   5.144   2.819   0.411  0.0592 -0.1173 -0.1576
20185W        W36319  16.609   2.138   0.035  0.0598 -0.4028  0.3397
20186W        W36320   5.882   6.342   4.942 -0.1048  0.1129  0.2314
20187W        W36321  10.246   5.217   4.846 -0.2141 -0.1160 -0.1403
20188W        W36322   0.756  10.375  12.499  0.1433 -0.1379  0.0072
20189W        W36323   6.440   0.771   0.615 -0.0352 -0.3714 -0.0795
20190W        W36324  11.794   6.917   4.001  0.1533  0.0249 -0.0764
20191W        W36325  15.462  12.615  12.085  0.2144 -0.2480  0.1800
20192W        W36326   2.475   1.528   2.887 -0.3499 -0.2271  0.2769
20193W        W36327  12.114  14.078   5.377 -0.0305  0.3148  0.2733
20194W        W36328   3.873   5.630   1.496 -0.1136  0.6483  0.4502
20195W        W36329  10.597   2.702   1.425  0.1877 -0.1495  0.0332
20196W        W36330   6.926  11.636   4.077 -0.1540 -0.0846 -0.0640
20197W        W36331  14.027   3.058   0.320  0.1651  0.3110 -0.1922
20198W        W36332  12.799  10.750  12.967 -0.2622 -0.0417  0.0300
20199W        W36333  10.569  13.023  11.681  0.1288  0.0403 -0.0649
20200W        W36334  13.825   3.535   2.877  0.1579  0.0706  0.1514
20201W        W36335   5.905  17.407  13.668  0.3017 -0.1094  0.1854
20202W        W36336  14.055  12.453  15.566 -0.1016 -0.1832  0.0157
20203W        W36337   3.520   1.136   5.845 -0.0249 -0.1387  0.1137
20204W        W36338  17.812  14.905  12.970  0.1109  0.2449 -0.2117
20205W        W36339  14.894  14.986  13.961  0.0485 -0.1640 -0.3091
20206W        W36340   3.368  17.830   2.774 -0.0261 -0.2532 -0.2822
20207W        W36341   8.254   6.492   4.524  0.2880  0.0199  0.1831
20208W        W36342   3.890  14.173   1.844 -0.2595 -0.1794 -0.1355
20209W        W36343  12.415   6.066   1.138  0.1302  0.0811  0.0485
20210W        W36344  15.061  13.098   0.853 -0.0348 -0.0294 -0.0660
20211W        W36345   1.798   9.854  12.746  0.1033 -0.0292 -0.0836
20212W        W36346   9.986  15.837   0.380  0.1269 -0.1561 -0.1240
20213W        W36347  16.397   0.286  16.485  0.0229  0.1283 -0.0010
20214W        W36348   5.147   2.706  14.547 -0.0190 -0.3571  0.2208
20215W        W36349  10.383   5.535  12.005  0.1106  0.2059  0.1358
20216W        W36350   1.930   9.963   1.641  0.0199  0.1379  0.1846
20217W        W36351   7.952  15.926   4.547 -0.0379 -0.2765 -0.1345
20218W        W36352   4.449  10.724  11.059 -0.0913 -0.2395  0.2656
20219W        W36353   9.280   3.317   0.954 -0.5612  0.0321 -0.1067
20220W        W36354   6.037  11.560  15.442  0.0581 -0.5406  0.1323
20221W        W36355  13.513   2.088   5.532  0.3479  0.0974  0.2059
20222W        W36356  11.006  15.321   3.149 -0.1936  0.1522  0.0874
20223W        W36357   6.042   5.651  14.200  0.4838 -0.1758 -0.1010
20224W        W36358   2.745   0.128  14.638 -0.2507  0.0862  0.0621
20225W        W36359  12.342   5.109  14.402 -0.0040 -0.3175 -0.4188
20226W        W36360   6.811   0.952   2.193 -0.3074  0.1270 -0.1924
20227W        W36361   6.099  15.038  12.264  0.2156 -0.1270 -0.1193
20228W        W36362   5.980  12.702  14.578 -0.2418  0.1039  0.3975
20229W        W36363   8.341  16.635   0.165 -0.1782 -0.3690  0.2431
20230W        W36364   8.855  15.085  15.878 -0.0228  0.1582 -0.3748
20231W        W36365  11.230  10.990   1.311 -0.2234  0.3083  0.0153
20232W        W36366  11.317   2.676   1.084  0.1326  0.0082 -0.0607
20233W        W36367   6.826   1.366  14.601  0.3044 -0.1541  0.1742
20234W        W36368  12.367  13.781   3.673 -0.2268 -0.0281  0.3246
20235W        W36369  11.940   7.311   2.267 -0.4089  0.0559 -0.1166
20236W        W36370   5.221   2.690   2.238  0.0379 -0.1702  0.0242
20237W        W36371  15.865  17.481   2.704 -0.1219 -0.5899  0.0459
20238W        W36372  17.634  10.904  15.978 -0.0940  0.1078  0.1391
20239W        W36373   8.759   3.333   1.812  0.3931 -0.0196  0.0548
20240W        W36374   6.360  13.297   1.362 -0.0994 -0.1370 -0.1239
20241W        W36375  16.508  15.386  16.187  0.2984  0.1032 -0.2532
20242W        W36376  11.597   6.207   2.234  0.1888 -0.2612 -0.1689
20243W        W36377   1.616  10.296  15.455 -0.1405  0.3169  0.1200
20244W        W36378  17.704  14.534   3.241  0.1652  0.1422 -0.1648
20245W        W36379   9.393   8.320  10.771  0.1104  0.0379 -0.0122
20246W        W36380  16.271  16.814  13.364 -0.0638 -0.1698  0.1160
20247W        W36381  13.399   9.795   2.373 -0.2858  0.1178 -0.1381
20248W        W36382   9.303   1.189  13.580  0.0116 -0.2595  0.1698
20249W        W36383   0.525   6.469   0.532  0.0391 -0.3179 -0.0470
20250W        W36384  12.564   1.008   6.164 -0.0932  0.0959 -0.1246
20251W        W36385   5.914  15.193   4.477  0.3389  0.1277 -0.2524
20252W        W36386   0.062  12.492   0.732  0.1554  0.0248 -0.1846
20253W        W36387  15.974   1.893  13.192 -0.0503 -0.2483 -0.3390
20254W        W36388  12.496   0.525   5.199 -0.0142 -0.2093  0.0365
20255W        W36389  18.098  14.258  11.331 -0.0721 -0.0242 -0.0759
20256W        W36390  12.996  16.189  12.730 -0.0175  0.1601 -0.1868
20257W        W36391  14.959  14.132   0.281  0.0051 -0.2119  0.0031
20258W        W36392   6.545  16.633  15.197  0.0565  0.2559  0.1724
20259W        W36393   5.265  14.427   4.236  0.0946 -0.1256  0.1426
20260W        W36394   9.226  13.513   4.535  0.0591  0.1313  0.1764
20261W        W36395   0.150   3.027   5.469 -0.3827 -0.1719  0.0635
20262W        W36396   7.866  17.826  15.138 -0.1321 -0.2244  0.0952
20263W        W36397   8.702  16.379  14.795 -0.3096  0.0620 -0.0004
20264W        W36398   4.071   0.188   1.058 -0.0076 -0.0521  0.0171
20265W        W36399  15.579   1.753  13.517 -0.1899 -0.1469  0.0580
20266W        W36400   8.585  13.383   1.454  0.1961  0.3254  0.0127
20267W        W36401  11.393   0.116  12.363  0.2010 -0.1053  0.0676
20268W        W36402   1.244   2.332  15.184 -0.0903 -0.1361  0.1486
20269W        W36403   1.729   2.770  15.475 -0.2728 -0.2529  0.1957
20270W        W36404   4.316   5.354  15.890 -0.1970  0.3474 -0.1289
20271W        W36405   1.319  14.068   2.996  0.1823 -0.1670  0.1698
20272W        W36406  17.143  15.826  12.011  0.1712 -0.2362 -0.2787
20273W        W36407   3.517  16.481  10.657  0.2209 -0.1666 -0.0695
20274W        W36408  17.819   2.077   4.852 -0.1173  0.1194  0.0642
20275W        W36409   7.308  16.436  13.749 -0.1190 -0.2980 -0.3074
20276W        W36410  10.826   8.722   2.357 -0.1757  0.0657  0.1995
20277W        W36411   2.606  15.363   1.450 -0.0747 -0.1089 -0.1966
20278W        W36412  10.599  16.801   5.008  0.5588 -0.0254  0.1413
20279W        W36413  12.969  12.198   4.645  0.4223 -0.1933 -0.2287
20280W        W36414  15.702   2.018   0.251  0.1567 -0.0105  0.0476
20281W        W36415   3.660   7.647   0.256 -0.1082  0.1099  0.0300
20282W        W36416   3.874   6.881  15.132 -0.1944 -0.0320 -0.0441
20283W        W36417   7.706  12.859   0.572 -0.0185  0.1259  0.0271
20284W        W36418  18.047  12.717   2.256 -0.3818  0.1141  0.1784
20285W        W36419   1.965  16.725  16.174  0.0187 -0.3185 -0.3765
20286W        W36420  11.038  13.562  13.493 -0.1290 -0.0106 -0.3193
20287W        W36421   0.322   3.141  16.062 -0.3146 -0.2306 -0.0870
20288W        W36422   6.311  10.081   0.674  0.1139  0.0431 -0.0833
20289W        W36423  15.755  12.367  15.904 -0.1900  0.2552  0.2721
20290W        W36424  11.514   5.678   3.904 -0.0610  0.2008 -0.2165
20291W        W36425  13.021  11.131  15.382  0.0809  0.4126  0.1856
20292W        W36426  15.961  14.328   0.871 -0.0053  0.0949 -0.2278
20293W        W36427   6.112   6.218   0.560  0.2100  0.2394  0.0744
20294W        W36428  16.018  11.300  11.777 -0.1530 -0.1106  0.1199
20295W        W36429  18.135   2.617  14.431  0.2044 -0.1484 -0.1738
20296W        W36430  11.961   6.952  11.571 -0.1376  0.2461  0.4672
20297W        W36431  13.754  11.024  16.155  0.0629 -0.0031 -0.0025
20298W        W36432  14.197   6.527  14.815  0.0154 -0.2190  0.0709
20299W        W36433   1.100  11.273   4.086 -0.1446 -0.1058  0.1231
20300W        W36434   0.443  15.468  14.024  0.0182  0.0533 -0.1424
20301W        W36435   3.848   9.313   1.667 -0.0620 -0.1033  0.0904
20302W        W36436   7.254   1.461  12.640  0.0608 -0.2393  0.5056
20303W        W36437  13.386   6.137  14.803 -0.0326 -0.1073  0.0832
20304W        W36438  16.385  13.047   3.880 -0.1201  0.2504  0.0061
20305W        W36439   3.373  12.486  14.629  0.0699 -0.0231 -0.3069
20306W        W36440   0.386  17.258   4.770 -0.1135  0.0461  0.0060
20307W        W36441  16.211   8.890   1.494 -0.0795  0.0877 -0.0738
20308W        W36442   9.057  12.442  15.844  0.1222 -0.0704 -0.0031
20309W        W36443  16.074   8.729  12.807  0.1388  0.3027  0.1230
20310W        W36444   0.190  12.612   2.718  0.1672 -0.2057 -0.0449
20311W        W36445  10.874   5.632  11.056 -0.0576  0.0547 -0.1314
20312W        W36446   8.053   8.218   2.607 -0.3499  0.2573  0.3128
20313W        W36447  17.445   5.072  14.860  0.1857  0.3295 -0.0918
20314W        W36448  17.788  15.015   1.747  0.1501 -0.3520 -0.2736
20315W        W36449  17.937   4.743  14.963  0.0199 -0.2043  0.0288
20316W        W36450   6.468  10.145  16.441 -0.3171 -0.0687  0.2118
20317W        W36451  10.102  11.624  14.692 -0.0032 -0.2526  0.1624
20318W        W36452  10.966   6.830   0.342 -0.1164  0.0642 -0.1275
20319W        W36453   8.770   3.586  13.201 -0.0018 -0.2695  0.2283
20320W        W36454   2.197   4.146  12.373 -0.1634  0.0277  0.4522
20321W        W36455  10.661  11.825  11.879  0.0259  0.1242 -0.0503
20322W        W36456   5.216  15.707   0.043  0.4080 -0.3508  0.0381
20323W        W36457   6.509  14.620   4.144 -0.0265 -0.1476  0.1114
20324W        W36458  12.689   5.266  14.847  0.5011 -0.0129 -0.0778
20325W        W36459  12.280  14.282   3.789 -0.0697  0.1578 -0.4512
20326W        W36460  12.396   5.982  10.039 -0.0599 -0.2043  0.2114
20327W        W36461  16.174   6.233  11.557  0.1364 -0.3032  0.1182
20328W        W36462   9.555   6.985   4.318  0.2635  0.1799  0.0968
20329W        W36463  16.594   5.914   0.363 -0.0363  0.0051 -0.3801
20330W        W36464   3.766  12.771   4.373  0.0856  0.0035  0.0086
20331W        W36465   2.376   8.601   4.771 -0.0300 -0.1568  0.0157
20332W        W36466  14.852   9.188  12.473 -0.2891  0.1897 -0.2419
20333W        W36467  14.111  14.151   3.198  0.2987  0.0378 -0.0221
20334W        W36468   3.787   2.347   4.183 -0.1337 -0.1814 -0.2651
20335W        W36469   8.169  15.253   3.865 -0.0427 -0.0557  0.0423
20336W        W36470  13.234   8.796  13.546  0.1725 -0.1610  0.0319
20337W        W36471   6.819  11.028  15.362  0.1372 -0.1643  0.0402
20338W        W36472   5.106   6.999   4.995  0.1646  0.3991  0.2773
20339W        W36473   6.537   2.276   5.098  0.0448 -0.1104  0.1760
20340W        W36474   9.596   9.098  13.284 -0.1934  0.0113 -0.0196
20341W        W36475   3.803  16.078   3.598 -0.2338  0.4150  0.2310
20342W        W36476  13.955  12.393  13.397  0.1092  0.0651  0.1360
20343W        W36477   8.149   8.606  15.347 -0.2455  0.1288  0.2148
20344W        W36478   2.247  15.562  14.025 -0.1603 -0.2070  0.0040
20345W        W36479  13.293  16.649  11.687 -0.1402 -0.0812  0.1743
20346W        W36480   5.223   4.453  11.902  0.1272  0.1253  0.0877
20347W        W36481  15.169  12.896   4.986  0.0646  0.0268 -0.0705
20348W        W36482   8.930   6.188   3.901  0.0641  0.0520  0.1100
20349W        W36483  14.257   7.018  16.537 -0.0596  0.2718 -0.0116
20350W        W36484  14.235   2.594   2.458 -0.1500 -0.1543  0.2080
20351W        W36485   5.700  14.609   5.218 -0.0587  0.0617  0.0800
20352W        W36486  17.843   2.752  15.559  0.1168 -0.0700 -0.0377
20353W        W36487  16.842  13.247  14.907  0.2234 -0.2149  0.0830
20354W        W36488  14.779   1.695   1.331  0.1439 -0.1822 -0.1506
20355W        W36489   0.444   7.348   2.920 -0.0904  0.1220 -0.0643
20356W        W36490  16.968  12.761  12.754  0.0493  0.2623 -0.0678
20357W        W36491  11.065   3.563  15.868 -0.2533  0.2553 -0.0129
20358W        W36492  11.556   2.945   0.001  0.0536  0.2438  0.1400
20359W        W36493  17.993   3.331   3.389 -0.0470  0.0120  0.1783
20360W        W36494   7.155   0.581   1.439  0.2034  0.1907  0.2659
20361W        W36495  14.647   9.015   1.815 -0.0464 -0.2466  0.3442
20362W        W36496  13.998  16.448  12.501 -0.1076  0.2780 -0.1448
20363W        W36497  16.217   0.717   4.752  0.3292  0.2054 -0.2076
20364W        W36498   7.472   9.350  11.375  0.0777 -0.2708  0.0425
20365W        W36499   1.374   0.554  13.234  0.1176 -0.0504 -0.1175
20366W        W36500   8.664   2.480  13.165  0.0827 -0.0553  0.0270
20367W        W36501  17.430   4.393   3.588  0.0888  0.0459  0.0333
20368W        W36502   7.538  15.898  12.905  0.0157  0.1022  0.0181
20369W        W36503   7.212   4.814  16.438  0.0932  0.0345 -0.2357
20370W        W36504   2.149   6.091  13.294  0.0655  0.2808  0.1412
20371W        W36505  14.289   7.965   0.406  0.1030 -0.0998  0.0239
20372W        W36506  14.729  17.275   3.592 -0.0245  0.0971  0.2113
20373W        W36507   0.924   3.503   0.269 -0.3971 -0.0010 -0.1349
20374W        W36508  10.685   6.172   3.428 -0.3542  0.3407  0.1019
20375W        W36509  15.945  11.684  15.442 -0.1044  0.1309  0.2062
20376W        W36510   7.264  15.165   0.394 -0.0633 -0.1461  0.0247
20377W        W36511  12.042   6.593  11.045 -0.2533 -0.2996 -0.1015
20378W        W36512   7.314  11.495   4.397  0.0379  0.1763  0.1147
20379W        W36513   2.108   5.563   3.277  0.2588 -0.1912  0.2278
20380W        W36514  16.139  15.167   5.056  0.3231  0.1192 -0.2479
20381W        W36515  14.356   5.342  14.433  0.0965 -0.0738 -0.0246
20382W        W36516   2.283   8.114   1.793  0.1848 -0.0134 -0.1516
20383W        W36517  14.781  14.284  16.352 -0.1688  0.1835  0.0020
20384W        W36518  17.995   2.821  16.039 -0.2863  0.4037  0.0098
20385W        W36519  13.400   8.227   3.244 -0.3234 -0.1867  0.0606
20386W        W36520  17.660   6.089  16.024 -0.0170  0.2530 -0.1092
20387W        W36521  15.134   8.986  15.747 -0.1339 -0.1628  0.1212
20388W        W36522   7.930  16.344   3.305 -0.1584  0.1203 -0.5076
20389W        W36523  10.449   3.696   6.316 -0.0009  0.1168 -0.1093
20390W        W36524   8.089   6.755   3.498  0.1753  0.1424  0.3052
20391W        W36525  17.871  10.857  15.541  0.0279  0.0588  0.2326
20392W        W36526   8.356   7.410   0.275 -0.0666 -0.0549 -0.1742
20393W        W36527  12.971   7.377   2.547 -0.1873 -0.2001  0.0824
20394W        W36528   6.276   4.097  11.801 -0.0663  0.2451 -0.2518
20395W        W36529   8.630   3.393  16.030  0.1268  0.0123  0.1573
20396W        W36530   1.229   4.649  14.174  0.1882 -0.1541  0.2154
20397W        W36531   6.418  17.084   5.256 -0.0929  0.1498  0.1014
20398W        W36532  14.544   1.705   0.077  0.0275  0.3281 -0.1819
20399W        W36533  11.828  12.662   3.521  0.1543  0.2261  0.1039
20400W        W36534   9.641  17.275  13.009  0.2413 -0.1884  0.1336
20401W        W36535  14.122   9.294  15.107  0.3374 -0.0787  0.0418
20402W        W36536   8.364   5.242  11.559 -0.0429  0.2765 -0.2556
20403W        W36537   0.067  17.277   1.342 -0.0254  0.1841  0.0907
20404W        W36538  13.782  15.176   3.160  0.3902  0.0470  0.0488
20405W        W36539   9.740   0.490   4.942 -0.1879 -0.1798 -0.0020
20406W        W36540  13.275   6.286  14.347 -0.4148 -0.0609  0.0531
20407W        W36541  12.810   9.378   1.706  0.3399 -0.1536  0.1871
20408W        W36542  14.678   5.115   1.100 -0.0090  0.1584  0.1057
20409W        W36543   4.550   1.778  13.923  0.1119 -0.1082 -0.1690
20410W        W36544   4.293  17.724   0.099  0.3229  0.2440 -0.2124
20411W        W36545  11.116   7.305   4.720 -0.4292 -0.0121 -0.1733
20412W        W36546   2.094   5.589   4.827  0.0320 -0.1018 -0.1973
20413W        W36547  17.983   0.759  13.820 -0.1872  0.0813 -0.2940
20414W        W36548  15.543  12.632   2.053  0.0741  0.1632  0.1395
20415W        W36549  10.332   6.025  12.264  0.1042 -0.0236  0.0215
20416W        W36550   0.518   2.386   3.459  0.2222 -0.0256 -0.0426
20417W        W36551  15.512   9.402   1.726  0.2131 -0.1142 -0.0811
20418W        W36552  17.244  14.410  11.060 -0.0831  0.1092  0.1073
20419W        W36553   5.072  11.453   0.830 -0.0097 -0.0509  0.0042
20420W        W36554  15.381   8.636   1.333  0.1298 -0.1571  0.1774
20421W        W36555  14.351   4.935  13.744 -0.0179  0.1247 -0.5181
20422W        W36556   7.605  15.106   1.856 -0.0667  0.2070  0.1123
20423W        W36557   1.162   7.774  11.954  0.0074  0.1553 -0.1277
20424W        W36558   2.096   3.069   2.655 -0.0311  0.2066  0.0441
20425W        W36559  11.355   6.614   2.965  0.2127 -0.0359 -0.0486
20426W        W36560  13.554  11.257  11.379  0.1819  0.0015 -0.0426
20427W        W36561  10.239   9.192  15.914  0.0715  0.0974 -0.0906
20428W        W36562  16.293   6.684  11.434 -0.2138 -0.2496  0.1308
20429W        W36563   8.324  17.499   1.924  0.0540 -0.1452  0.2210
20430W        W36564   7.844   7.310   0.790 -0.1038 -0.3345 -0.1002
20431W        W36565   5.002  16.211   1.358 -0.3700  0.1504  0.0125
20432W        W36566  14.935  12.424   4.912 -0.0380  0.1583  0.2357
20433W        W36567   5.506  12.647   2.933 -0.0977 -0.0292  0.0829
20434W        W36568  11.260   5.854  14.339 -0.2454  0.1802 -0.0583
20435W        W36569   2.457  11.801  11.775 -0.0220  0.0503 -0.1401
20436W        W36570  10.609  15.436   4.574 -0.0170 -0.0438 -0.2120
20437W        W36571  14.415  17.387  13.066 -0.2538  0.0631  0.0107
20438W        W36572   7.504  15.189  16.177 -0.1890 -0.1022 -0.0414
20439W        W36573  13.798   0.904  13.799  0.2680  0.0726  0.0653
20440W        W36574  11.420  14.767   0.314  0.2034 -0.0978 -0.0522
20441W        W36575   4.254   5.332  14.921 -0.0235  0.3953 -0.1574
20442W        W36576  16.330   2.465   0.986  0.0384  0.0981 -0.0605
20443W        W36577   2.063  10.810   5.659 -0.2841  0.0432  0.1328
20444W        W36578  12.394   5.750  11.215 -0.1847 -0.3291 -0.2351
20445W        W36579   5.987  17.669  14.053  0.1060  0.0233 -0.0406
20446W        W36580  15.804   1.418   5.472  0.0216 -0.2128  0.1956
20447W        W36581  12.366   0.787   2.913 -0.0077  0.0680 -0.2067
20448W        W36582  12.227   7.949  16.142  0.0239  0.0941 -0.3303
20449W        W36583   4.300  13.079  13.239  0.0589 -0.4894  0.2189
20450W        W36584  10.260   0.371  16.085  0.2629 -0.1375 -0.1613
20451W        W36585   2.642  15.033   0.637 -0.0436 -0.2858  0.1722
20452W        W36586   5.750   4.099   4.101 -0.0553  0.3275  0.0062
20453W        W36587   8.143   4.411  12.861  0.1639 -0.2278  0.0573
20454W        W36588  13.814  16.130   6.464 -0.0037  0.0629  0.1119
20455W        W36589   9.498   8.371   0.017  0.0641  0.1570 -0.1603
20456W        W36590   3.258  14.419   5.744  0.0912 -0.0856 -0.0151
20457W        W36591   4.358   5.457   5.970 -0.0113 -0.0778  0.0672
20458W        W36592  11.888  10.899   4.484  0.0057 -0.1078 -0.2755
20459W        W36593   3.336   8.008  16.072 -0.3674  0.0086  0.1853
20460W        W36594  17.496  14.835  15.343  0.3348 -0.0501  0.3999
20461W        W36595   9.086   4.203   3.273 -0.0817 -0.5931  0.2010
20462W        W36596  15.427   6.990  11.093  0.1841  0.2879  0.0839
20463W        W36597  13.543   8.662  11.046 -0.2098 -0.1614 -0.0292
20464W        W36598  10.239  16.262  12.300 -0.0700  0.1453 -0.1625
20465W        W36599   3.578   2.386  15.059 -0.1302 -0.0006 -0.2229
20466W        W36600  11.117  15.239  15.180 -0.0489 -0.2907 -0.2491
20467W        W36601  10.889   1.533  15.707 -0.1606  0.0137  0.0863
20468W        W36602   9.594  13.882   2.562 -0.2099  0.2255  0.4777
20469W        W36603  15.544   9.931  15.166 -0.3611  0.0109 -0.1510
20470W        W36604   7.070   1.047   5.662  0.0685 -0.5066  0.0795
20471W        W36605   0.973   7.016   3.718  0.4349 -0.2156  0.4459
20472W        W36606  13.322  17.360  14.023  0.3263  0.0358 -0.1689
20473W        W36607  13.433  15.000   4.928 -0.5119 -0.2151  0.1465
20474W        W36608   2.002   3.090  15.830 -0.1394  0.2691 -0.1664
20475W        W36609   8.367   4.230  14.266 -0.0071  0.4089 -0.1492
20476W        W36610   1.294   2.418   1.886 -0.1337 -0.1666  0.2050
20477W        W36611   5.535   3.903   1.843 -0.1196 -0.0546  0.0748
20478W        W36612  11.303  15.613   3.386 -0.2546  0.2014  0.0851
20479W        W36613   8.807  10.741   1.280 -0.2617 -0.2482  0.2388
20480W        W36614  16.172  10.210   3.361  0.0744 -0.1612 -0.0637
20481W        W36615   2.306  11.900  16.016 -0.1809 -0.1322 -0.1872
20482W        W36616   8.480   2.470   1.354 -0.2042 -0.2150 -0.1408
20483W        W36617   1.245   7.457   5.298 -0.2652 -0.4273  0.4067
20484W        W36618  12.313   0.081  14.875  0.0825  0.1964 -0.1450
20485W        W36619  17.489   6.826   5.137  0.0102 -0.0904 -0.1132
20486W        W36620  15.156  15.660   1.816 -0.2409 -0.1116 -0.1327
20487W        W36621  13.930   2.163   2.278 -0.1390  0.1028 -0.1518
20488W        W36622   9.709   6.195  16.290  0.1904  0.2082 -0.3247
20489W        W36623  16.426   0.516  15.957  0.3773  0.0772  0.0365
20490W        W36624  17.959   5.947  16.412  0.2217 -0.3291 -0.1172
20491W        W36625  16.440   3.283   2.253  0.1614  0.0089 -0.1995
20492W        W36626   4.402   7.032   4.704 -0.0505 -0.0631 -0.0674
20493W        W36627  12.407   5.944   3.841 -0.1323 -0.1085 -0.3826
20494W        W36628  16.388   2.464  15.480  0.1337  0.2412  0.1683
20495W        W36629   2.241   8.228  13.569  0.1559  0.1255  0.2319
20496W        W36630   9.345   2.943  12.635  0.0580  0.0506 -0.0362
20497W        W36631  15.431   7.635  14.501 -0.0496  0.2126  0.1617
20498W        W36632  15.385  13.305   6.264  0.0975  0.4239 -0.2270
20499W        W36633   6.095   9.390   1.397 -0.0509  0.0198  0.0811
20500W        W36634   6.619   9.433  14.924  0.1820  0.2849  0.0517
20501W        W36635  16.352   5.822  12.682  0.2127  0.1887 -0.1997
20502W        W36636   0.534   5.120   2.081  0.1586 -0.4675 -0.1744
20503W        W36637   5.201  13.325  15.970 -0.2663 -0.1245 -0.1007
20504W        W36638   2.360   0.085  12.096 -0.0898  0.1264 -0.1615
20505W        W36639   2.503   1.382   0.115 -0.2486  0.0387  0.2705
20506W        W36640  16.552   6.509   1.956  0.0868 -0.0949 -0.0464
20507W        W36641  16.429   7.697  16.293 -0.0124  0.0786  0.1319
20508W        W36642   9.903  13.269  13.083  0.2057 -0.0002  0.1318
20509W        W36643   8.829   5.245  13.535 -0.1972 -0.1763 -0.0524
20510W        W36644  16.491   8.571   2.521  0.2700 -0.1972  0.2213
20511W        W36645   9.658   1.327   1.870  0.4634 -0.1267  0.1617
20512W        W36646   2.178  15.686  12.245 -0.1374 -0.0563  0.1698
20513W        W36647  12.609   4.571   4.197 -0.0156 -0.2286  0.3227
20514W        W36648   0.545   1.990  14.798 -0.2081 -0.3161  0.0247
20515W        W36649  14.367   5.567  11.013 -0.0995 -0.2404  0.0168
20516W        W36650  10.122   9.221   5.448 -0.0876 -0.0842  0.1567
20517W        W36651   1.039   2.877   0.731  0.2553  0.1698 -0.0044
20518W        W36652   8.713  16.060   5.975 -0.0101  0.0249 -0.2684
20519W        W36653  16.848   4.250  16.042 -0.1503 -0.0123 -0.1798
20520W        W36654  11.755  12.584  12.885 -0.2008  0.1265  0.1659
20521W        W36655   9.386  15.388   0.684  0.2246  0.2598 -0.0804
20522W        W36656  13.030   9.098   1.353 -0.0128 -0.1938  0.0734
20523W        W36657   0.974   9.733  16.020  0.0898 -0.2773 -0.0485
20524W        W36658  12.750   1.173  16.368 -0.2427 -0.3363 -0.2954
20525W        W36659  10.650  13.303  12.044  0.0822 -0.2159  0.1084
20526W        W36660  15.208  16.700   5.780 -0.1632 -0.1193 -0.1600
20527W        W36661   6.072   9.260  10.480 -0.0022 -0.1081  0.0429
20528W        W36662   7.298  13.116  14.463  0.1752 -0.1652 -0.0001
20529W        W36663   5.018  16.708   2.701  0.0227 -0.1238 -0.0165
20530W        W36664   9.671   8.762  14.977 -0.3997 -0.0763  0.1436
20531W        W36665  11.066  16.981  15.548 -0.1356 -0.0131  0.1878
20532W        W36666   2.005  17.131  16.498 -0.2893  0.1621 -0.3733
20533W        W36667   4.501   6.990   2.155 -0.1501 -0.1535  0.0702
20534W        W36668  12.879  13.828   0.241  0.1150 -0.1233 -0.1034
20535W        W36669   4.715   6.563   0.945 -0.0801 -0.0273 -0.1468
20536W        W36670   2.874   3.800  13.987 -0.0046 -0.3529 -0.3475
20537W        W36671   6.277  16.573   4.437 -0.2078  0.1282  0.0850
20538W        W36672  13.750  13.348  15.838  0.1267 -0.0683  0.0916
20539W        W36673  12.266   3.858   1.020 -0.1578  0.0033 -0.0555
20540W        W36674  11.319  11.451   1.022  0.0597  0.2043 -0.2155
20541W        W36675  11.660   7.189  16.087  0.3920  0.0237 -0.2853
20542W        W36676  13.419   5.771  13.720  0.3337  0.0219  0.3734
20543W        W36677  15.879   3.627  15.296 -0.0101  0.1421  0.1136
20544W        W36678   8.063   0.201   2.272  0.0430  0.1428  0.0916
20545W        W36679   2.513   9.327   1.793  0.0718 -0.1055 -0.2835
20546W        W36680  12.726  17.046   4.604 -0.4210  0.2624  0.3407
20547W        W36681   8.619   2.864  15.405 -0.2015  0.0571  0.0741
20548W        W36682   8.381  14.598  16.247  0.0355 -0.0762 -0.1126
20549W        W36683   8.986   8.433  11.082 -0.0128 -0.4850  0.2726
20550W        W36684   6.814  10.139   0.732 -0.1495 -0.1043 -0.0121
20551W        W36685   2.175   7.604   1.116 -0.0083  0.0550 -0.1437
20552W        W36686  17.112  16.268   0.496  0.0750 -0.0665  0.0853
20553W        W36687  13.001  14.995   0.312  0.1615  0.1043  0.1511
20554W        W36688  15.649   3.273   1.653 -0.1005  0.0432 -0.0102
20555W        W36689  15.750  14.964  15.652 -0.2400 -0.1633 -0.2629
20556W        W36690  13.494  18.028   5.383 -0.4838  0.0233  0.0230
20557W        W36691   4.934  16.211   0.779  0.0431 -0.0235 -0.1222
20558W        W36692   6.597   9.183   3.096  0.0886 -0.0551  0.1771
20559W        W36693   8.720   5.365   1.730 -0.2115  0.2864  0.1504
20560W        W36694   2.480   3.701  14.335 -0.3146 -0.0096  0.3920
20561W        W36695  15.467   8.316   0.897  0.0392  0.1752 -0.2333
20562W        W36696   1.435   3.018   2.723 -0.0965 -0.0196  0.0205
20563W        W36697  10.733  15.323  15.573  0.1039 -0.1937  0.0792
20564W        W36698   4.653  16.032  13.215  0.0163  0.0752  0.0378
20565W        W36699  14.487  14.671   5.395  0.2339 -0.2144  0.0554
20566W        W36700  13.226  12.992  11.816  0.0651  0.0318  0.2451
20567W        W36701  13.743   7.352   2.697 -0.3360  0.1835  0.3680
20568W        W36702   5.612   0.658   0.009  0.1796  0.1222  0.4900
20569W        W36703   0.918   5.845   5.420  0.1226  0.0499  0.1905
20570W        W36704  17.568   9.595  15.578 -0.0895  0.0793  0.0821
20571W        W36705  14.467   0.033   4.365  0.0736 -0.0736  0.3446
20572W        W36706   5.121   2.553  11.847 -0.1919  0.0768 -0.3156
20573W        W36707   5.448  10.761  13.797  0.0527  0.0815  0.3055
20574W        W36708   8.663  15.787  14.003  0.1581  0.3360 -0.0647
20575W        W36709   4.643   5.692  13.620  0.0677 -0.1746  0.2792
20576W        W36710  10.768   8.571   1.268 -0.0282  0.3992 -0.3839
20577W        W36711  14.695   6.634   2.058 -0.0004 -0.1242 -0.2171
20578W        W36712   9.438  15.013   0.153 -0.1301  0.0289 -0.2278
20579W        W36713  13.714   5.124  11.186  0.0164  0.4787 -0.0528
20580W        W36714   5.450   9.699  12.684  0.0656 -0.1503 -0.0215
20581W        W36715   5.120  12.494  13.614 -0.2888  0.0520  0.1982
20582W        W36716   2.651  14.926  16.438 -0.1478  0.4006  0.1394
20583W        W36717  14.939  14.979   5.246  0.1288 -0.3475  0.1616
20584W        W36718   0.957  12.759   0.791  0.1133  0.1054  0.1005
20585W        W36719  15.945  15.653   2.080 -0.0448 -0.1525 -0.2926
20586W        W36720   0.471   1.848   2.540  0.0414  0.0909 -0.3286
20587W        W36721   7.114   1.926  15.739  0.1218 -0.0644 -0.1711
20588W        W36722  15.418  11.751  15.396 -0.0242  0.4513 -0.0123
20589W        W36723  14.825  12.090   0.212 -0.0098 -0.2002  0.0077
20590W        W36724  17.992   8.522  11.027  0.0813  0.1149  0.1725
20591W        W36725  15.957  12.731   2.358 -0.0067  0.0016  0.1060
20592W        W36726   9.436  11.751   1.583  0.4391 -0.0555 -0.0513
20593W        W36727  15.721  10.577  12.204 -0.0070 -0.0089  0.0560
20594W        W36728  15.815  14.144  12.602  0.1134  0.2008  0.0379
20595W        W36729   0.997   2.242  11.397  0.0497 -0.0022 -0.3051
20596W        W36730  15.747   0.517  14.305 -0.0952  0.2785 -0.0405
20597W        W36731  14.824   0.370  11.768 -0.0694 -0.0984 -0.0248
20598W        W36732  12.530   3.610   5.012  0.0249  0.1623 -0.1309
20599W        W36733  11.950  10.220  15.814 -0.1630 -0.1995  0.0230
20600W        W36734  17.383   9.926   1.186 -0.0295 -0.0430  0.0683
20601W        W36735   7.490  11.508   0.471 -0.1272 -0.0813 -0.0577
20602W        W36736   4.464  14.064   4.303  0.1128  0.0714 -0.1465
20603W        W36737  13.357   5.183  13.322 -0.1402 -0.2058 -0.0545
20604W        W36738  18.164  12.969  15.672  0.2091  0.0030  0.0869
20605W        W36739   2.161   1.326  12.355 -0.1268  0.0814  0.3912
20606W        W36740   4.179  11.912   2.272  0.0260 -0.1882  0.2599
20607W        W36741  13.709   1.672   3.234 -0.2482  0.1972 -0.1969
20608W        W36742  15.008   2.288   6.256  0.0973 -0.2313 -0.0835
20609W        W36743   6.702  13.710   3.937  0.0085  0.0711 -0.3118
20610W        W36744  16.030   2.362   2.521 -0.0838  0.4152 -0.1593
20611W        W36745   9.872   8.172   3.531 -0.0422 -0.0807 -0.4061
20612W        W36746  15.456   3.282   4.169 -0.1918 -0.1562 -0.1145
20613W        W36747  15.015   1.335   2.168 -0.1889 -0.1269  0.2132
20614W        W36748   9.122   1.729  13.131  0.0307 -0.0006  0.0992
20615W        W36749   6.499   3.903   5.124 -0.0054  0.1999 -0.0717
20616W        W36750  12.356  11.407   0.976 -0.1871 -0.0131 -0.1017
20617W        W36751  15.435   4.470  14.885 -0.2897 -0.3065 -0.1601
20618W        W36752  15.781   9.076  13.348 -0.1305  0.2267  0.0489
20619W        W36753  14.301  10.412  14.788 -0.0109  0.2782  0.0786
20620W        W36754   2.913  17.123  15.543 -0.1194  0.0443 -0.0295
20621W        W36755   2.257  12.088   3.517 -0.3897 -0.0422  0.0283
20622W        W36756   8.128   8.566  16.012 -0.0529  0.0431 -0.0791
20623W        W36757   6.409  15.624  13.016  0.1093 -0.0695 -0.0691
20624W        W36758  14.468   0.465   4.057  0.1197 -0.1578 -0.0670
20625W        W36759   6.652  13.087   2.658 -0.3781 -0.3603  0.1151
20626W        W36760   4.190   0.667   1.417 -0.0044 -0.0965 -0.0205
20627W        W36761  14.021  17.908   3.037  0.0963  0.2114  0.2287
20628W        W36762  12.467   5.239  15.792  0.0324  0.1075  0.0229
20629W        W36763   1.779   9.396  10.290 -0.0894  0.0224 -0.1151
20630W        W36764   8.652   4.814  13.298  0.2600 -0.0872  0.0469
20631W        W36765   9.840   9.909  12.981  0.1728  0.2368 -0.1118
20632W        W36766   7.670   5.112  12.874  0.1399 -0.2672  0.2266
20633W        W36767  15.597   7.534   0.354  0.2854  0.1123  0.0743
20634W        W36768  12.154  13.773   6.187 -0.0896 -0.0194  0.2073
20635W        W36769   5.971  17.862  12.087  0.0765 -0.0847 -0.2700
20636W        W36770  13.554  17.251  12.294  0.0435 -0.1027  0.0397
20637W        W36771   5.648   8.114  12.919 -0.1153  0.0122 -0.2414
20638W        W36772  11.481   7.504  12.426 -0.0276  0.0298  0.0887
20639W        W36773   9.871  15.182   4.964  0.4962  0.3160 -0.0255
20640W        W36774  16.339  16.355   6.016  0.1152 -0.1014  0.3589
20641W        W36775   7.850   2.937   3.378  0.0618 -0.1950  0.0265
20642W        W36776   8.517   9.764   1.901 -0.1326 -0.0132 -0.0732
20643W        W36777  15.769   3.004  11.770  0.2718 -0.0089  0.0040
20644W        W36778   0.852   3.110  16.347  0.0097 -0.2502  0.1187
20645W        W36779   5.607   3.218   1.631  0.0793  0.2542 -0.4694
20646W        W36780   3.118  13.501  13.374 -0.1312  0.2265 -0.0111
20647W        W36781   8.079   9.479   2.061 -0.2342  0.1464  0.1731
20648W        W36782  17.273  15.811  15.079 -0.0541 -0.2637  0.1673
20649W        W36783  10.528  10.658  16.515  0.0381 -0.0282  0.0002
20650W        W36784  17.909  11.770   5.252 -0.0710  0.0929 -0.1577
20651W        W36785   6.073   3.468   1.066 -0.2742  0.1984  0.2378
20652W        W36786   2.956   3.696   2.768  0.1620 -0.0973  0.1468
20653W        W36787   8.624   0.089  12.914 -0.0802  0.3254  0.1178
20654W        W36788   6.643  16.588  11.895 -0.1817 -0.0578 -0.1489
20655W        W36789   3.240  15.530  14.902  0.1577 -0.2547  0.0589
20656W        W36790  14.716   8.540  14.174 -0.0480 -0.0894  0.1291
20657W        W36791   8.575  15.094  16.286  0.3142 -0.0228 -0.1033
20658W        W36792   2.410   9.648  15.607 -0.2314 -0.0979 -0.0512
20659W        W36793  16.194  14.860   1.795  0.2545 -0.0135 -0.1890
20660W        W36794   5.145  16.745  12.223  0.0410 -0.1773 -0.1065
20661W        W36795   1.839   0.904  12.600 -0.3311  0.0045 -0.0396
20662W        W36796   6.533   8.061  15.922 -0.3306  0.0930 -0.2916
20663W        W36797  16.887  12.597  11.879 -0.2533 -0.1983  0.2349
20664W        W36798   3.052   8.028  14.207 -0.0005 -0.1775 -0.1876
20665W        W36799   6.292   4.379   4.317  0.2009  0.1299  0.2463
20666W        W36800   3.498   7.325   1.833 -0.1841  0.4434 -0.0412
20667W        W36801   2.955  10.489  14.833  0.2976  0.0445  0.0660
20668W        W36802   4.828  12.389   3.213 -0.1444 -0.1308  0.3120
20669W        W36803  15.863  16.152  12.684 -0.1056 -0.2920 -0.0984
20670W        W36804  17.287  11.892  11.344 -0.1756 -0.3786  0.1109
20671W        W36805   1.271   2.690   2.357 -0.2052  0.2042 -0.1170
20672W        W36806   5.709   5.819   4.853 -0.1980 -0.1414  0.3179
20673W        W36807  17.978   6.066  13.445  0.3751  0.1910  0.2818
20674W        W36808  18.125   9.282  14.039 -0.0303 -0.0891  0.1288
20675W        W36809  11.682   6.764   5.160 -0.1459  0.0284  0.2540
20676W        W36810   0.207   3.475  13.864 -0.1940  0.0758 -0.2046
20677W        W36811   2.549   2.435  16.373  0.2174  0.0228 -0.2000
20678W        W36812   6.425  10.094   4.745 -0.1495 -0.2453 -0.0726
20679W        W36813  17.976   1.346   1.452 -0.1436  0.0478 -0.0254
20680W        W36814  14.664  15.619  11.885  0.0034 -0.1284 -0.2934
20681W        W36815  16.548   8.190  10.931  0.1919  0.1034 -0.1986
20682W        W36816   1.427   2.936  11.838  0.2642 -0.0713 -0.2650
20683W        W36817   8.323   6.297  14.359 -0.1783 -0.1010  0.1638
20684W        W36818  14.060  13.619   2.906 -0.2453  0.0151  0.2612
20685W        W36819  12.316  17.314  13.864  0.2065  0.2838 -0.2126
20686W        W36820   6.941   6.894   4.531 -0.1751  0.0254 -0.0925
20687W        W36821  14.466   7.145  15.695  0.0168 -0.3718 -0.0396
20688W        W36822  11.053   9.977   3.866 -0.2906 -0.2037  0.2100
20689W        W36823  17.784   9.596   2.199  0.2921  0.1378 -0.0166
20690W        W36824   8.070   2.110   3.934  0.0000 -0.2280  0.3563
20691W        W36825   9.735  16.286  14.434  0.1238 -0.1376  0.3081
20692W        W36826   2.627   7.236   4.655  0.2641 -0.1097  0.1709
20693W        W36827  16.846  17.177  12.617  0.0747 -0.1533 -0.1297
20694W        W36828  14.176   5.773  11.411 -0.2346  0.0579 -0.0811
20695W        W36829  12.802  10.807   3.006 -0.1584  0.0952  0.0316
20696W        W36830  10.597   3.960  12.050  0.1984  0.2131 -0.0744
20697W        W36831  10.593  15.952  14.852 -0.2710 -0.0551 -0.0287
20698W        W36832  12.535  11.905   5.825  0.3222  0.1187  0.4699
20699W        W36833   8.496  17.735  12.957  0.1709 -0.1500 -0.2660
20700W        W36834  16.848  11.792   3.756 -0.2904 -0.1484 -0.0295
20701W        W36835   5.058  17.279  11.994 -0.0654  0.1037 -0.0004
20702W        W36836  14.751   9.607  13.547  0.2340 -0.0027 -0.2655
20703W        W36837   2.207  16.997   3.524  0.0938  0.1991 -0.5674
20704W        W36838  11.433   8.852  15.927 -0.1178 -0.0888 -0.0314
20705W        W36839  10.509   3.925   3.149 -0.1029  0.1471 -0.2534
20706W        W36840  11.959  11.552  14.581  0.6861  0.2657 -0.4699
20707W        W36841   7.085   5.314  16.416  0.2490 -0.0556 -0.0313
20708W        W36842   2.304   2.667   3.397  0.0232  0.0680  0.1791
20709W        W36843   8.944   7.310   2.673 -0.1545  0.0380 -0.0232
20710W        W36844   1.070  14.367  14.732  0.2201  0.0091 -0.2591
20711W        W36845   2.536   5.238  12.517 -0.1516 -0.0564  0.1143
20712W        W36846   1.551   0.183   2.117  0.0613 -0.2582  0.0073
20713W        W36847  14.073   0.062   0.249  0.0220 -0.0505 -0.5233
20714W        W36848  13.317   1.761   4.047 -0.0638  0.2321  0.1947
20715W        W36849  14.846   1.594  14.903  0.2535  0.0056  0.0074
20716W        W36850  14.643   2.110  12.614  0.0172 -0.2133  0.0560
20717W        W36851  17.187  14.476  15.684  0.0272 -0.0916  0.2308
20718W        W36852   4.854   3.438  12.241 -0.2127 -0.0721  0.2614
20719W        W36853   6.818   3.256  14.709 -0.2060 -0.3162  0.0237
20720W        W36854   9.220  15.465  12.913 -0.0182  0.2811  0.2965
20721W        W36855   1.507  11.251  15.768  0.3507 -0.0650 -0.0770
20722W        W36856   6.452   0.984  14.885  0.2661  0.0538 -0.2459
20723W        W36857   8.523  13.972  11.328 -0.0202  0.0522 -0.0197
20724W        W36858   7.296  16.437   0.536  0.3538 -0.0754  0.1994
20725W        W36859   5.137   3.039   4.262 -0.2124  0.1039  0.0985
20726W        W36860   6.950   7.131  11.988 -0.2661  0.1036  0.0182
20727W        W36861  17.070   1.932  14.765  0.1430  0.4076  0.0304
20728W        W36862  11.951  12.215   4.684  0.3274  0.0986  0.0688
20729W        W36863  11.915  12.698  15.199 -0.0845  0.0099  0.0854
20730W        W36864   1.352   2.723  14.544  0.4260  0.1516 -0.1082
20731W        W36865   4.829   5.188  11.662  0.1933  0.3428 -0.0689
20732W        W36866   2.050   1.377   5.039  0.2410 -0.1005  0.1772
20733W        W36867  10.565  12.405   4.621  0.2100  0.1649 -0.0421
20734W        W36868   3.530   1.068  12.011 -0.2397  0.2617  0.1026
20735W        W36869   4.663  10.337   4.812 -0.2163 -0.2465 -0.1766
20736W        W36870  13.484  17.733  14.373  0.0811 -0.1183 -0.0091
20737W        W36871  14.724   9.674   2.245  0.5064  0.2599  0.1602
20738W        W36872  16.510  16.304  13.230  0.0300 -0.0012  0.1481
20739W        W36873  14.463  12.219  15.313  0.0952  0.2977 -0.0768
20740W        W36874  10.602   8.032   0.404  0.1303  0.2217 -0.0962
20741W        W36875  11.248  10.646  12.487 -0.1804  0.0710 -0.1535
20742W        W36876   0.741   0.717   2.416 -0.1195  0.0346  0.5150
20743W        W36877   1.133   8.263  13.099  0.1696  0.0950  0.0073
20744W        W36878   3.882  18.157   5.797  0.3656 -0.3828  0.0525
20745W        W36879   0.130   7.045  15.834  0.0873 -0.2396 -0.0333
20746W        W36880  11.944  14.836  15.677 -0.2358 -0.0941 -0.0171
20747W        W36881   3.423  17.348   3.101 -0.2113 -0.4007 -0.3883
20748W        W36882   8.540   0.603  12.282  0.2003 -0.1248 -0.0352
20749W        W36883  11.092   0.716   1.564  0.0486  0.2831 -0.0828
20750W        W36884  11.423   5.821  10.308  0.0455 -0.2412 -0.1116
20751W        W36885   0.602  16.938   3.424 -0.0599 -0.1066 -0.2361
20752W        W36886  16.714  15.874  11.566 -0.3511  0.0855  0.0729
20753W        W36887   0.872   7.986   3.834 -0.0318 -0.3700 -0.1237
20754W        W36888   0.641   3.904   6.310  0.2376  0.0526  0.0631
20755W        W36889   4.266   9.909  12.919 -0.0953 -0.2482 -0.0010
20756W        W36890  13.935  12.376  16.093 -0.0726 -0.0916 -0.1865
20757W        W36891   7.888  13.921  14.550  0.1200 -0.2951 -0.0730
20758W        W36892   5.871   5.161   3.075 -0.2379  0.2722  0.2346
20759W        W36893  14.966   4.245   2.260 -0.1176  0.1222  0.2550
20760W        W36894   7.568  11.815   1.354 -0.1916 -0.0591  0.0957
20761W        W36895   0.502   8.177  13.247 -0.2700  0.0762 -0.2312
20762W        W36896   2.871   4.928   3.451 -0.0821 -0.1884 -0.2256
20763W        W36897  13.214  15.743  12.715  0.2501 -0.1547 -0.1188
20764W        W36898   2.637   4.400   1.364 -0.1933 -0.1927  0.0357
20765W        W36899  12.654   3.930   2.484  0.0780  0.2313 -0.1369
20766W        W36900  11.349   5.319  15.881 -0.2542 -0.1306  0.0195
20767W        W36901  16.905  13.610  13.515  0.2256 -0.2674  0.1471
20768W        W36902  17.851   4.019   5.899  0.0060  0.1904  0.2829
20769W        W36903  11.963   0.864  13.878  0.1400 -0.1211 -0.1983
20770W        W36904  17.949  15.513   1.746  0.1554 -0.0782  0.1997
20771W        W36905  12.442   1.115   4.393  0.0880  0.2452 -0.4284
20772W        W36906  10.457  11.653   6.005 -0.0568  0.1168 -0.1429
20773W        W36907   8.084   4.943  12.505  0.1090  0.1341 -0.1233
20774W        W36908   2.362  12.300  12.695  0.2794  0.0238 -0.2813
20775W        W36909   0.466  16.113  14.716 -0.4443  0.1861  0.0921
20776W        W36910   8.564  14.545   3.421 -0.2754 -0.1289 -0.0623
20777W        W36911  13.822   2.605  15.459  0.3324 -0.1197  0.1683
20778W        W36912  11.645   5.605  11.404 -0.0403  0.0545 -0.1602
20779W        W36913   2.588   3.104   4.245 -0.3302  0.1843 -0.3920
20780W        W36914  18.092   4.461  16.288  0.1277  0.0259 -0.0877
20781W        W36915  16.516   6.300  16.022  0.1371  0.1539  0.0852
20782W        W36916   8.445  10.465   4.699  0.1862  0.4159 -0.1016
20783W        W36917   2.372   1.314  14.445 -0.1504 -0.0569 -0.0525
20784W        W36918  13.564  10.763  11.517 -0.0806 -0.1013 -0.0965
20785W        W36919   6.550  11.308   2.307 -0.2293  0.3069  0.1080
20786W        W36920   1.353  14.441   3.312 -0.0404 -0.0228  0.4167
20787W        W36921   5.273  12.419   4.161  0.0875 -0.0602 -0.1536
20788W        W36922  13.437  15.598   2.420 -0.0946 -0.1323  0.1680
20789W        W36923   7.482   7.758  13.538 -0.0114  0.3108 -0.2176
20790W        W36924   4.867   0.153   6.472 -0.4791 -0.0832 -0.0453
20791W        W36925  12.450  10.096   4.210 -0.1096  0.0102  0.1180
20792W        W36926   1.479   7.932   3.704  0.0736  0.1575  0.0563
20793W        W36927  11.322   8.007   1.839  0.2072  0.2138  0.1413
20794W        W36928  12.352  17.680  11.916 -0.1272  0.0128  0.0288
20795W        W36929   2.810  10.740   2.181 -0.1875 -0.0945  0.0527
20796W        W36930  14.812  16.964   0.353 -0.1747 -0.2224  0.0592
20797W        W36931   1.381   9.676   1.204  0.1292  0.2787 -0.2464
20798W        W36932   6.517   6.545   0.787 -0.0044  0.1762  0.2472
20799W        W36933  16.735   0.759   4.882 -0.2826 -0.1474 -0.1693
20800W        W36934   2.952  10.013   0.544  0.0448  0.1531 -0.0630
20801W        W36935   6.745  10.628  16.214  0.1343 -0.1184  0.1961
20802W        W36936   0.571   4.320   4.671 -0.0787  0.0489  0.0217
20803W        W36937   6.006  12.646  12.556 -0.2461 -0.0915  0.2275
20804W        W36938   9.949   1.368   0.086 -0.3411 -0.0556  0.3408
20805W        W36939   6.169   3.277  12.536 -0.1888  0.0301  0.0048
20806W        W36940   7.965  11.019  11.563 -0.1958  0.0101  0.3144
20807W        W36941   1.667  16.636   2.365 -0.1030 -0.1752 -0.1131
20808W        W36942   8.513  11.382  16.270  0.0512 -0.2051 -0.1030
20809W        W36943  13.339  14.322   6.589  0.1133 -0.0451 -0.1819
20810W        W36944   3.188   1.927   4.261  0.3874 -0.0581 -0.0823
20811W        W36945   6.876   0.628   4.635  0.1447  0.0241  0.3759
20812W        W36946  12.122  14.330  13.869 -0.0454  0.0844  0.0504
20813W        W36947   5.656   6.223  11.990  0.0887  0.0009 -0.2494
20814W        W36948   4.779   5.295  15.159 -0.0182  0.0394  0.2762
20815W        W36949   0.593  17.837   1.895 -0.3676  0.3228  0.2163
20816W        W36950  11.685   7.557  10.884 -0.1573 -0.2164  0.0115
20817W        W36951   6.384  11.418  14.070 -0.0011 -0.0338 -0.3691
20818W        W36952   4.228   6.106   2.911 -0.0125  0.2574 -0.0608
20819W        W36953  10.698   4.590  10.477  0.4621 -0.1131  0.0286
20820W        W36954  13.107   8.560   4.608  0.1523  0.0693  0.0491
20821W        W36955  12.237   4.225  12.401  0.1753  0.0269 -0.2375
20822W        W36956   8.392  14.532   4.473  0.3588  0.1654  0.0524
20823W        W36957  11.651  16.484  13.879 -0.0900  0.0822  0.0407
20824W        W36958   5.163   5.957   0.536 -0.1498 -0.2043 -0.0490
20825W        W36959   1.828   0.559   1.304  0.2923  0.2700 -0.0960
20826W        W36960   5.215   1.701  13.719 -0.0740  0.1726  0.2126
20827W        W36961  14.409  12.055  15.883 -0.0638 -0.0669  0.0255
20828W        W36962  15.226  14.049   3.678 -0.0633 -0.1357  0.1715
20829W        W36963  16.373  14.264   3.925  0.0483  0.3939  0.0777
20830W        W36964  14.208  10.089   0.158  0.1931 -0.2638 -0.0776
20831W        W36965   5.710   5.453  13.772 -0.3527 -0.1059  0.2699
20832W        W36966   9.589   2.906  15.353  0.0129 -0.0767 -0.1407
20833W        W36967  12.922  16.380   5.436  0.0527  0.1660  0.0524
20834W        W36968  16.768  17.267   2.616  0.0837  0.0244  0.0872
20835W        W36969  15.463   6.848  13.590 -0.0060 -0.3232 -0.0934
20836W        W36970  11.941   0.660   0.521  0.1485  0.0234 -0.0983
20837W        W36971   6.277  17.018   1.642  0.2199  0.2470 -0.1169
20838W        W36972  15.068   4.807  12.633 -0.1022  0.2429  0.1215
20839W        W36973   3.753   7.920   3.747 -0.0293 -0.0107  0.0280
20840W        W36974   2.410  16.464   3.539  0.1126 -0.1126  0.0571
20841W        W36975   1.849  16.218  15.156 -0.1312  0.0940 -0.1103
20842W        W36976  11.793   5.588   4.886  0.0754  0.3365 -0.2237
20843W        W36977  12.513   9.170   3.154 -0.0404  0.0973  0.1240
20844W        W36978   0.699   2.486  16.136  0.2096  0.1991 -0.0256
20845W        W36979   2.974  16.640   3.293  0.3079  0.1890  0.2446
20846W        W36980   8.614  12.072   0.394 -0.2834  0.1145 -0.1791
20847W        W36981   8.188  14.897   2.174 -0.0302 -0.1006 -0.0970
20848W        W36982   8.385   2.395  12.766 -0.0323  0.3345  0.1703
20849W        W36983   6.529   4.147   1.699  0.1948  0.0040  0.0157
20850W        W36984  16.677   2.934   5.249 -0.0132 -0.0478 -0.0128
20851W        W36985   9.454  16.095  11.312 -0.1476 -0.1322 -0.0494
20852W        W36986  10.303   7.917   0.804  0.0407 -0.2494  0.1813
20853W        W36987  16.798  16.066   1.295 -0.2648 -0.1095  0.0544
20854W        W36988  11.014   1.288   2.787 -0.2946 -0.0829 -0.3501
20855W        W36989   3.256  16.649   3.854  0.0594 -0.2613 -0.3122
20856W        W36990  14.131   3.974   2.566 -0.0479  0.0918  0.0088
20857W        W36991   5.847  10.896  12.369 -0.2819  0.0257 -0.4095
20858W        W36992   3.430  14.612   3.777 -0.1584 -0.0283  0.0650
20859W        W36993  15.898   5.233   4.145 -0.0752 -0.1071 -0.1335
20860W        W36994   3.012   2.256   2.238  0.0251  0.2403  0.2645
20861W        W36995   4.871  15.433   3.452 -0.1064 -0.0867  0.3719
20862W        W36996   0.103   5.441  11.632 -0.0091 -0.3833 -0.1564
20863W        W36997  13.968  13.869  15.024 -0.1520 -0.0825  0.3012
20864W        W36998   6.500  15.551  15.769 -0.1172  0.1145 -0.2385
20865W        W36999   3.346  12.526   4.447  0.1396  0.2239  0.0133
20866W        W37000   8.014   5.681   0.865  0.1456 -0.1344  0.2588
20867W        W37001  14.065   8.242   2.599  0.1095  0.0837  0.1566
20868W        W37002  13.111   3.629  14.282  0.1711 -0.1052 -0.0037
20869W        W37003   2.838   3.975   4.316 -0.2825  0.4271  0.2332
20870W        W37004  16.391  17.243  12.221  0.0188  0.3151 -0.1295
20871W        W37005   9.668   6.194  11.571  0.1600 -0.1103 -0.3005
20872W        W37006  10.896  11.847  15.384 -0.1094  0.1678 -0.1834
20873W        W37007   4.799  12.500   0.702 -0.2475 -0.0779 -0.0701
20874W        W37008   5.949  14.517   1.776 -0.0017  0.0035  0.0239
20875W        W37009   8.061  13.333  15.649  0.0825 -0.0285  0.1549
20876W        W37010   4.419  14.737   3.580 -0.0395  0.2697 -0.4270
20877W        W37011   8.886  16.774   1.677  0.0549 -0.3152 -0.0286
20878W        W37012  14.136   3.216  11.253 -0.1712 -0.0113  0.2311
20879W        W37013   9.850  14.427  15.150  0.0335 -0.0929 -0.0175
20880W        W37014   6.789   4.936   1.876 -0.0834 -0.2903  0.2777
20881W        W37015   1.270   3.864   5.169  0.1243  0.3553  0.0022
20882W        W37016   3.140   7.719  13.097 -0.1077 -0.0217  0.0816
20883W        W37017   8.032  13.266   4.107  0.3110 -0.1162  0.3243
20884W        W37018   3.019   0.928   4.533 -0.1389 -0.0804 -0.1976
20885W        W37019   2.110  13.243   1.214 -0.1091 -0.1207  0.1784
20886W        W37020   6.018   4.028   5.165 -0.1751 -0.1502 -0.0751
20887W        W37021   9.727   6.691  11.166  0.3478 -0.1525 -0.0266
20888W        W37022   5.467  14.068  11.648  0.1359 -0.1075 -0.1373
20889W        W37023   9.016   9.614  14.254  0.2070  0.0613  0.2074
20890W        W37024   8.330  16.967   3.382 -0.0348 -0.3371 -0.1178
20891W        W37025   8.369   0.274   4.044 -0.4929  0.0234 -0.1091
20892W        W37026   8.978  13.495   4.122  0.0118 -0.1344  0.3195
20893W        W37027  16.124   2.982  15.815  0.4167 -0.0338 -0.1841
20894W        W37028  14.979   5.679   2.400 -0.0347 -0.1617  0.0191
20895W        W37029   6.122   1.531   1.342  0.2722 -0.1727  0.1968
20896W        W37030   1.984  15.942  11.878  0.0718  0.0310  0.1864
20897W        W37031  17.546   1.119   3.406 -0.0202  0.2735 -0.0234
20898W        W37032   0.353  12.005   5.636 -0.1002  0.1496 -0.1009
20899W        W37033   4.305   6.743   0.312 -0.2035 -0.0163 -0.0920
20900W        W37034   2.049   7.644   2.011  0.4064 -0.0341 -0.1878
20901W        W37035   9.530  13.180   4.748  0.0799  0.3820  0.2861
20902W        W37036   1.272  16.963   0.825 -0.1173  0.3553 -0.0638
20903W        W37037  13.046  17.755  15.265  0.3694  0.0779 -0.0496
20904W        W37038  13.438  14.530   2.563  0.2964 -0.1123  0.0394
20905W        W37039   9.375  10.417  14.596 -0.1046  0.1029 -0.0337
20906W        W37040   6.828  15.132   5.395 -0.0040  0.2037  0.1894
20907W        W37041   4.210  12.423   1.072  0.0497 -0.0032 -0.3247
20908W        W37042   2.715  17.481   0.706 -0.0093 -0.3422  0.4254
20909W        W37043  15.480   8.412  16.511  0.2615 -0.0356 -0.0032
20910W        W37044  16.317  16.270   6.483 -0.0646 -0.0081 -0.0080
20911W        W37045   6.247   3.279   2.796 -0.0627 -0.0686  0.3133
20912W        W37046   1.049   4.934   2.195  0.1945  0.2360 -0.1709
20913W        W37047  10.458   2.914  15.775 -0.0015  0.1237  0.0194
20914W        W37048   5.003   1.355   1.228  0.2473  0.0185  0.3814
20915W        W37049  13.909  17.195  13.181  0.0406  0.2373 -0.2981
20916W        W37050  10.469   7.113   0.246 -0.6314  0.0335  0.1087
20917W        W37051  17.624  10.708  16.446  0.2290 -0.0834  0.0755
20918W        W37052  10.504   3.470   5.807  0.0547 -0.0442  0.1730
20919W        W37053  12.816   7.041  12.400  0.0480  0.0262 -0.0794
20920W        W37054  17.994  12.197  14.355 -0.4112 -0.1693  0.3267
20921W        W37055  16.256  15.555  15.812  0.1587  0.0227  0.0264
20922W        W37056   3.661   4.661   2.020 -0.4589 -0.2780  0.0160
20923W        W37057  12.369   3.383  16.001  0.1362 -0.0948 -0.1569
20924W        W37058   8.990   2.238  12.872 -0.0302  0.0189 -0.0753
20925W        W37059   7.680   8.551   5.128  0.1671  0.0333  0.0083
20926W        W37060  10.289  17.522   2.689 -0.0577 -0.0500  0.3535
20927W        W37061  11.470  11.504   2.003  0.0111  0.1475 -0.0253
20928W        W37062  10.800   1.358   5.396  0.0268  0.0117 -0.0231
20929W        W37063  13.794  10.497  14.619  0.0308 -0.1508 -0.1881
20930W        W37064   0.031  14.919   5.208  0.1072 -0.1108 -0.4136
20931W        W37065   2.441   7.941  11.341 -0.2218 -0.0897 -0.0409
20932W        W37066   9.164   7.272  13.189  0.2167 -0.0585 -0.1482
20933W        W37067  13.667   6.686   3.320  0.0408 -0.2938  0.0789
20934W        W37068  11.491   2.140  12.900 -0.1168 -0.1337 -0.1355
20935W        W37069  17.923  15.629  16.200 -0.0941  0.3771 -0.0245
20936W        W37070  11.525  13.983   2.498 -0.0664  0.2817  0.1813
20937W        W37071  12.730  16.916   2.668  0.0324 -0.1543  0.0745
20938W        W37072  14.341  14.339  13.911  0.2346  0.0060 -0.4774
20939W        W37073   3.653   2.036   0.082  0.3114  0.0344 -0.0900
20940W        W37074   3.356   2.596   4.781  0.2013  0.2624  0.2659
20941W        W37075   1.227  11.312  16.246 -0.1741 -0.0344 -0.2809
20942W        W37076  12.363   9.846  12.788  0.3836  0.1037  0.1075
20943W        W37077  15.003   9.740  11.567 -0.1147 -0.0920  0.2323
20944W        W37078   5.803  16.268  14.859  0.2365  0.1506  0.0481
20945W        W37079  10.217   4.983   1.335 -0.2872 -0.1929 -0.1557
20946W        W37080   8.383  14.807   3.996  0.2417  0.0336  0.0425
20947W        W37081   5.208   7.059   2.014  0.3075  0.0158  0.0419
20948W        W37082   6.429   9.163   0.109  0.1581  0.0432 -0.1651
20949W        W37083  10.294   4.560   1.804 -0.0860  0.2275 -0.0203
20950W        W37084   5.975   4.276  15.945  0.1069  0.0544 -0.3720
20951W        W37085   0.520  17.861   0.392  0.0350  0.4917  0.0455
20952W        W37086   9.737   2.152   4.552 -0.0405 -0.2047 -0.1842
20953W        W37087  10.232   2.941   0.140  0.1227 -0.0202 -0.0154
20954W        W37088   3.082  12.087   2.535 -0.1666  0.0580 -0.0414
20955W        W37089   7.044   1.050  14.942 -0.0265 -0.0007  0.0798
20956W        W37090  15.354  13.996   1.834  0.0864  0.0911 -0.0037
20957W        W37091   4.968   8.922  14.869 -0.1089 -0.1149 -0.0726
20958W        W37092   5.802   2.222   5.650 -0.1829  0.1579 -0.4147
20959W        W37093  16.226  12.089   4.024  0.0730  0.0041  0.1202
20960W        W37094   4.047  18.114   0.286  0.0804  0.1787  0.1681
20961W        W37095  12.644   7.115   1.159 -0.0175  0.0148  0.0165
20962W        W37096   2.883  12.498  14.343 -0.2050 -0.1397  0.3386
20963W        W37097   2.810  12.491   4.535  0.3768  0.0040 -0.0830
20964W        W37098   2.570  15.697  15.663  0.0652  0.0567  0.2433
20965W        W37099   6.408  11.967  11.471 -0.2475  0.0830 -0.2194
20966W        W37100  11.462  17.557  14.224  0.1254  0.1195 -0.2277
20967W        W37101   3.140   1.635   6.400 -0.0534 -0.1239 -0.2590
20968W        W37102   6.458  16.491   2.507  0.0595  0.1962  0.0106
20969W        W37103  12.332  16.900  16.166 -0.0179 -0.4128  0.1528
20970W        W37104   9.049   6.226  10.671  0.1586 -0.1328  0.3263
20971W        W37105   7.636  13.103   5.253  0.1429 -0.2015 -0.2783
20972W        W37106  12.623  14.993   3.097  0.1528 -0.0650  0.1981
20973W        W37107   9.718  11.113   4.589 -0.1512 -0.2800 -0.1387
20974W        W37108   9.928  16.590  14.726  0.0613  0.1872 -0.1161
20975W        W37109   6.764  14.936   2.257  0.2623 -0.2793 -0.4011
20976W        W37110   3.141   8.545  13.214 -0.3097  0.2548 -0.0617
20977W        W37111  14.425  12.767   3.371  0.0054 -0.0184 -0.3070
20978W        W37112  15.002   4.706   0.748  0.0088  0.1019  0.1024
20979W        W37113   3.177  17.904   5.400  0.0460 -0.0996  0.0227
20980W        W37114   6.205   2.059   3.052 -0.2889  0.1900 -0.1308
20981W        W37115  16.231   9.747  11.827 -0.2744  0.0165  0.0651
20982W        W37116  17.407   8.988  13.097 -0.3652 -0.4580 -0.0683
20983W        W37117   9.162   5.272   1.544 -0.2099  0.1878 -0.0862
20984W        W37118   9.390  10.836   2.584 -0.1484 -0.1366 -0.2765
20985W        W37119  13.720  15.957   2.195  0.0950 -0.0007  0.2518
20986W        W37120   4.353   0.162  14.320  0.0066 -0.2335 -0.2504
20987W        W37121   6.750  10.212   3.437 -0.1059 -0.3152 -0.0245
20988W        W37122   7.499   4.009   4.785 -0.0108  0.1693  0.0395
20989W        W37123   6.215   2.568   1.460  0.0903 -0.2343  0.1039
20990W        W37124  16.688   5.959   4.256 -0.0571  0.2480  0.2149
20991W        W37125  10.053   0.744   0.745  0.2138 -0.0766 -0.0917
20992W        W37126  11.488   2.685  14.234  0.2032  0.0011  0.1524
20993W        W37127  11.465  14.215  14.717 -0.1126 -0.2424 -0.2124
20994W        W37128   7.591  11.824  13.525 -0.3426 -0.3734  0.1190
20995W        W37129   8.838   0.996  12.433 -0.0156  0.2242 -0.1179
20996W        W37130  14.568   0.731  14.877 -0.4224  0.3469  0.1859
20997W        W37131   7.186  17.941   3.327  0.0568 -0.0650 -0.2019
20998W        W37132   4.466  15.864   3.319 -0.1179 -0.0733  0.1079
20999W        W37133   9.962  13.822  15.722  0.0890 -0.0200 -0.3477
21000W        W37134   5.386  10.039   0.507  0.4821  0.1246  0.1393
21001W        W37135   0.942   8.385   0.529  0.0471  0.1378  0.0668
21002W        W37136   7.280  17.426   5.395 -0.3390 -0.1115  0.1991
21003W        W37137  14.274  10.821  13.126  0.2808 -0.1744 -0.1732
21004W        W37138   2.922  10.619   4.627  0.3235  0.0521 -0.3120
21005W        W37139   4.149   4.477   3.891  0.0421  0.1639 -0.0365
21006W        W37140   5.967   0.674   5.841 -0.2300 -0.2428  0.3880
21007W        W37141   7.500  13.268  15.591  0.0408  0.1170 -0.3025
21008W        W37142   5.700   5.882  15.373 -0.1124  0.2489 -0.0533
21009W        W37143   6.630  13.201   2.193 -0.1475 -0.3507 -0.2846
21010W        W37144   6.553  12.845  11.680 -0.3104 -0.1503  0.2646
21011W        W37145  12.023  12.707   5.466 -0.0426  0.3763 -0.0479
21012W        W37146   4.474  12.853   0.978 -0.1738  0.2766 -0.0580
21013W        W37147  15.487   2.709  15.773 -0.1876  0.1356 -0.0046
21014W        W37148   2.657   8.242  12.990  0.2816 -0.0063  0.0001
21015W        W37149  10.827   5.149   5.604 -0.2370  0.3633 -0.0439
21016W        W37150  15.505   8.301   3.103 -0.2125  0.2137  0.0479
21017W        W37151   2.887  16.172   3.104 -0.1853 -0.3270 -0.0620
21018W        W37152   2.152   0.080   5.012  0.1725  0.0253 -0.4436
21019W        W37153   8.363  14.500  14.968 -0.1530  0.0072  0.2541
21020W        W37154   0.077   6.187  12.672  0.1177  0.5107  0.2825
21021W        W37155   8.147  12.347  14.892 -0.1740 -0.0840  0.2644
21022W        W37156  14.714   4.475  16.272 -0.2107  0.0022  0.0412
21023W        W37157   6.009   2.999   1.515 -0.0327 -0.0409 -0.0907
21024W        W37158   1.247   2.096  11.810 -0.3145 -0.1413 -0.1330
21025W        W37159   4.197  11.540  14.701  0.0939  0.4409 -0.0331
21026W        W37160  10.946  10.796   0.932  0.1687 -0.0137  0.1504
21027W        W37161  15.762  12.039  12.709 -0.0359  0.1578 -0.0761
21028W        W37162   5.355   6.130   4.888  0.1528 -0.1076 -0.1481
21029W        W37163  17.056  14.473   4.373 -0.1588 -0.1014  0.0519
21030W        W37164   8.561   8.047  13.655 -0.3352  0.0631 -0.2352
21031W        W37165  11.331  17.309  15.054  0.1062 -0.2685  0.2319
21032W        W37166  16.863   0.563   3.007 -0.0155  0.2742 -0.0956
21033W        W37167   2.908   2.716  12.310  0.0311 -0.2604  0.1901
21034W        W37168   4.738   6.953  16.450 -0.1920  0.1355  0.3101
21035W        W37169   1.969   2.260   4.402 -0.0921 -0.0137 -0.1827
21036W        W37170   0.853   4.041  13.587 -0.0874 -0.2074  0.1594
21037W        W37171  11.748   7.292   0.617  0.0018  0.0963  0.2890
21038W        W37172   6.261   2.870  10.692  0.0583 -0.0921  0.0763
21039W        W37173   8.820   9.224   3.580  0.2264 -0.2569 -0.2064
21040W        W37174   5.465   5.272   2.703 -0.0477 -0.0631  0.3110
21041W        W37175  14.417  18.071  15.416  0.0552 -0.1051 -0.1343
21042W        W37176   4.239   0.768   6.293  0.1311 -0.2051 -0.3240
21043W        W37177   8.743  13.024   1.814 -0.1024 -0.0985 -0.0376
21044W        W37178   4.234   6.931   3.065  0.3138 -0.1420  0.1045
21045W        W37179  11.280   7.345  11.030 -0.1786  0.1776 -0.0062
21046W        W37180   9.688  12.685   1.697  0.1112 -0.0316 -0.3998
21047W        W37181  17.934   7.957   0.058 -0.1770 -0.0052  0.3815
21048W        W37182  13.456   5.646   1.980 -0.0107 -0.2503  0.3408
21049W        W37183   4.138   2.098   4.989 -0.2693  0.3899 -0.0237
21050W        W37184   7.709   7.298   4.345 -0.1187  0.1755 -0.0513
21051W        W37185   2.680   3.798  16.233 -0.0047 -0.0252 -0.0709
21052W        W37186  10.168  10.619   1.720 -0.1378 -0.0992  0.1723
21053W        W37187  15.014  12.901   4.004  0.1853 -0.1629  0.0522
21054W        W37188  12.467   9.173   4.177 -0.2072 -0.1106 -0.0652
21055W        W37189   2.396  10.580  14.903 -0.1493 -0.0517 -0.0059
21056W        W37190   1.620  10.088   3.381 -0.0131 -0.0353  0.1351
21057W        W37191   0.082   0.622   5.315 -0.1940 -0.0271  0.2613
21058W        W37192  15.100  11.627   0.990 -0.1928  0.0601 -0.0668
21059W        W37193   9.106   2.702  14.101 -0.1488  0.1122  0.0664
21060W        W37194  15.270   4.222   0.467  0.4387  0.3030 -0.0179
21061W        W37195   9.098  17.440   1.979  0.1011 -0.1606  0.1072
21062W        W37196  15.817   3.635  13.172  0.0270 -0.1121  0.0354
21063W        W37197  13.929   7.934   4.474 -0.1212  0.3343  0.0905
21064W        W37198  15.146  17.308   3.841  0.0630 -0.1537  0.0558
21065W        W37199  12.421   7.567  15.135  0.0639 -0.2424  0.3575
21066W        W37200   8.433  12.403  12.586 -0.0241 -0.2004 -0.1708
21067W        W37201  11.610  17.491   3.052  0.0347 -0.1909  0.2035
21068W        W37202  12.115   3.468   0.062 -0.0643 -0.0691 -0.0629
21069W        W37203  16.572   7.366   3.154 -0.3027  0.0906  0.0908
21070W        W37204  16.739   9.979  14.035  0.2839  0.0774  0.1207
21071W        W37205   5.418  15.696   0.555  0.2865  0.0242 -0.1732
21072W        W37206   8.470  10.257   0.707  0.0044  0.1123 -0.3308
21073W        W37207   2.201  12.137   0.603  0.1030 -0.1370 -0.1088
21074W        W37208  10.120  13.091  14.267 -0.2687 -0.0512 -0.0377
21075W        W37209  12.464  10.544   2.217  0.1124  0.0580 -0.3665
21076W        W37210   7.100   4.010  14.524 -0.1724  0.0071 -0.0994
21077W        W37211   6.967   3.096  13.458  0.2870  0.0930 -0.1985
21078W        W37212  15.665   6.173  11.356 -0.2570  0.0923 -0.2532
21079W        W37213  10.946   3.653  12.291 -0.1222  0.2745 -0.0149
21080W        W37214   8.661  11.160  14.811 -0.1445 -0.0753 -0.0968
21081W        W37215   2.580   0.684  13.542 -0.0104 -0.0237 -0.1297
21082W        W37216  16.627   7.685   2.064 -0.0201  0.1033  0.1202
21083W        W37217   4.116   2.975  11.789 -0.1101  0.0033 -0.0903
21084W        W37218   1.839   5.249   1.543 -0.2236  0.1797 -0.0679
21085W        W37219  16.671   7.656  11.315 -0.2398 -0.0134 -0.2274
21086W        W37220   8.086  10.406   3.188  0.0405 -0.3258  0.1211
21087W        W37221  12.837   3.684   2.102 -0.2064 -0.1691  0.3455
21088W        W37222   3.866   3.798  12.959 -0.1330  0.0816 -0.1889
21089W        W37223  12.899  10.027   4.768 -0.0980 -0.0199 -0.2090
21090W        W37224  17.981   7.112  14.472  0.2339 -0.1135 -0.0779
21091W        W37225   8.971  10.985   0.810  0.0102  0.0505 -0.1878
21092W        W37226  10.794   8.284   0.819 -0.0009 -0.2533  0.3283
21093W        W37227  10.132   8.062   5.217 -0.0731 -0.2977 -0.2815
21094W        W37228  15.145   1.602  11.532  0.0858  0.0903 -0.1018
21095W        W37229   4.150   3.291   3.107 -0.0322 -0.0951 -0.3022
21096W        W37230  16.299   6.110  14.184  0.4160 -0.0112  0.1632
21097W        W37231   3.424   5.632   3.871  0.0208 -0.1422 -0.1661
21098W        W37232   1.149   3.521  11.685  0.1096  0.0856  0.0611
21099W        W37233   2.396   5.616  13.294  0.4103 -0.0841  0.1967
21100W        W37234  17.383  16.566   2.744 -0.1690  0.0477  0.1174
21101W        W37235  17.979  16.731   0.565  0.1804 -0.0714 -0.1771
21102W        W37236   2.444  16.490   6.244 -0.1611 -0.1525  0.2360
21103W        W37237  18.075  10.871  12.720 -0.0227  0.2288 -0.2101
21104W        W37238  17.908  10.999   0.924 -0.2434  0.1939 -0.1385
21105W        W37239   2.622   8.674  10.998 -0.0053 -0.1283  0.2382
21106W        W37240   2.590   1.523  14.837 -0.0913 -0.0858  0.1722
21107W        W37241   3.084  11.261  12.058 -0.1005 -0.6097  0.0091
21108W        W37242  12.205  14.685   2.960 -0.2798  0.1549 -0.4143
21109W        W37243   6.628  10.469   0.357  0.2344  0.1115  0.0751
21110W        W37244  13.897  11.896   0.255 -0.2969  0.0078  0.0424
21111W        W37245   7.311  11.673   4.864 -0.0509 -0.0767 -0.3588
21112W        W37246   7.034   9.320   9.544 -0.1296 -0.1843  0.0861
21113W        W37247   6.692   1.996  16.054  0.1572  0.1474 -0.1015
21114W        W37248   1.620   6.833  14.446 -0.1325  0.0427 -0.0544
21115W        W37249  10.013   8.999  16.345  0.1007 -0.1765 -0.1331
21116W        W37250  15.491   3.640  15.674  0.0974 -0.7263 -0.4031
21117W        W37251   9.487   4.655   4.048  0.2073  0.0521  0.2261
21118W        W37252  13.589  13.273   1.558  0.1970 -0.0107  0.0611
21119W        W37253  13.942   1.373   4.554  0.0273 -0.3774 -0.1122
21120W        W37254   3.955  16.857   0.365 -0.3767 -0.1538  0.2854
21121W        W37255   1.764   7.431  10.082 -0.0439  0.2382  0.0254
21122W        W37256  17.776   6.757  15.789 -0.3177 -0.0627  0.4266
21123W        W37257   3.149   4.507  15.835 -0.2910  0.1048 -0.1084
21124W        W37258   0.426   3.384   5.287 -0.2731  0.0103 -0.1520
21125W        W37259   0.445   1.222  13.250 -0.1591  0.1453  0.0933
21126W        W37260  11.619  15.297   3.185 -0.0666  0.0771  0.4781
21127W        W37261   8.481   9.884  11.915  0.2354 -0.1268  0.2075
21128W        W37262   6.108   9.366  11.501  0.0844  0.3555  0.2659
21129W        W37263  10.263   2.200   2.074 -0.1588 -0.0871  0.1575
21130W        W37264  13.973  14.451   5.301 -0.0788 -0.1265 -0.1262
21131W        W37265  17.479  12.513   1.098  0.2004  0.2087  0.1916
21132W        W37266  10.349  11.741   5.549  0.1444 -0.2489 -0.2844
21133W        W37267  15.354   0.910  15.235 -0.1830  0.0427  0.2118
21134W        W37268   0.835   2.100  13.469 -0.0799  0.0143 -0.4074
21135W        W37269   1.426   0.020   3.784  0.0994  0.1869  0.0389
21136W        W37270   7.719   6.595   5.139 -0.1937  0.1083  0.2121
21137W        W37271   0.335   7.257   3.485  0.3309  0.2142  0.2780
21138W        W37272  12.837  14.968  15.392 -0.1996 -0.1751  0.0128
21139W        W37273   2.325   7.834  15.283 -0.1896 -0.0521  0.0402
21140W        W37274   7.067  17.073   3.135  0.0808  0.0450  0.0529
21141W        W37275  10.508   5.133   1.735  0.2130  0.0782  0.0024
21142W        W37276  13.024  16.320  15.890 -0.3050  0.0000  0.3029
21143W        W37277   2.915   3.185  16.286 -0.0442  0.0554 -0.0273
21144W        W37278   5.706   8.869   2.226 -0.0157  0.1157  0.0239
21145W        W37279   3.224   4.182  11.648 -0.0622  0.0613  0.1963
21146W        W37280   1.066   1.662   1.258  0.1168  0.1585 -0.2861
21147W        W37281   3.391   7.784   2.373  0.0165  0.2412 -0.5594
21148W        W37282   2.048   7.037  12.665 -0.0432  0.0919  0.0388
21149W        W37283   8.516  15.428   0.250  0.2414  0.2910  0.2229
21150W        W37284   0.732  10.729  13.378  0.0207 -0.0046  0.1191
21151W        W37285   5.114   4.209   4.903  0.1670  0.2196  0.1199
21152W        W37286  13.874  16.510  15.266 -0.2328  0.4307 -0.1579
21153W        W37287   8.572  17.153   2.923  0.3283  0.0524 -0.1723
21154W        W37288   7.700   7.434  12.267  0.0354  0.2270 -0.2234
21155W        W37289   5.939   5.153  14.088  0.3017  0.2184 -0.1944
21156W        W37290  17.748  11.748   0.270  0.2127 -0.0931  0.2503
21157W        W37291   4.680  11.468  14.648 -0.1315  0.2455  0.0931
21158W        W37292  17.113   7.582  11.033  0.5022  0.0993  0.0999
21159W        W37293   9.122   8.790  13.686 -0.2108  0.2259  0.2411
21160W        W37294   7.293  11.013   4.307 -0.3582 -0.0390 -0.0016
21161W        W37295   9.528  14.783  13.104  0.1847  0.2836 -0.0544
21162W        W37296   9.812  15.622   3.120 -0.0527 -0.1605 -0.0912
21163W        W37297  16.125  17.405  13.094  0.1190  0.3720  0.0304
21164W        W37298  17.935   6.203  13.929 -0.2394  0.0228  0.0533
21165W        W37299  14.856   6.594   3.266 -0.0201  0.0311 -0.1492
21166W        W37300  17.755   8.731  12.765  0.0655  0.2257 -0.0090
21167W        W37301  16.440   3.381  16.119  0.1607  0.1882  0.1622
21168W        W37302  13.182   2.915  16.207 -0.0626  0.0454  0.1357
21169W        W37303  18.061   3.194  14.750 -0.0040  0.1340  0.0750
21170W        W37304   0.679   4.809   4.635 -0.0451  0.1956 -0.2824
21171W        W37305  13.350  17.591   1.326 -0.1076 -0.1836  0.0254
21172W        W37306   7.809  12.010  15.619 -0.3390  0.1419 -0.0643
21173W        W37307   3.419  13.489   5.093 -0.0606  0.1963 -0.0512
21174W        W37308  11.198   8.141   4.606 -0.0379  0.2202  0.0351
21175W        W37309  15.727   2.828   3.122 -0.0913  0.0076 -0.2144
21176W        W37310  13.430  11.116   5.477 -0.1535  0.3045  0.1451
21177W        W37311  17.534  13.983  15.054  0.5598  0.1341 -0.0653
21178W        W37312  11.536   0.763  12.850 -0.0212  0.2037 -0.0114
21179W        W37313   5.192  10.235  12.665  0.0988  0.1089 -0.2451
21180W        W37314  15.705   6.636  11.429  0.1287  0.0701 -0.1613
21181W        W37315   3.723   2.327   1.115  0.2383  0.0462 -0.0057
21182W        W37316   0.515  16.937  13.613 -0.2727  0.0107 -0.1998
21183W        W37317  10.949   5.738  12.222 -0.0306 -0.1310  0.1308
21184W        W37318  15.982  17.692   0.734  0.0019  0.1270 -0.0290
21185W        W37319   4.677  11.593   4.946  0.2242  0.1959 -0.0628
21186W        W37320  10.628   7.473  13.307 -0.0775 -0.0985 -0.1750
21187W        W37321   1.213   5.900  14.826  0.0605  0.2703  0.2320
21188W        W37322   5.208   1.462  15.483  0.1202 -0.0817  0.2639
21189W        W37323  13.357   0.347   1.766 -0.3299  0.1846 -0.3007
21190W        W37324  10.831  16.719  14.457 -0.4363  0.2056  0.0951
21191W        W37325   4.355  12.954  14.786  0.0528  0.3315  0.2421
21192W        W37326   4.611   9.822   1.214 -0.3202 -0.0642 -0.1386
21193W        W37327   3.490   6.654   4.676 -0.0718  0.0512  0.0063
21194W        W37328   1.726   0.733  14.156  0.0469  0.1836 -0.1665
21195W        W37329   0.702   5.137   1.242 -0.3374  0.0376  0.1480
21196W        W37330   7.038  17.287   1.096 -0.1755 -0.0675  0.1908
21197W        W37331  11.285   0.704   2.121 -0.0855 -0.1168  0.0244
21198W        W37332   8.869  14.271   0.240  0.0761  0.1433  0.1725
21199W        W37333   6.054   3.562  14.403 -0.2150  0.0373 -0.1791
21200W        W37334   3.521  11.992   2.998 -0.3227  0.1295 -0.0381
21201W        W37335   6.709   2.178  14.289 -0.0131  0.0554  0.0800
21202W        W37336   8.100   7.670  15.576  0.2813 -0.0989 -0.3251
21203W        W37337   3.889   6.378  10.409 -0.0709  0.0699 -0.2894
21204W        W37338  12.723   9.951  13.339  0.1844 -0.0109  0.1553
21205W        W37339   1.318  11.313   0.525 -0.2639 -0.3032 -0.1325
21206W        W37340  15.505  11.843  15.860 -0.0221 -0.0618  0.0884
21207W        W37341   0.080  16.620  12.745 -0.0229 -0.0089  0.1890
21208W        W37342   3.169   7.467  14.153 -0.0867 -0.1169 -0.1489
21209W        W37343   1.605  11.202   0.061  0.1990 -0.1850  0.0141
21210W        W37344  10.434   3.542   0.247 -0.1620  0.1525  0.0850
21211W        W37345   3.547   6.832   1.193 -0.1201  0.0557 -0.3482
21212W        W37346   1.301  12.733   5.070  0.0290  0.0322  0.1313
21213W        W37347  16.963  10.000   0.885  0.0556  0.0167  0.0973
21214W        W37348   5.514  11.622   0.922 -0.6141  0.0131 -0.1122
21215W        W37349   4.171  13.791  12.626  0.1335  0.2974 -0.1641
21216W        W37350   8.255   0.320  12.557 -0.2448 -0.1720 -0.0304
21217W        W37351   7.751  14.267   2.893  0.1237 -0.1685 -0.3013
21218W        W37352   6.938   5.275  11.239  0.1159 -0.1942  0.2699
21219W        W37353  10.779   5.998   4.650 -0.1465 -0.0539 -0.1312
21220W        W37354   3.440   8.361   1.723  0.1007  0.0485 -0.0738
21221W        W37355   3.278   7.931   1.479 -0.1692  0.5583  0.1073
21222W        W37356  12.735   2.677   0.392  0.0491 -0.0621 -0.0246
21223W        W37357  15.941  13.293   2.628 -0.1319  0.0046  0.0902
21224W        W37358  18.169   5.874  11.891  0.0591  0.4269  0.0702
21225W        W37359  12.733  17.435  14.910  0.1425  0.0371 -0.1199
21226W        W37360   9.879  17.517  15.147  0.0040 -0.1206  0.0209
21227W        W37361   2.676  18.134   1.573  0.1771 -0.0797 -0.2387
21228W        W37362  16.413  14.775   5.153  0.2339  0.2269 -0.0846
21229W        W37363  12.194  15.196   4.236 -0.0204  0.2661 -0.0847
21230W        W37364  15.022   0.823   2.108  0.0992  0.1101 -0.2440
21231W        W37365  11.920   0.980  16.365  0.3094  0.2130 -0.0826
21232W        W37366   3.565  11.410  12.512  0.0656 -0.3054 -0.0353
21233W        W37367  11.639   5.135   4.515  0.0206 -0.2922  0.0887
21234W        W37368   8.462   2.858  12.879 -0.0889 -0.4098  0.1093
21235W        W37369   1.953   5.368  11.488  0.1105  0.0216 -0.0851
21236W        W37370  13.953   5.018  11.771  0.0049 -0.1087  0.1485
21237W        W37371   4.285   7.400   0.735  0.1753 -0.0395 -0.0805
21238W        W37372   6.182   6.599  15.820  0.0276 -0.1092  0.4673
21239W        W37373  17.323   2.186  13.755 -0.0229  0.0454  0.1659
21240W        W37374  15.102  12.882  15.541  0.1431  0.3693 -0.2260
21241W        W37375   2.296  15.970   4.494  0.1126 -0.0923  0.1290
21242W        W37376   7.146   1.923  12.446  0.1937 -0.2545  0.0737
21243W        W37377  13.386   1.526   0.285  0.6041 -0.3672  0.2716
21244W        W37378   2.552   6.658   6.336  0.0566  0.2945 -0.0040
21245W        W37379   1.898   9.744  16.328 -0.0546  0.0523  0.0344
21246W        W37380   1.159  16.791   2.823 -0.2568  0.1244 -0.1663
21247W        W37381  14.429  16.620   2.608 -0.3281 -0.4144  0.1458
21248W        W37382   0.697   3.148  12.445  0.0674 -0.0434  0.1611
21249W        W37383   0.449   0.147  14.139 -0.2795 -0.2562  0.3505
21250W        W37384  16.768   9.735   2.605  0.0377 -0.1697  0.1507
21251W        W37385   4.567   5.034   2.048 -0.0772 -0.0107  0.3373
21252W        W37386   6.242  13.254   3.023 -0.2983 -0.2874 -0.0075
21253W        W37387   7.702  16.196  16.109 -0.1361 -0.0639 -0.0728
21254W        W37388   5.947  16.394   2.455  0.0587  0.1644  0.3695
21255W        W37389  14.444  13.644  15.889 -0.3159  0.2112 -0.3334
21256W        W37390  14.717  11.498   1.878 -0.4280  0.1279 -0.3616
21257W        W37391  16.857   5.491  15.730 -0.0969 -0.0266  0.0066
21258W        W37392   1.500   8.231  14.959 -0.0799 -0.1491  0.0006
21259W        W37393  12.033   9.893  14.570  0.0582  0.3008  0.0862
21260W        W37394   0.914  15.836   2.070  0.0295 -0.1430 -0.0051
21261W        W37395   9.499  16.046   3.902  0.2202 -0.1796 -0.0343
21262W        W37396  11.350  16.534  12.893  0.0546  0.1676  0.4962
21263W        W37397   4.134  12.763  15.224  0.1439 -0.0596 -0.0354
21264W        W37398  10.374   9.711  11.770 -0.1236  0.1099 -0.2483
21265W        W37399   4.643   6.744  13.398 -0.3416 -0.0371  0.0922
21266W        W37400   9.517  17.587   0.704 -0.0619 -0.3052 -0.2672
21267W        W37401  18.156   9.191   3.905 -0.0810  0.3667  0.0710
21268W        W37402  14.083  11.872  16.269  0.3207  0.2230 -0.1227
21269W        W37403  10.896  10.288   2.411  0.1404  0.1333  0.0689
21270W        W37404   3.287   2.979  16.016  0.2056 -0.2674  0.0968
21271W        W37405   0.205  10.465  12.548 -0.0650 -0.0350  0.0635
21272W        W37406   2.540  10.040  13.385 -0.0506  0.2801  0.0666
21273W        W37407   9.795  10.064   2.609  0.0678  0.1248 -0.0417
21274W        W37408  10.247  11.901   4.562  0.1711  0.1871  0.1943
21275W        W37409   5.664  17.556  13.080  0.1858  0.0115 -0.0880
21276W        W37410   9.199  16.276   5.658 -0.0246 -0.0035  0.0864
21277W        W37411   9.991  11.919   5.248 -0.0678 -0.3290 -0.0564
21278W        W37412   3.771  13.794   2.181  0.0397  0.0044 -0.0757
21279W        W37413   8.133  15.879   3.129  0.0404 -0.0671  0.0480
21280W        W37414   0.701   7.231  14.571 -0.0542 -0.0552  0.1612
21281W        W37415  12.418   0.782  15.615 -0.2329  0.0195  0.4930
21282W        W37416  17.657   4.049  11.792  0.1304 -0.0394  0.0787
21283W        W37417  15.649   5.055   3.131 -0.3336 -0.2612  0.0269
21284W        W37418   8.120   0.420   4.871  0.5587  0.2278 -0.4241
21285W        W37419   1.322   1.882  14.258 -0.0255  0.3768  0.0173
21286W        W37420  15.842   3.512  11.638  0.0118  0.0206 -0.2289
21287W        W37421  13.361   8.751  12.992 -0.1323  0.3117 -0.1116
21288W        W37422   9.647  10.773  13.711 -0.2577 -0.1438 -0.0716
21289W        W37423   3.664  15.228   3.981  0.0174  0.2512  0.1280
21290W        W37424   9.051   2.835   2.220 -0.0269  0.0498  0.1396
21291W        W37425   9.675  18.050   5.268 -0.2983  0.2149  0.1314
21292W        W37426   2.469   1.616  15.682 -0.0905  0.0477 -0.1271
21293W        W37427  15.322   1.070   5.405 -0.1721 -0.0587 -0.0880
21294W        W37428   5.827   2.676   5.236 -0.0681 -0.0411 -0.1920
21295W        W37429   3.816  14.505  12.250  0.4174  0.2791  0.0974
21296W        W37430  15.678  17.537  16.136  0.1628 -0.0485 -0.0963
21297W        W37431   1.809   3.346  16.196 -0.1079  0.1856 -0.0354
21298W        W37432  14.051  10.628   0.375  0.0703 -0.2899 -0.1625
21299W        W37433   5.810   1.668  15.097  0.1450  0.1790 -0.3421
21300W        W37434  12.171   9.052  11.533 -0.0708 -0.1085  0.2707
21301W        W37435   2.807   5.718   1.412 -0.1600  0.0449  0.0008
21302W        W37436  16.064  16.641  16.075  0.2431  0.0051 -0.0189
21303W        W37437  14.305   9.710   2.445  0.2405 -0.0867  0.4050
21304W        W37438   0.876   9.536   2.670  0.1206 -0.1490 -0.1338
21305W        W37439   7.244  10.446  10.935  0.2215  0.0293  0.0198
21306W        W37440   2.241   6.479  16.009 -0.1008 -0.1137 -0.1218
21307W        W37441  15.265  14.543  13.943 -0.0275  0.0565  0.1237
21308W        W37442   8.358   2.368   4.595 -0.1273  0.2038 -0.0739
21309W        W37443   1.516   1.029   2.354  0.1215  0.3459  0.0572
21310W        W37444   7.673   3.786   4.308 -0.0485 -0.0913  0.3734
21311W        W37445   8.754   5.241   3.012  0.1111  0.0397  0.2927
21312W        W37446  11.090   2.733   5.579  0.1893 -0.0448 -0.1612
21313W        W37447   2.699  13.310  11.738 -0.3241 -0.1145  0.1975
21314W        W37448  16.799   2.236   1.225 -0.1503 -0.1651 -0.1365
21315W        W37449  12.273  10.043  12.274 -0.0522  0.1832 -0.0936
21316W        W37450   0.824   5.210  13.231 -0.0252  0.3560 -0.2528
21317W        W37451  12.972  10.117  11.958 -0.0648 -0.1891  0.3762
21318W        W37452   2.823   8.443   2.623 -0.2693 -0.3076  0.1540
21319W        W37453   5.298  11.367   1.971  0.0371  0.1066  0.1202
21320W        W37454  11.862   0.227   3.039  0.0044  0.0264 -0.0669
21321W        W37455   1.653  10.113   4.041 -0.3231 -0.0780 -0.0879
21322W        W37456  15.211   4.779  14.482  0.1624 -0.1210 -0.1800
21323W        W37457   3.491   3.507  13.751 -0.0267  0.3056 -0.2023
21324W        W37458  17.712   4.774  13.106  0.0900  0.1685  0.3134
21325W        W37459   9.641   2.413   3.297 -0.3259  0.1381 -0.1654
21326W        W37460  17.275   2.397   3.527  0.0391 -0.1473 -0.0746
21327W        W37461  15.401  11.724   4.682  0.0216 -0.1520  0.5213
21328W        W37462  17.190   1.226   0.784  0.0642  0.2442 -0.1785
21329W        W37463   6.397  14.024   4.186  0.1169  0.1045 -0.0430
21330W        W37464  13.921  15.481   2.212 -0.1625  0.7007  0.1935
21331W        W37465   2.965  14.877  12.065 -0.1839  0.1043 -0.0178
21332W        W37466  12.300  17.218  14.953  0.0683 -0.1372 -0.1321
21333W        W37467   9.907   4.134  15.642  0.0433  0.2453 -0.0905
21334W        W37468   8.253  15.566   0.754 -0.1580  0.2028  0.0494
21335W        W37469  15.786  14.777   0.648 -0.0544 -0.0021  0.1516
21336W        W37470   9.515   2.740   4.450 -0.0871  0.0246 -0.1111
21337W        W37471  16.904  10.518   4.552 -0.1068 -0.1783 -0.2111
21338W        W37472  10.171   3.203   4.404 -0.2060  0.2024  0.0327
21339W        W37473   5.174  17.396  12.977  0.0514  0.0532 -0.5115
21340W        W37474   7.147   3.861   2.476 -0.0405  0.0869  0.0469
21341W        W37475  11.178   6.370  11.365 -0.0257 -0.1252  0.1964
21342W        W37476   7.917  12.839  15.668 -0.1899  0.0318 -0.0109
21343W        W37477   7.972   7.184  10.439  0.0540 -0.0999 -0.3005
21344W        W37478  15.746   9.649  11.786  0.2240 -0.3188  0.0480
21345W        W37479  11.131   7.347  14.904 -0.0780 -0.1275 -0.2816
21346W        W37480   1.400  16.491  10.829 -0.2123 -0.0793  0.0200
21347W        W37481  11.446  13.574  15.459  0.1748  0.0151  0.0405
21348W        W37482  16.495  13.223   5.984 -0.1407 -0.0670 -0.0477
21349W        W37483   0.911   1.639   3.830 -0.2545  0.1624 -0.1552
21350W        W37484   9.830   3.596   4.443 -0.1979  0.0606 -0.3548
21351W        W37485  15.785   9.056   3.266 -0.1996  0.0933 -0.1046
21352W        W37486  13.661   0.402  15.975 -0.1975  0.0033  0.0489
21353W        W37487   8.980   3.160   4.376 -0.1717 -0.1017 -0.0348
21354W        W37488   0.442  12.238   4.275 -0.1814  0.0767  0.0555
21355W        W37489  15.037  12.230  14.379 -0.2573 -0.0591  0.3572
21356W        W37490  15.724   2.901   4.072  0.0123  0.1960 -0.0981
21357W        W37491   7.302  14.743   0.063  0.1158 -0.0423  0.0480
21358W        W37492  12.306   4.715  15.669 -0.0587 -0.2072 -0.1091
21359W        W37493  13.103  15.260   4.631 -0.1759 -0.2030  0.1897
21360W        W37494   6.180   5.495  15.319  0.0114 -0.3713  0.2466
21361W        W37495   4.189  13.461  15.992 -0.1027 -0.1303  0.0241
21362W        W37496   5.024  10.554   5.650  0.2509  0.1388  0.0085
21363W        W37497   2.114   0.474  13.303  0.2581  0.1109  0.3355
21364W        W37498  18.149   8.295   5.339  0.1597 -0.0845  0.1046
21365W        W37499   2.505   8.407   0.970 -0.0581  0.0267  0.1370
21366W        W37500   7.845  10.355   4.788 -0.2627  0.1123  0.0791
21367W        W37501   3.155   9.010  14.196  0.1498  0.2353  0.2208
21368W        W37502  12.729  12.918   3.500 -0.1185 -0.3443 -0.2106
21369W        W37503   6.648   2.622   4.516 -0.1178  0.0606  0.0964
21370W        W37504   8.450   4.564  12.397 -0.1716  0.1691  0.0333
21371W        W37505  11.679   8.854   0.944  0.0634 -0.2007  0.2598
21372W        W37506   5.055  12.712   0.289  0.0815  0.2242 -0.0186
21373W        W37507   8.794  11.552   4.016  0.0478  0.0414 -0.1412
21374W        W37508  16.637   0.803   2.629 -0.0561 -0.1095  0.0049
21375W        W37509   8.563   3.785  16.427  0.0677 -0.0886 -0.2247
21376W        W37510   1.767  13.850  15.521 -0.0542  0.1027  0.0174
21377W        W37511   2.602   8.953   5.143 -0.1257  0.2016  0.0256
21378W        W37512   4.095  14.722  15.539 -0.3266 -0.0070  0.3743
21379W        W37513  14.304  10.062   5.051  0.1025  0.0658  0.0403
21380W        W37514  12.174  13.220   2.877 -0.0008 -0.0107 -0.2221
21381W        W37515   3.696   2.961  15.074  0.0386 -0.1841  0.0653
21382W        W37516  12.250   3.004   6.322 -0.0326  0.1124  0.1036
21383W        W37517   6.844  13.928   3.349 -0.2305  0.0589 -0.1243
21384W        W37518  11.935   7.643  11.450  0.1186  0.0797  0.1612
21385W        W37519   7.478  13.468   1.999  0.0672  0.3278  0.1154
21386W        W37520   2.706  14.279  15.807  0.0748  0.0017 -0.1579
21387W        W37521  13.032   3.969  12.941 -0.2728 -0.0398 -0.0974
21388W        W37522   2.894  13.515  16.147  0.2493 -0.1626  0.1045
21389W        W37523   7.075  14.617   5.104  0.2284 -0.1442  0.0790
21390W        W37524  12.972  13.195  14.585 -0.0931  0.1736  0.0223
21391W        W37525   7.644  12.690  11.821  0.2314  0.0006  0.0727
21392W        W37526  10.111   0.392   2.434  0.1373 -0.1040 -0.1757
21393W        W37527   9.771  18.095  13.579 -0.0869 -0.0729  0.0057
21394W        W37528   0.506  14.956  14.032  0.0928  0.0124 -0.2344
21395W        W37529  12.694   1.973   4.679 -0.0610  0.0250 -0.0387
21396W        W37530  13.192   7.705  12.192 -0.2189  0.1104  0.2763
21397W        W37531  18.164   8.312  13.148 -0.0444  0.1928  0.2503
21398W        W37532   1.911   1.794  12.754 -0.0106  0.0444  0.1093
21399W        W37533   3.886  14.302  15.780 -0.0959 -0.2692 -0.1135
21400W        W37534  10.215   9.491  15.070 -0.1447  0.1238  0.0726
21401W        W37535   7.132   2.249  16.103  0.0146 -0.0070 -0.2235
21402W        W37536  11.275   2.124   0.010 -0.1823 -0.1252  0.2062
21403W        W37537   7.000  12.089  15.354 -0.0409 -0.1644  0.0601
21404W        W37538   1.100  12.839   4.626 -0.0720  0.3664 -0.3184
21405W        W37539  13.397  14.277   4.829 -0.1542  0.1252  0.0281
21406W        W37540  10.984   7.840  13.186 -0.1153 -0.0405 -0.2246
21407W        W37541  11.674   7.524   2.996 -0.1212 -0.3053  0.1090
21408W        W37542   3.573   5.198   3.295 -0.1782  0.1625  0.2132
21409W        W37543  10.233   6.732  12.786  0.0640 -0.2857 -0.5344
21410W        W37544   7.792  10.066  14.792 -0.0104 -0.1615  0.0954
21411W        W37545  14.337   8.285   4.441 -0.0301 -0.1829  0.1776
21412W        W37546  12.002   5.860  14.881 -0.3035  0.0897 -0.2410
21413W        W37547   1.887  10.865   5.217  0.3274 -0.2729  0.0433
21414W        W37548   7.988   1.348   1.294  0.0616  0.1534 -0.1933
21415W        W37549   0.660   1.144  11.690  0.2322 -0.2130 -0.0262
21416W        W37550  13.382   7.096  11.068 -0.0480 -0.1502 -0.1408
21417W        W37551   2.178   3.846   4.662  0.1570  0.2195  0.1080
21418W        W37552   9.907  14.873   0.730 -0.0377 -0.1488  0.0501
21419W        W37553  16.170   2.628   3.956  0.4521  0.1221  0.2823
21420W        W37554   6.757   1.234   2.624  0.3866 -0.0033  0.2868
21421W        W37555  16.462   7.389   1.733  0.0644  0.2273  0.3101
21422W        W37556  12.472   2.156  13.215 -0.3092  0.2401 -0.0441
21423W        W37557  14.672   1.655  13.387  0.0949 -0.1508  0.0956
21424W        W37558  14.614   6.447  16.244 -0.1921 -0.1402  0.4712
21425W        W37559  17.732  15.027  13.503 -0.3796  0.3203  0.2175
21426W        W37560  15.385   0.575   0.267  0.0001 -0.0916 -0.0185
21427W        W37561  14.398  14.064  14.409 -0.2094  0.1370 -0.1563
21428W        W37562   7.657   3.817  14.968  0.1045  0.2112  0.0449
21429W        W37563  11.108  18.003   0.007  0.1662  0.5677  0.0229
21430W        W37564   0.166  12.203  11.916 -0.2173  0.0491 -0.0926
21431W        W37565  11.484  17.321   0.428  0.2573 -0.2944  0.0128
21432W        W37566  18.063  15.519   0.189  0.1309  0.1371  0.0295
21433W        W37567  11.347   6.499  15.367  0.0223 -0.1214  0.1662
21434W        W37568  18.143  14.429  10.859  0.2066 -0.1360  0.1682
21435W        W37569  11.423   3.202   2.553  0.0418  0.2356 -0.1890
21436W        W37570   0.674   2.508  12.426  0.1849 -0.0746 -0.4522
21437W        W37571   3.450  17.513  13.511  0.0628 -0.2282 -0.0809
21438W        W37572  14.631   6.049  15.535 -0.2468  0.1798  0.3912
21439W        W37573   0.747   8.011  14.113 -0.0183 -0.0517 -0.0215
21440W        W37574   4.268  16.086  13.463 -0.3341  0.1536 -0.1569
21441W        W37575   0.066  16.575  15.800  0.3393 -0.1157 -0.1345
21442W        W37576  16.390   3.522  14.136 -0.0418  0.0013 -0.1482
21443W        W37577   9.278   9.842  12.577  0.1420 -0.2903 -0.0015
21444W        W37578  17.376   6.571   3.759 -0.1426  0.2424 -0.2459
21445W        W37579   2.741   3.939   5.318 -0.0846  0.3820 -0.1861
21446W        W37580   2.435   1.976  12.538  0.0652 -0.0475 -0.0450
21447W        W37581  13.950   8.720   5.619  0.0326  0.0704  0.0883
21448W        W37582  12.514   5.814   0.664  0.1904  0.1143 -0.4106
21449W        W37583   3.161   9.727  16.318  0.0584  0.1994  0.1523
21450W        W37584   4.383   4.875  11.519  0.1967  0.2400 -0.2064
21451W        W37585   9.921   0.267   5.492  0.1363 -0.1635  0.4222
21452W        W37586  15.014   9.884   0.661  0.1037  0.0422  0.0568
21453W        W37587  14.862  13.984   5.738 -0.0106  0.0096 -0.3409
21454W        W37588   7.923   4.957   6.497 -0.2450 -0.1091 -0.1189
21455W        W37589   5.971  11.691  16.308 -0.0259 -0.1252 -0.1697
21456W        W37590   0.199  18.009   0.963  0.2506 -0.0563 -0.2092
21457W        W37591  11.660   5.244   6.300 -0.0530 -0.0141 -0.2148
21458W        W37592  13.423  17.030  13.128  0.1776  0.0404  0.1974
21459W        W37593  16.616  10.280   2.617 -0.3361 -0.0938 -0.0247
21460W        W37594   1.619   4.391   2.821  0.0967  0.0240 -0.0943
21461W        W37595   3.451   5.224   0.664 -0.1320 -0.0872 -0.2939
21462W        W37596  16.177  12.522  14.986  0.0503  0.3109  0.2405
21463W        W37597   3.155   3.651  16.315  0.3367  0.0718 -0.0172
21464W        W37598  13.921  13.746   3.859  0.0558  0.2293 -0.2383
21465W        W37599  17.863  15.360  15.744  0.0809 -0.1452  0.2536
21466W        W37600  10.319  10.058  15.317 -0.0979  0.1508  0.0448
21467W        W37601   5.892  12.022   2.161 -0.1018  0.0254  0.1345
21468W        W37602   8.413  11.722   0.761  0.2151 -0.0718 -0.1965
21469W        W37603  14.397   5.448   0.690  0.0289 -0.1506  0.0497
21470W        W37604   5.188  17.617   0.064  0.1243 -0.0692 -0.2063
21471W        W37605   2.755   4.872  12.298 -0.0567 -0.0501 -0.1617
21472W        W37606   4.938  10.946  11.193 -0.0477  0.0726  0.1121
21473W        W37607  11.592  10.536   2.253  0.3150  0.0309 -0.0883
21474W        W37608   1.975   6.435   4.999  0.0469 -0.2328  0.1985
21475W        W37609  11.635   1.391   1.614 -0.0376  0.2517 -0.1248
21476W        W37610  10.001   9.801  14.726 -0.1053  0.1587  0.1056
21477W        W37611   3.126  11.225   2.532  0.0772  0.0085  0.0587
21478W        W37612  11.260   0.040  15.388  0.0954  0.3405 -0.0031
21479W        W37613  10.993   8.963   0.256 -0.0531 -0.0356 -0.0948
21480W        W37614   7.351  15.564   5.270  0.2560  0.0635 -0.2599
21481W        W37615   3.709  13.525   1.324 -0.1239 -0.1973  0.0625
21482W        W37616  15.386  17.546  13.119 -0.3564 -0.1804 -0.1240
21483W        W37617   3.212  10.307  13.856 -0.0426 -0.2051 -0.0597
21484W        W37618  10.189  12.868  12.833  0.0809  0.1818  0.4998
21485W        W37619  12.216   0.441  14.574 -0.0108  0.1255  0.1606
21486W        W37620   1.140  14.964  14.048  0.0897  0.0906  0.0903
21487W        W37621  14.109   5.928   0.341  0.3033 -0.0221 -0.0992
21488W        W37622  12.355  16.714  12.851  0.0390 -0.1346  0.1932
21489W        W37623   4.894  17.157  14.380 -0.0753  0.1296 -0.0341
21490W        W37624  11.364  15.178  12.546  0.1816  0.2460  0.1587
21491W        W37625   6.812  17.397  14.480  0.0571  0.0218  0.0353
21492W        W37626   8.412  11.367  15.780  0.1714 -0.2405 -0.1150
21493W        W37627   2.959  14.260  12.706 -0.0855 -0.0457 -0.0740
21494W        W37628   2.761   7.206   4.185  0.1096  0.1612  0.1224
21495W        W37629   1.541  18.107   0.658  0.1853  0.2801  0.0964
21496W        W37630  17.834  18.008   2.189 -0.0338 -0.0765  0.0205
21497W        W37631   0.965  13.949   3.898  0.1412 -0.1307  0.0685
21498W        W37632   3.496   0.398   1.908  0.0857  0.0937  0.1964
21499W        W37633   6.501   6.206  14.405  0.2431  0.0799 -0.0924
21500W        W37634   0.165  12.798   4.972  0.2979 -0.2371  0.0629
21501W        W37635   0.955   6.327   0.322 -0.1603  0.1769  0.2022
21502W        W37636   8.984   1.854   2.412  0.0865  0.1617  0.2353
21503W        W37637  14.339  17.539   1.471  0.2721  0.1096 -0.0383
21504W        W37638   7.069  14.480  15.768 -0.1212 -0.0159 -0.2981
21505W        W37639   9.305   2.746   3.505 -0.1732 -0.0768 -0.4937
21506W        W37640  13.047  10.320   3.680 -0.0711 -0.0001 -0.0352
21507W        W37641   1.075   9.775   0.400 -0.2494 -0.1996  0.0003
21508W        W37642   8.885  14.459  12.791 -0.0558  0.0992 -0.0387
21509W        W37643  17.387  13.138   2.495  0.3483  0.0405 -0.1082
21510W        W37644   6.369  15.784   6.164  0.3032  0.0490  0.4293
21511W        W37645  16.467   2.116  14.026 -0.0790  0.2968  0.3006
21512W        W37646  10.577   5.544  15.030  0.3238  0.1887 -0.0398
21513W        W37647   8.464   9.520  16.405 -0.0859 -0.0140 -0.0915
21514W        W37648   7.862   3.183   1.525 -0.0059 -0.2157 -0.1249
21515W        W37649   8.532   3.562   2.193  0.0041 -0.4282 -0.0355
21516W        W37650   4.700   9.449   5.112  0.1111 -0.4956  0.0911
21517W        W37651   6.139   4.854   0.707 -0.0124 -0.1057 -0.0457
21518W        W37652   6.564  14.620  13.458 -0.2595  0.0367 -0.0887
21519W        W37653   1.569  11.867   4.755  0.1075  0.2834 -0.3628
21520W        W37654   4.087  14.368   0.755 -0.3248 -0.0716 -0.0237
21521W        W37655   5.973   9.956  16.369 -0.1713  0.1882 -0.3150
21522W        W37656   6.007   6.625  12.769  0.5138  0.0791  0.0303
21523W        W37657   6.736  15.730   1.919 -0.0621 -0.0452  0.1388
21524W        W37658  13.053  17.939   0.337 -0.2946 -0.2807  0.2341
21525W        W37659   6.044  14.773  15.491  0.2525 -0.0258 -0.1605
21526W        W37660  15.463   0.072   0.341 -0.0112  0.1482 -0.0129
21527W        W37661  18.157   5.564  13.394  0.3385  0.1656  0.0183
21528W        W37662   9.010  11.106  12.943 -0.0529 -0.0120 -0.2477
21529W        W37663  15.835   7.348   3.798 -0.0025  0.1724 -0.1121
21530W        W37664   9.676  12.893   5.633 -0.1688 -0.1387  0.3715
21531W        W37665   9.646   5.666  16.098  0.1108 -0.0289 -0.1050
21532W        W37666   8.159   5.869  13.159  0.0117  0.0797  0.0812
21533W        W37667  11.139  14.012  11.406  0.0119 -0.0537  0.2597
21534W        W37668  18.157   6.781  10.839 -0.3864 -0.2321  0.1129
21535W        W37669  16.758   7.645  15.113  0.3965 -0.0286 -0.1665
21536W        W37670   4.523   4.301   2.079 -0.2507  0.0054 -0.1755
21537W        W37671   1.387  11.469  14.752  0.1079  0.2855 -0.0676
21538W        W37672  11.166   7.199  12.114  0.0664  0.0615  0.0096
21539W        W37673  10.351  15.238  13.657  0.1637  0.0865 -0.1930
21540W        W37674  10.815  14.223   4.352 -0.2328  0.0864  0.0523
21541W        W37675   7.881   0.202   0.637  0.2708 -0.2804 -0.2897
21542W        W37676   5.410   1.647   0.983  0.0210 -0.2743 -0.0535
21543W        W37677   5.238  17.684   1.091 -0.1266  0.0890 -0.2722
21544W        W37678  13.508  12.094  13.108 -0.0203  0.1893  0.1358
21545W        W37679   0.865  16.252  12.934  0.0288 -0.0689  0.2630
21546W        W37680   6.756  16.224   1.833 -0.0634  0.0043 -0.1075
21547W        W37681  11.292   1.717   1.270  0.0890  0.1992 -0.1674
21548W        W37682   4.122  13.139   0.785  0.1187  0.0789  0.4439
21549W        W37683   6.322   1.187   3.535 -0.0769 -0.0064  0.0009
21550W        W37684   6.874  13.426   0.121 -0.0363  0.0657 -0.1645
21551W        W37685   3.575  10.519  12.385 -0.1115  0.1470  0.2580
21552W        W37686   7.592   7.160  16.082 -0.0247  0.1205  0.5065
21553W        W37687  13.961  17.214   4.035 -0.0695 -0.0389  0.0416
21554W        W37688   6.943   4.139   2.047 -0.0061 -0.0837  0.2205
21555W        W37689  14.448   3.818  15.783 -0.0154  0.1495  0.1525
21556W        W37690  10.578  13.687   1.545 -0.1087 -0.1585 -0.1301
21557W        W37691  17.467  12.910  15.272  0.0335  0.0842  0.1112
21558W        W37692   0.871   9.303   1.258 -0.0482  0.0589  0.3080
21559W        W37693   8.549  11.863  12.962 -0.0778 -0.1207  0.0536
21560W        W37694  17.198   4.195  15.120 -0.2015 -0.3453  0.0571
21561W        W37695   9.657  16.764  12.995  0.0302 -0.5091 -0.1818
21562W        W37696  15.235  13.544  12.715 -0.1394 -0.0362  0.1545
21563W        W37697  12.033   3.600   4.224 -0.1933  0.0189 -0.3443
21564W        W37698   9.578   1.975  13.793  0.1902 -0.2819 -0.2302
21565W        W37699   4.050  13.323  14.533 -0.1553  0.1545  0.0676
21566W        W37700  14.141  13.231   3.606  0.1707  0.0812  0.1396
21567W        W37701   8.427  16.372   3.267  0.2125  0.0532  0.3375
21568W        W37702   7.293  16.806  15.765 -0.0336  0.2601 -0.2741
21569W        W37703   1.521   5.565  14.951 -0.0846  0.2242 -0.1193
21570W        W37704   2.672   0.090   0.325 -0.1750 -0.1512 -0.1103
21571W        W37705  11.714  13.392   5.238 -0.2224  0.1770  0.1000
21572W        W37706  16.742  13.463   1.163  0.4295  0.0196 -0.0645
21573W        W37707   5.059  11.901  16.188  0.3146 -0.1755  0.2786
21574W        W37708  16.552   5.228   2.254 -0.1504 -0.1956 -0.1711
21575W        W37709   0.291   0.587  14.278 -0.0451 -0.0923 -0.2652
21576W        W37710   4.686   5.759   0.596  0.4024 -0.0205  0.0709
21577W        W37711   3.372  14.561   6.233 -0.0232  0.1432 -0.1128
21578W        W37712  15.756  13.730  14.654  0.3220 -0.0552 -0.3685
21579W        W37713  15.779  15.922   0.569 -0.0791  0.0514 -0.1583
21580W        W37714  14.378   4.351   4.290 -0.1810 -0.3975 -0.2581
21581W        W37715   4.567  14.438  11.572  0.0423 -0.2240  0.1649
21582W        W37716  13.811  15.294   2.671  0.1893  0.4207  0.0312
21583W        W37717   6.795  12.296  13.464  0.0208  0.3315  0.1531
21584W        W37718   0.561  12.685   4.601  0.1210  0.1752  0.3050
21585W        W37719   8.639  14.390  12.223  0.1434 -0.1157 -0.2009
21586W        W37720   4.773  15.456  15.732 -0.0646  0.2295 -0.1702
21587W        W37721   3.671   7.940   5.037  0.1331 -0.0160 -0.1884
21588W        W37722   9.495  14.046  15.657  0.0548 -0.3664  0.1103
21589W        W37723   4.497   3.920  11.454  0.2954  0.2551 -0.3171
21590W        W37724   7.840   3.929  16.306 -0.3011  0.1335  0.0813
21591W        W37725   2.158   1.664  14.081 -0.3737  0.0022  0.1121
21592W        W37726  12.803   0.651  14.260 -0.2361 -0.0629 -0.1517
21593W        W37727  13.879  11.528  11.893  0.2034 -0.1020 -0.2232
21594W        W37728   1.668  13.012   1.376 -0.2398 -0.2102  0.1686
21595W        W37729  13.333   5.994  16.165 -0.0989 -0.0642  0.2308
21596W        W37730   9.548   0.925   4.781  0.0879  0.0547  0.1644
21597W        W37731   2.277  11.124   5.089 -0.0107 -0.1367 -0.0377
21598W        W37732   0.712   4.344   0.328  0.0781 -0.2439  0.2709
21599W        W37733   0.962   8.381   5.486 -0.0340  0.0809 -0.0382
21600W        W37734   6.156  12.486  15.544 -0.3470  0.2381  0.0605
21601W        W37735   3.926  12.369  16.262  0.2315 -0.2405 -0.0600
21602W        W37736   5.796   5.449   5.505  0.0191 -0.1016  0.1215
21603W        W37737  13.369  14.626   1.343 -0.1269  0.0897  0.2541
21604W        W37738  14.980   6.802  10.857 -0.0318  0.1099 -0.0087
21605W        W37739   9.728  15.564   1.767 -0.1242  0.0041 -0.0266
21606W        W37740  14.422  15.445  13.429  0.1507 -0.0043 -0.1726
21607W        W37741   6.797  13.851   0.380 -0.0400 -0.0485 -0.0389
21608W        W37742   8.299  17.578   4.606  0.1918 -0.0245 -0.3156
21609W        W37743   9.848  14.356   4.560  0.0211 -0.1738 -0.2485
21610W        W37744  17.773  13.091  12.785  0.0310 -0.0238  0.2956
21611W        W37745   1.558   0.093  15.129  0.1010 -0.0851 -0.0469
21612W        W37746   1.961   2.891   3.090 -0.1180 -0.2775 -0.1915
21613W        W37747   2.203  13.421  13.329 -0.0136  0.0925  0.1025
21614W        W37748  17.058  17.620  16.500  0.1311 -0.3686 -0.0047
21615W        W37749   2.087   0.990   6.296 -0.0438 -0.0227 -0.1522
21616W        W37750   2.035   3.336   0.151 -0.3493  0.0286  0.1162
21617W        W37751  15.059   1.908  13.655 -0.1838 -0.1064  0.0938
21618W        W37752  11.814   0.095  15.540 -0.3654  0.2731 -0.1969
21619W        W37753  13.762   9.606  14.485 -0.1943 -0.0427 -0.1617
21620W        W37754  10.166   1.765   4.616 -0.0179 -0.2695  0.1241
21621W        W37755   7.723   6.060   6.345  0.3380 -0.2492  0.0777
21622W        W37756   8.011   5.946   3.217  0.0970 -0.1769 -0.1191
21623W        W37757  10.565  14.439  12.104  0.2086  0.1266 -0.1853
21624W        W37758   7.246  13.054   1.898  0.0229 -0.0307  0.2789
21625W        W37759  10.013   5.707   2.841 -0.1173  0.0904  0.1334
21626W        W37760   1.157   5.581  15.769  0.2616  0.2067 -0.3120
21627W        W37761  15.096  10.657   0.891  0.2182 -0.1183 -0.1337
21628W        W37762   3.739   3.243  14.132  0.2361 -0.1926 -0.2955
21629W        W37763  12.641  16.539   4.137 -0.3084 -0.2066  0.0195
21630W        W37764   7.399   6.501   5.676  0.0158 -0.2530  0.0378
21631W        W37765  14.136   1.459   1.950  0.2477  0.1235 -0.2299
21632W        W37766   9.354  17.714  11.783 -0.1479  0.0900 -0.3272
21633W        W37767  13.449  11.457  13.242 -0.0728 -0.1388 -0.1725
21634W        W37768   8.574  13.723  14.990  0.0811 -0.2726 -0.0138
21635W        W37769   2.731   6.501   2.613 -0.0249 -0.1722  0.0855
21636W        W37770   9.379  15.347   3.138 -0.0373 -0.0006  0.2457
21637W        W37771   3.139  12.656   5.175  0.1804 -0.3416  0.3334
21638W        W37772  14.440  14.673  11.482  0.4581 -0.1331 -0.1935
21639W        W37773  16.306  14.841  13.266 -0.0794  0.0916 -0.3151
21640W        W37774   8.977  15.123   0.443 -0.2386  0.0510 -0.3330
21641W        W37775   4.205  14.444   1.324 -0.0627 -0.3817  0.0078
21642W        W37776  15.555  17.984  16.495  0.2320 -0.0092  0.0657
21643W        W37777  11.850  13.074   1.158  0.3033  0.0679 -0.0508
21644W        W37778   4.294   3.168   1.901 -0.0351 -0.0838 -0.1034
21645W        W37779   2.711   4.729   2.953 -0.2248  0.0250  0.0528
21646W        W37780   1.232   8.988  15.475  0.0644 -0.0123  0.4023
21647W        W37781   8.392   0.986  16.271 -0.0560 -0.2264  0.1965
21648W        W37782   6.684  18.041  13.695  0.2839 -0.2239  0.4393
21649W        W37783   7.518   3.733  12.669  0.0200  0.3315  0.0806
21650W        W37784   2.349   6.547   5.432  0.3505 -0.0313  0.1061
21651W        W37785   9.716   4.100   0.164  0.0987  0.0342  0.0110
21652W        W37786   8.322   3.296  11.433  0.1908 -0.2077 -0.0481
21653W        W37787  13.728   4.652   4.115  0.2117  0.2446  0.4627
21654W        W37788   0.878   6.882   4.178 -0.0682 -0.7788 -0.1225
21655W        W37789   9.314   6.126  11.881  0.2159 -0.1648 -0.1382
21656W        W37790  10.360   0.076  14.667 -0.0641  0.2644  0.1081
21657W        W37791  17.723   3.680  12.164 -0.0377 -0.2310 -0.0556
21658W        W37792   3.730   0.572   4.395  0.1285  0.0956 -0.2489
21659W        W37793  15.239  17.926  12.821  0.4109 -0.1138  0.0405
21660W        W37794  12.093   4.713   3.878 -0.1915  0.3104  0.1970
21661W        W37795   7.005  12.693  11.780  0.0527  0.0554 -0.2656
21662W        W37796  16.217   6.611   1.212 -0.0121  0.1467  0.1582
21663W        W37797  12.941   4.534   0.845 -0.1594 -0.0296 -0.3312
21664W        W37798   3.625   5.440   0.090  0.0841  0.0363  0.2507
21665W        W37799  15.974  16.360  14.754  0.1529 -0.1596  0.0413
21666W        W37800  17.691   3.394  13.154  0.1782 -0.1223  0.0818
21667W        W37801   0.903   4.833   5.327 -0.0146  0.0515  0.0801
21668W        W37802  12.293   7.222   0.737  0.2742  0.4097 -0.0791
21669W        W37803   5.262  14.780  12.078  0.0022  0.1554 -0.1819
21670W        W37804  16.235  15.332   0.546  0.0208  0.0291  0.0206
21671W        W37805  11.450  16.055  11.916 -0.2809  0.1346 -0.0640
21672W        W37806   6.611   7.386  10.715  0.0355  0.0679  0.0297
21673W        W37807   5.658   6.603   0.645 -0.1805 -0.0798  0.2337
21674W        W37808  17.418  11.091   5.284  0.0653 -0.1485 -0.1420
21675W        W37809   2.907   8.305  11.204 -0.2153  0.0898 -0.1264
21676W        W37810   4.613   7.949   4.817  0.0218 -0.1569  0.1805
21677W        W37811   5.711  12.103  13.201  0.0280  0.1121  0.0001
21678W        W37812  11.424   6.900  11.186 -0.0597 -0.0271 -0.0631
21679W        W37813  15.540   2.052   3.537 -0.0839 -0.2274  0.1121
21680W        W37814  13.133  10.459  11.365  0.3275  0.1461  0.4024
21681W        W37815  13.184   8.371   3.680  0.0677 -0.3293 -0.0797
21682W        W37816  16.452  16.477  13.830 -0.1660  0.3424  0.1858
21683W        W37817   3.144   2.369   3.134  0.1400  0.2077 -0.1486
21684W        W37818   4.052  16.437   3.858  0.0498  0.2348  0.5916
21685W        W37819  17.174   3.457  13.245  0.3155 -0.2235 -0.1386
21686W        W37820  10.263  17.613  14.153  0.4607 -0.1927 -0.0691
21687W        W37821   9.888  10.648   4.658 -0.3301  0.2733 -0.1113
21688W        W37822  17.651  15.443   4.704 -0.0478 -0.1322  0.2659
21689W        W37823   3.077   7.621  14.616  0.0700  0.0738  0.1837
21690W        W37824  12.562  15.041   2.163  0.0241  0.1719  0.2210
21691W        W37825   0.388  10.621   1.410  0.1144  0.0208  0.0367
21692W        W37826  13.390  10.088  15.675 -0.3039  0.3799 -0.1707
21693W        W37827   5.895   2.304   4.295 -0.1421  0.0543 -0.0109
21694W        W37828   2.099   9.924   4.999 -0.1618  0.3084 -0.3094
21695W        W37829  17.728   9.238  15.260 -0.3133  0.1023 -0.0004
21696W        W37830   7.992  10.595  13.902  0.0985 -0.0423  0.1487
21697W        W37831  10.265  16.899   3.408  0.0403  0.0335 -0.1178
21698W        W37832  16.006  15.932  14.362 -0.1379  0.1338  0.0534
21699W        W37833   2.482  17.835  14.800 -0.1038 -0.0122  0.0803
21700W        W37834   9.841   6.976  12.574 -0.0221 -0.0325  0.2211
21701W        W37835   8.957  17.369   2.563 -0.3281  0.1109  0.0197
21702W        W37836   6.909  11.269   1.195  0.0914  0.0228 -0.3538
21703W        W37837   0.771   9.118  15.313  0.0640 -0.4699  0.0607
21704W        W37838   7.565   2.123   4.898  0.0514 -0.0839  0.0007
21705W        W37839  13.784   0.446   0.610 -0.1633  0.0779  0.2049
21706W        W37840   8.152   9.156   0.217 -0.0363  0.5042  0.3394
21707W        W37841   8.447   1.341  15.452 -0.3520  0.4089 -0.0585
21708W        W37842   8.856  17.188   3.533 -0.0043 -0.0409  0.3342
21709W        W37843   5.832  13.805   1.529  0.0505 -0.1553  0.0498
21710W        W37844   8.473  14.707  11.814  0.3948 -0.3051  0.1769
21711W        W37845  12.058   9.702  14.008  0.1264 -0.4419 -0.0419
21712W        W37846  17.163  13.362   0.895 -0.0843  0.2083  0.3391
21713W        W37847   1.436  13.558  13.736 -0.0582  0.1241  0.1634
21714W        W37848   2.558  11.152  12.572  0.0077 -0.0104  0.0351
21715W        W37849  10.345  14.965  15.576  0.1770  0.0145 -0.0959
21716W        W37850  11.503   6.885  14.191  0.1246 -0.2393  0.0170
21717W        W37851   4.334   8.117  15.081 -0.3041 -0.0192 -0.0989
21718W        W37852   5.713  17.065   2.899 -0.0904 -0.1643 -0.1108
21719W        W37853   0.978   9.034   4.897 -0.1870 -0.1798  0.3246
21720W        W37854   7.224   4.753  14.243  0.1220  0.1580 -0.0686
21721W        W37855   4.445  15.057   1.043  0.4319  0.0096 -0.0443
21722W        W37856   4.012  16.451  13.860 -0.0643  0.1329 -0.1950
21723W        W37857  17.745   3.477  14.421 -0.1139 -0.1276  0.2174
21724W        W37858   8.000  15.663  12.775  0.1778 -0.0242 -0.1735
21725W        W37859  13.792   8.921  14.426 -0.0670  0.1104  0.4184
21726W        W37860  11.308  14.721  14.153 -0.4014 -0.1761 -0.3531
21727W        W37861   3.236  11.112   3.580  0.0451 -0.1038  0.1450
21728W        W37862   7.373   1.510  13.169  0.5074  0.1147  0.4003
21729W        W37863   2.638  17.437  13.827  0.1957  0.2576  0.1745
21730W        W37864   8.776  14.765  14.128  0.1131 -0.0794  0.0491
21731W        W37865  17.525   7.891   2.345  0.0629 -0.1992  0.1908
21732W        W37866  16.223  15.375  14.945  0.0280  0.0722  0.1383
21733W        W37867   4.142  13.284   6.028  0.2204 -0.0582 -0.1372
21734W        W37868   0.353  14.629  15.559 -0.1643 -0.3875 -0.2228
21735W        W37869   6.124   0.708   0.084  0.0342  0.0307  0.1658
21736W        W37870  15.008  13.352  15.262 -0.1533  0.1544  0.0254
21737W        W37871   4.226  10.792   3.010  0.1550 -0.4785  0.0966
21738W        W37872   4.433   4.520  14.679 -0.0767 -0.1112  0.1131
21739W        W37873  16.699  11.174  15.987  0.0740 -0.2204 -0.1548
21740W        W37874   6.891   6.684   0.533 -0.0582  0.1053 -0.0789
21741W        W37875   4.553  16.070   1.108 -0.0122 -0.0817  0.0985
21742W        W37876   2.782  15.507   3.639 -0.0042  0.3366  0.1856
21743W        W37877  11.091  12.441  13.492  0.0383 -0.1186 -0.0497
21744W        W37878   4.936  14.986  15.871  0.1136  0.0735 -0.1399
21745W        W37879  11.158  14.693  15.273  0.0457  0.0124 -0.1730
21746W        W37880   7.790  15.342  11.469  0.1141  0.0582  0.0340
21747W        W37881   3.591   5.113   2.226  0.1784 -0.0380 -0.1584
21748W        W37882  14.773  10.670  13.494  0.4104 -0.1220  0.1100
21749W        W37883   6.906   7.398   5.269  0.2929 -0.0915  0.3302
21750W        W37884   6.573  12.063  11.032 -0.0851 -0.0614  0.0769
21751W        W37885   1.367   5.150   1.608 -0.0426  0.0336  0.0584
21752W        W37886   1.228  16.725   0.038  0.1991 -0.0436 -0.3140
21753W        W37887  14.758  12.372  15.689  0.1079  0.3605 -0.1415
21754W        W37888  16.779  10.785   0.355 -0.1353  0.1230 -0.2513
21755W        W37889  15.977  14.553  11.636  0.3957  0.2756 -0.2959
21756W        W37890   2.973   6.038  15.787 -0.2052  0.0882  0.1544
21757W        W37891   1.799  12.239  12.519 -0.3374  0.3000  0.0134
21758W        W37892   3.861   8.093  10.867 -0.0446 -0.0538  0.0306
21759W        W37893  12.184  10.634  13.504  0.1619 -0.1764  0.1744
21760W        W37894   1.100   1.818  15.469  0.0819  0.1325  0.3052
21761W        W37895  15.587  14.220   0.051  0.0898 -0.1998  0.0781
21762W        W37896  13.159  17.275   4.660 -0.5098 -0.2103 -0.0946
21763W        W37897   8.821   6.115   3.017 -0.1063 -0.0646 -0.1758
21764W        W37898  15.292  11.638   4.189 -0.5193 -0.0120  0.1312
21765W        W37899  16.393  10.988   2.861  0.1718  0.1680 -0.1399
21766W        W37900  10.976   3.814  15.041  0.3501  0.0165 -0.2225
21767W        W37901   2.306   1.177   1.919 -0.2929  0.1710 -0.0846
21768W        W37902   8.016  16.611   2.272 -0.1587  0.0973  0.0405
21769W        W37903   3.787  11.113   1.290 -0.3724  0.2792  0.3666
21770W        W37904   0.393   2.793   1.304 -0.0190 -0.1788 -0.3004
21771W        W37905   3.130   4.287  14.882  0.0519  0.0408 -0.0923
21772W        W37906  11.691   1.770  15.267 -0.1142  0.1414  0.1580
21773W        W37907   5.995  16.805  16.011 -0.2914 -0.0581 -0.0451
21774W        W37908   1.905   3.835   0.350  0.0342  0.0006  0.0176
21775W        W37909   8.990  10.716   3.010 -0.2385  0.0485 -0.1501
21776W        W37910  17.713   3.576   0.478  0.0597  0.1364 -0.0163
21777W        W37911   8.378   6.341   3.372  0.2824  0.0116  0.1398
21778W        W37912   2.482  17.795   5.765 -0.0307  0.0966  0.2799
21779W        W37913   4.307   3.231  13.329 -0.1124  0.1173  0.2425
21780W        W37914  12.208  16.377   4.756 -0.2149  0.1241 -0.1709
21781W        W37915   3.999  13.232   4.401  0.0521 -0.0044 -0.3102
21782W        W37916   3.332  10.790   4.971 -0.0365  0.0096  0.0636
21783W        W37917  16.641  13.571   0.551 -0.0554  0.1306 -0.1815
21784W        W37918   4.095   3.021   4.083 -0.0362  0.0675 -0.2544
21785W        W37919   3.931  10.145  10.344  0.1978 -0.2353  0.0462
21786W        W37920   8.043  12.448  13.270  0.2235  0.0312 -0.0124
21787W        W37921   9.443  15.665   2.152  0.1766 -0.2045 -0.3550
21788W        W37922  17.093  14.335   5.308  0.1586 -0.1630  0.2651
21789W        W37923   2.158   8.718   1.190 -0.0404 -0.0994 -0.2040
21790W        W37924  13.907  17.355   1.310  0.1889 -0.0395 -0.1563
21791W        W37925   5.674  12.984  12.716  0.4379  0.1294  0.0400
21792W        W37926   3.261   0.434   3.573 -0.0209 -0.2637  0.0992
21793W        W37927  14.570   7.745   3.971 -0.0391  0.2833 -0.0587
21794W        W37928  17.477  15.029   5.338  0.0936 -0.0487 -0.0243
21795W        W37929   0.537  14.713  11.996  0.1869  0.0478  0.1184
21796W        W37930  16.875  12.158   3.009 -0.0838 -0.2705  0.0594
21797W        W37931   7.457   8.355  15.486  0.0810 -0.2264  0.1237
21798W        W37932  15.714   6.279  12.391  0.0082 -0.1275  0.0247
21799W        W37933   9.280   2.019  15.973  0.3534  0.1471  0.0848
21800W        W37934   4.355   3.826  13.971  0.1249 -0.2979  0.1516
21801W        W37935  11.278   6.094   1.844 -0.0559 -0.1278 -0.1028
21802W        W37936  15.094  17.662  13.504  0.1071  0.2021 -0.2447
21803W        W37937   5.107  16.770  14.701  0.2458  0.4488  0.1417
21804W        W37938  12.251  10.208  11.742  0.0705 -0.0507 -0.0790
21805W        W37939   8.208   5.853  14.433  0.1211  0.0032 -0.2200
21806W        W37940   3.999   5.930   5.012  0.2923 -0.0918 -0.3478
21807W        W37941   7.791   4.481   4.914 -0.1091 -0.2958  0.1950
21808W        W37942   0.387  11.254  11.435 -0.2010  0.1784  0.0281
21809W        W37943   8.065  13.154   0.534 -0.2190 -0.2789  0.1094
21810W        W37944   3.018   9.707  13.188 -0.1933  0.0002  0.1328
21811W        W37945  17.959   4.492   0.724  0.2103  0.1291 -0.0917
21812W        W37946   1.131   0.250   1.837 -0.0609 -0.1549  0.3577
21813W        W37947   1.095   9.236  16.229 -0.1925  0.1485  0.0997
21814W        W37948  15.984   2.589   0.647  0.2016  0.0636  0.1189
21815W        W37949  11.631   8.343   4.897 -0.1224 -0.1208 -0.1211
21816W        W37950   8.414   4.239  11.431 -0.2000 -0.1608  0.2022
21817W        W37951  12.284  18.042   3.987 -0.1811 -0.0250 -0.0739
21818W        W37952  11.765  15.513   2.076 -0.2660 -0.1908 -0.0054
21819W        W37953  10.186   0.648   1.546  0.0034 -0.1065  0.1426
21820W        W37954   3.525  17.570  11.341 -0.2046  0.0176 -0.0122
21821W        W37955   7.655   1.902  12.434 -0.2321 -0.1914  0.2044
21822W        W37956   7.036  17.214  13.084 -0.1157  0.0296  0.1813
21823W        W37957   5.661  10.069  11.866  0.0592  0.0292  0.0794
21824W        W37958   7.071   7.707  10.684  0.0272 -0.1884 -0.0865
21825W        W37959   4.944   3.622  14.562  0.0567  0.2366  0.0924
21826W        W37960  17.022  12.831   4.809 -0.2972 -0.1647 -0.0518
21827W        W37961  14.181  14.108  13.482 -0.2279 -0.4933 -0.1821
21828W        W37962  15.731   3.034  12.236 -0.1756  0.2496 -0.2722
21829W        W37963   7.521   3.909   0.124  0.0800  0.0527 -0.1009
21830W        W37964   7.712  12.269   1.333  0.0278 -0.0729  0.0956
21831W        W37965   2.494   5.118   0.774 -0.3174 -0.2674 -0.0661
21832W        W37966   0.176   6.562  15.963  0.0744  0.3809  0.2330
21833W        W37967   5.144   4.816  14.496  0.1726  0.1714 -0.0861
21834W        W37968   2.288   3.237   3.496  0.1323  0.1028  0.0418
21835W        W37969   2.699  11.472  14.800 -0.0019  0.0111  0.1368
21836W        W37970  17.357  10.604  13.670  0.1672  0.2713 -0.0790
21837W        W37971  16.190   8.253  14.434  0.1845  0.1043  0.2048
21838W        W37972   5.094   0.557   4.108  0.0831  0.1755 -0.1679
21839W        W37973  14.359  15.830  15.694 -0.1217 -0.1379 -0.4591
21840W        W37974  17.465   8.211   0.273 -0.1539 -0.0574 -0.0707
21841W        W37975   1.952  14.238   2.831 -0.1156 -0.0074  0.2858
21842W        W37976  11.048   0.687   5.273 -0.2870 -0.1770 -0.0642
21843W        W37977  15.085   3.286  16.286 -0.0883  0.0581  0.2699
21844W        W37978  16.454  13.577   0.097  0.0174  0.1170 -0.1969
21845W        W37979   1.186   0.762   1.628  0.0312  0.0876 -0.0563
21846W        W37980   7.632  14.597  10.879 -0.0858 -0.1492 -0.1375
21847W        W37981   4.632   6.076   0.954  0.1099  0.3486  0.4064
21848W        W37982   5.884  10.841   0.079  0.0738 -0.2367  0.1737
21849W        W37983   0.435   9.230   0.981 -0.4644 -0.0850 -0.1766
21850W        W37984   9.174   7.633  12.801  0.0382  0.2165 -0.0993
21851W        W37985  13.541  10.184  11.370  0.0795 -0.0726 -0.0630
21852W        W37986   8.339   7.969   4.644 -0.3323 -0.0628 -0.0819
21853W        W37987   1.310  15.853  15.698  0.1165  0.0310 -0.2940
21854W        W37988   2.918  13.663  14.734 -0.2564 -0.0730  0.0771
21855W        W37989  16.202  13.687   1.968 -0.0570  0.0077 -0.1421
21856W        W37990  16.126   5.896  16.025 -0.1935  0.1899  0.0189
21857W        W37991   1.833  10.370  14.290  0.1730 -0.0940 -0.2507
21858W        W37992  12.865   1.922   1.674 -0.1297  0.1099  0.0069
21859W        W37993   6.818  16.606   1.482  0.0382 -0.0460  0.0235
21860W        W37994  15.808   2.637   1.119 -0.0948 -0.0637 -0.0650
21861W        W37995  15.096   6.123   3.735  0.5726  0.2665  0.1705
21862W        W37996   0.866  12.266  16.170 -0.2023  0.1692  0.0203
21863W        W37997   0.364   8.178   2.673  0.0403 -0.0944  0.2032
21864W        W37998   7.274   5.772   0.308 -0.2572  0.0246 -0.3280
21865W        W37999   7.552  16.823   3.004  0.1912  0.0107 -0.0031
21866W        W38000  13.359   0.338   0.429  0.0618 -0.0112  0.2704
21867W        W38001  11.632  12.325   2.016  0.1265  0.4322 -0.0562
21868W        W38002  16.438   8.391  15.289  0.2627  0.1288 -0.1837
21869W        W38003   2.876  12.846  13.019 -0.1510 -0.1802  0.2480
21870W        W38004   6.581  11.386  13.260  0.2125  0.3251 -0.1351
21871W        W38005  13.026  13.498   5.145  0.0331 -0.0958 -0.1549
21872W        W38006   4.286  10.977   5.990  0.1615 -0.2809 -0.0919
21873W        W38007  17.931   0.710   3.679 -0.0195 -0.1048 -0.0682
21874W        W38008   6.903  14.799   0.316 -0.2806  0.2510  0.3299
21875W        W38009   6.143   3.352  13.381  0.0260  0.0603 -0.0355
21876W        W38010   3.213   4.313   5.200  0.3454 -0.1786 -0.3872
21877W        W38011  16.722   7.408  13.606 -0.2936 -0.0897 -0.3906
21878W        W38012   4.726   2.936  14.389  0.1503  0.1486 -0.0357
21879W        W38013  10.514  17.897   5.102 -0.2199 -0.2538  0.0001
21880W        W38014   4.645  12.924   3.588 -0.1176 -0.1115 -0.1930
21881W        W38015  13.840   9.008   4.324 -0.0831  0.2518 -0.1038
21882W        W38016   4.676   7.049   4.273  0.1768 -0.0901 -0.0863
21883W        W38017   6.805   4.074   3.002 -0.2629  0.0399 -0.1473
21884W        W38018  15.641   6.752   2.332  0.0899  0.2212  0.3806
21885W        W38019  14.729  16.583   1.906 -0.0052  0.1532 -0.2943
21886W        W38020  14.297   2.636   1.573 -0.1273 -0.0781  0.1007
21887W        W38021   9.440  12.997  12.992 -0.2062 -0.1802 -0.0529
21888W        W38022  13.183   9.949  12.458 -0.0481  0.0915  0.0668
21889W        W38023   1.798   5.444  15.373 -0.0828 -0.2426 -0.1213
21890W        W38024   7.130  12.176   0.799  0.4558  0.3307  0.1372
21891W        W38025   8.568   0.438  14.433  0.1649  0.0982  0.0238
21892W        W38026  17.121   1.263   4.960  0.0246  0.2411  0.1141
21893W        W38027   3.202  13.071   2.317 -0.0308 -0.1059  0.4048
21894W        W38028   7.850   1.796   1.084 -0.0813 -0.0382  0.3697
21895W        W38029   7.635   8.824  11.323  0.2195 -0.0268  0.2186
21896W        W38030   0.386   1.401  13.747 -0.2478  0.1853 -0.0584
21897W        W38031  15.916  10.393  15.894 -0.1234 -0.2334 -0.3496
21898W        W38032   9.246  14.363  15.956  0.3259 -0.0827  0.3119
21899W        W38033   2.870   3.104  11.315 -0.0155  0.2647 -0.0224
21900W        W38034  16.858   1.364  14.667 -0.1610 -0.0406  0.1148
21901W        W38035  17.100  11.610   0.969 -0.0038  0.0446  0.0650
21902W        W38036   6.147  17.117  13.305 -0.0338 -0.0743 -0.2231
21903W        W38037   2.707  16.752   2.490 -0.1627 -0.1356  0.0107
21904W        W38038  13.614  12.117   1.055 -0.4337 -0.1004 -0.1084
21905W        W38039   5.543  16.544  11.987  0.0705  0.2716  0.0946
21906W        W38040   6.381   2.785   3.034 -0.0046 -0.2851 -0.1102
21907W        W38041   7.264   2.959  13.908 -0.0456  0.1113 -0.0416
21908W        W38042  16.820   6.080   0.775  0.4253 -0.0519 -0.1460
21909W        W38043  15.165   8.588  13.999 -0.0367 -0.0046  0.2096
21910W        W38044   4.406  14.006  15.968 -0.2659 -0.1886 -0.1819
21911W        W38045   5.190   0.324   4.998  0.1835  0.0896 -0.0538
21912W        W38046   1.216   0.077  15.608  0.0776 -0.0262  0.2402
21913W        W38047   3.748   9.601   5.864 -0.0772 -0.1768 -0.3247
21914W        W38048  16.530   4.873   6.141  0.4748 -0.0145  0.2149
21915W        W38049  11.120  10.104   1.090  0.2651 -0.3713  0.0435
21916W        W38050  13.219  10.339  14.118  0.0411 -0.0167  0.3210
21917W        W38051  13.584   1.822  16.460 -0.2936 -0.0361  0.0842
21918W        W38052   0.633  14.314   0.620  0.1014  0.2105  0.1023
21919W        W38053   5.034   4.817  13.923  0.0440  0.0235  0.0431
21920W        W38054  13.128   6.497   3.476  0.0085 -0.0341  0.1274
21921W        W38055   2.400   6.811   1.942  0.3826  0.4025 -0.0934
21922W        W38056  14.343  16.723  15.173 -0.0994  0.2652 -0.2705
21923W        W38057  12.099  16.270   0.362 -0.1622  0.1054 -0.1026
21924W        W38058   9.112  14.935  13.411  0.2520 -0.0457 -0.1734
21925W        W38059  13.235  16.918   6.330  0.1298  0.2260 -0.3235
21926W        W38060   1.931  17.606   1.772 -0.3570  0.0455  0.0858
21927W        W38061   0.626   9.004  13.469 -0.1086 -0.1376 -0.0921
21928W        W38062  12.990   8.497  11.747  0.2336  0.3023 -0.3136
21929W        W38063  13.356   6.107  12.023 -0.1983 -0.0675 -0.2088
21930W        W38064   4.408  17.466   0.968  0.1623  0.1448 -0.0081
21931W        W38065   6.544   7.112   4.924 -0.2191 -0.0847 -0.0124
21932W        W38066   8.714  10.833  16.450  0.0722  0.0244  0.1178
21933W        W38067   8.227  11.393  14.793  0.2097  0.1227  0.3253
21934W        W38068   8.044   6.075   1.197  0.0286  0.0850  0.0328
21935W        W38069   3.512   8.028   1.045  0.3371 -0.0431 -0.0365
21936W        W38070   0.545   6.282   4.070 -0.1794 -0.2024 -0.2814
21937W        W38071   1.490   4.902   5.007  0.1262  0.0349 -0.2157
21938W        W38072  13.983   8.723   1.000  0.0976 -0.0624  0.0507
21939W        W38073  10.168   8.044   2.379  0.2668  0.2047 -0.0534
21940W        W38074  18.014  15.372   3.774 -0.0490 -0.1022  0.0801
21941W        W38075  17.942  16.306  13.486  0.0874 -0.1434 -0.3339
21942W        W38076  13.195  10.853   0.325  0.3066 -0.1299 -0.0765
21943W        W38077   1.568  14.908  15.421  0.1845 -0.0273 -0.0137
21944W        W38078   7.848  17.270   4.661  0.0427  0.0937  0.1094
21945W        W38079   5.434   7.054  14.518  0.2478 -0.2383 -0.2339
21946W        W38080   0.330   3.845  15.424 -0.1143  0.0744 -0.0127
21947W        W38081  13.524   5.800  15.703 -0.0787  0.2811 -0.0158
21948W        W38082  12.029   9.366  14.450  0.0329  0.0998 -0.0600
21949W        W38083   7.760   7.734  16.481 -0.0313  0.3362 -0.2285
21950W        W38084   1.810   7.748  13.582  0.0078  0.0055  0.3108
21951W        W38085   4.312  10.006   1.633  0.0597 -0.1802  0.1039
21952W        W38086   9.233   7.350  11.024 -0.1165  0.1153  0.1135
21953W        W38087   9.057  18.076  14.201 -0.0670 -0.1424 -0.1828
21954W        W38088   5.630  11.588  13.705  0.2360 -0.1020 -0.1691
21955W        W38089  16.466  11.531  15.192 -0.0651 -0.1685  0.2389
21956W        W38090  17.287   5.868   0.861 -0.1758  0.0913 -0.1086
21957W        W38091  17.232   5.148  13.741  0.1016  0.0961  0.3077
21958W        W38092   1.112  17.312  15.218  0.3702 -0.1327 -0.0992
21959W        W38093   1.239  15.427   1.913 -0.0743  0.1432 -0.3105
21960W        W38094   7.995  16.078  16.518 -0.1305  0.0055  0.0745
21961W        W38095  12.812  17.907   5.935 -0.0212  0.1046 -0.0514
21962W        W38096  12.115  12.607   1.284 -0.1313 -0.1583 -0.0224
21963W        W38097  10.791   8.409  11.228 -0.1869 -0.0325 -0.0804
21964W        W38098   1.704  17.497  12.910  0.0420  0.2862 -0.0623
21965W        W38099   9.344  17.127   3.321 -0.1867 -0.0601  0.0289
21966W        W38100  16.694  10.105  11.785  0.2174  0.2987 -0.2096
21967W        W38101  10.316  15.797   3.387 -0.2786  0.1454 -0.0310
21968W        W38102   1.864   4.381  13.553 -0.1368 -0.0504  0.0925
21969W        W38103  15.467   6.106  14.157 -0.2382  0.1182 -0.2670
21970W        W38104   9.383   6.515  15.311  0.0380 -0.2097 -0.1827
21971W        W38105  14.739  14.448   1.403 -0.1263  0.0027 -0.1443
21972W        W38106  11.751  11.031  11.597 -0.0848 -0.1062 -0.0555
21973W        W38107  14.152   8.362   1.287 -0.2790 -0.1347  0.1352
21974W        W38108   1.552   9.786   4.836  0.1551  0.3946 -0.0451
21975W        W38109   0.363   0.592  15.275  0.0119  0.1655  0.0349
21976W        W38110   3.387   4.490   2.896  0.1769  0.1110  0.0306
21977W        W38111  14.889   8.617   4.665  0.0433 -0.2413  0.0578
21978W        W38112   9.882   1.330  14.366 -0.0043  0.3152  0.1146
21979W        W38113   1.121   4.309   6.214  0.0554  0.2314 -0.0077
21980W        W38114   8.583  13.254  16.285  0.0460 -0.0000 -0.3843
21981W        W38115  15.609  10.734   0.912  0.0044 -0.0270  0.4611
21982W        W38116   2.048  16.534  11.545 -0.2713 -0.0658 -0.0608
21983W        W38117   2.579  10.182   1.290  0.3202 -0.2737  0.3027
21984W        W38118   4.896  13.124   2.203 -0.0233  0.0233 -0.0283
21985W        W38119  16.470  15.713   2.102  0.1145 -0.0031 -0.2346
21986W        W38120   7.170   7.899   1.009 -0.1336 -0.2682  0.1931
21987W        W38121   3.654  11.050   3.331 -0.0252  0.2259  0.1050
21988W        W38122   0.772   0.470  15.541  0.0674 -0.4175  0.0283
21989W        W38123   3.085  10.167  16.017  0.1696  0.2085 -0.1197
21990W        W38124  10.716  13.277   4.526 -0.3069 -0.1576 -0.1483
21991W        W38125  11.353   3.392   3.239 -0.1856 -0.2710  0.0803
21992W        W38126  16.769   6.336   2.963  0.0217  0.1078 -0.2212
21993W        W38127  12.939   5.204   2.058  0.0671  0.0559  0.0713
21994W        W38128   5.477   4.997  13.733 -0.1770  0.2416 -0.2007
21995W        W38129  11.134  13.199  15.970  0.0494 -0.1784 -0.2779
21996W        W38130   4.060  12.046  11.522  0.1288  0.0931  0.2120
21997W        W38131   1.132   2.975   6.186  0.0093 -0.0960  0.1428
21998W        W38132  12.873   0.940  13.492 -0.2994  0.0048  0.1098
21999W        W38133  11.566   8.464  13.121  0.1867 -0.1089  0.0343
22000W        W38134   7.487  14.191   0.098  0.0493 -0.3067  0.1922
22001W        W38135   0.028   8.035  16.096  0.2265 -0.0863 -0.2127
22002W        W38136   6.659   7.322   4.414 -0.4788  0.0159  0.1076
22003W        W38137   8.816   5.850   2.019  0.0598 -0.0655 -0.2163
22004W        W38138   1.099   1.244   4.083 -0.2580  0.2284  0.1278
22005W        W38139  18.098  14.327  15.538  0.0310  0.0446  0.3767
22006W        W38140   7.231   6.926  12.904 -0.0201  0.2373 -0.0362
22007W        W38141  17.771   6.742   2.918 -0.0889 -0.0099  0.1097
22008W        W38142   5.657   7.803  14.827 -0.0917 -0.1164  0.1982
22009W        W38143   2.104   5.234  14.235 -0.1042  0.3652  0.0904
22010W        W38144   7.370  11.767   3.265 -0.0531 -0.0403 -0.2412
22011W        W38145   5.383  10.801   5.193 -0.0786  0.0990 -0.0453
22012W        W38146   7.667  17.465  13.402  0.0531  0.0069 -0.2696
22013W        W38147   1.507   2.944  12.391  0.1356 -0.1072 -0.0323
22014W        W38148  17.907  14.840   0.433  0.0382  0.0376  0.0547
22015W        W38149   1.653  14.387  13.861 -0.3965 -0.0380 -0.1239
22016W        W38150  16.047  15.581   1.394 -0.1722 -0.2365 -0.2861
22017W        W38151  17.618   2.236  15.704 -0.0631 -0.0080 -0.1837
22018W        W38152  15.145   0.565   3.770  0.3179  0.0271 -0.0179
22019W        W38153   6.800  10.968   0.249 -0.1026  0.0705  0.2681
22020W        W38154  10.124  14.385  14.720 -0.0657  0.3459  0.4029
22021W        W38155  14.940   8.579   4.049  0.1274  0.0271  0.0687
22022W        W38156  15.786   6.928  16.463 -0.0388 -0.1035  0.1716
22023W        W38157   8.817  13.332   0.151 -0.1183  0.2443  0.0048
22024W        W38158  14.608  14.976  15.851  0.1242 -0.1114 -0.2862
22025W        W38159  12.696   8.213   3.604 -0.2874 -0.1532 -0.0046
22026W        W38160   3.450   0.777   4.771  0.2038 -0.2685 -0.0861
22027W        W38161  12.176   2.375  11.334 -0.2720  0.1769 -0.0716
22028W        W38162  17.991  11.851  12.254 -0.2497 -0.0130 -0.1883
22029W        W38163   8.677   5.743  12.741 -0.1321 -0.1410 -0.1250
22030W        W38164  12.417  14.720   0.066  0.2070 -0.0862  0.1792
22031W        W38165  16.191   7.541   3.396 -0.2073  0.0591 -0.1648
22032W        W38166  14.789   8.166   1.620  0.0121  0.0828 -0.1821
22033W        W38167  15.764  10.921   4.697  0.0995  0.1612 -0.1946
22034W        W38168   6.169   0.679   3.520  0.2483  0.2012 -0.0154
22035W        W38169  10.541  13.847  16.471  0.0664  0.3222  0.0952
22036W        W38170  17.102   9.663  13.859 -0.2925  0.0675  0.1489
22037W        W38171   0.528   3.747  12.623 -0.0824 -0.2244 -0.0263
22038W        W38172  12.033   1.632   1.970  0.0356  0.1384  0.1664
22039W        W38173   6.736   5.453  13.063 -0.0413  0.2964 -0.0343
22040W        W38174   3.978  11.141  11.212  0.1568 -0.0352  0.0953
22041W        W38175  13.269  15.126   2.690 -0.0955  0.0053 -0.1137
22042W        W38176  15.235   2.716   2.562 -0.1384  0.0417 -0.0595
22043W        W38177  12.392  10.394   0.750 -0.4192  0.1510 -0.3302
22044W        W38178  10.235   9.194   2.865  0.0655  0.1960  0.0423
22045W        W38179   6.067  12.851   0.465 -0.1363 -0.1384  0.0107
22046W        W38180   0.531   0.688   6.170 -0.0522 -0.2219 -0.2623
22047W        W38181   5.782   8.972  11.846 -0.3590  0.1273 -0.0392
22048W        W38182  17.745  14.975   4.898  0.0062 -0.1484  0.1830
22049W        W38183  11.704   6.730  13.511 -0.2505 -0.2086 -0.1402
22050W        W38184  15.780  13.358  12.162  0.0493 -0.0268  0.1052
22051W        W38185   8.754   0.369  15.728 -0.0671 -0.0496 -0.3119
22052W        W38186   1.249   6.827   0.451  0.0257 -0.1052  0.4194
22053W        W38187   0.806   8.761   2.968 -0.3633 -0.1770  0.0388
22054W        W38188  16.243   0.910   5.702 -0.0097  0.1136 -0.1508
22055W        W38189  18.005   0.176   0.997 -0.0878  0.1446 -0.0581
22056W        W38190  17.243  14.292   3.384  0.1332  0.2148 -0.0271
22057W        W38191  13.081   7.538  11.658 -0.1931  0.0814 -0.0971
22058W        W38192  11.940   6.544   4.265  0.3392  0.1453 -0.0587
22059W        W38193   5.568  12.081   2.954  0.0064 -0.2160 -0.0012
22060W        W38194  17.962  13.507  12.682  0.3394  0.0669 -0.1195
22061W        W38195   2.772  14.029   0.881 -0.2398  0.2593  0.0075
22062W        W38196   6.907  11.879  15.799  0.0736  0.0253 -0.0695
22063W        W38197   9.431   8.940   1.764 -0.0613 -0.2827 -0.0690
22064W        W38198   3.041   2.173   4.657  0.1943 -0.1816  0.1958
22065W        W38199   6.243  14.232  12.308 -0.1024  0.1902 -0.2329
22066W        W38200   1.518  16.377  13.035 -0.0488  0.0818  0.1018
22067W        W38201  10.901   9.639   0.305  0.1644  0.0115  0.0385
22068W        W38202   5.989   7.335  11.122  0.2397 -0.1699  0.2741
22069W        W38203   6.627  16.064  13.538  0.2793  0.3261  0.1227
22070W        W38204  15.479   2.175  15.784 -0.0208  0.0044 -0.0747
22071W        W38205  13.299  10.221   0.390 -0.3119  0.1150  0.0006
22072W        W38206   3.220   1.339   3.036  0.0663 -0.0456  0.1765
22073W        W38207  17.203   5.409   6.225  0.0400 -0.1087  0.2984
22074W        W38208  16.453   6.199   3.420  0.1212  0.2467  0.3779
22075W        W38209  15.947   3.584  12.200  0.2103  0.0866  0.0115
22076W        W38210  18.171   2.299  12.799  0.1953  0.0052  0.4668
22077W        W38211  16.883   9.666  16.154  0.3592 -0.1288 -0.0262
22078W        W38212   9.297  16.390   5.067  0.1022 -0.0319 -0.0877
22079W        W38213  11.913  11.523  11.599 -0.4247 -0.2515 -0.0722
22080W        W38214  17.428  11.595   5.045  0.3527 -0.0363  0.2596
22081W        W38215  10.310  16.957  13.004 -0.1206  0.1715 -0.1398
22082W        W38216   6.499  10.518   2.051  0.3526  0.1232  0.2318
22083W        W38217  10.750  11.425   5.661 -0.1950 -0.0256 -0.0506
22084W        W38218  10.228   9.553  12.645 -0.0465  0.1640  0.1641
22085W        W38219   0.554   3.988   0.735 -0.1062 -0.0971  0.2833
22086W        W38220  17.553   3.795  10.551 -0.0642  0.0041 -0.1180
22087W        W38221   2.675  17.728   1.167  0.0110  0.4291  0.1043
22088W        W38222   6.837  16.235  12.229  0.0066 -0.2330  0.1530
22089W        W38223  14.779  11.310   2.365 -0.2283 -0.3243 -0.1723
22090W        W38224   5.430  15.866   3.720 -0.0038  0.3214  0.1413
22091W        W38225  14.164   6.023  10.953 -0.1127  0.0052 -0.0063
22092W        W38226   9.449  10.765   3.275 -0.4360 -0.0653  0.0937
22093W        W38227   6.552  10.897  12.612 -0.1967 -0.1100  0.1329
22094W        W38228  15.740   4.477   2.360  0.1091 -0.0826 -0.1953
22095W        W38229  15.318   1.655   2.444 -0.1376  0.1705  0.0085
22096W        W38230  13.123   3.608  16.520 -0.0936 -0.1658  0.0375
22097W        W38231   9.677  10.033  13.821 -0.1743 -0.2809 -0.0040
22098W        W38232  15.381   0.903   2.931  0.0848 -0.2141  0.2481
22099W        W38233   3.549  18.010   5.005  0.4463 -0.0905 -0.0922
22100W        W38234  14.531   9.137  12.833 -0.0301 -0.3066 -0.1700
22101W        W38235   7.497  11.311   2.972  0.2440 -0.1074 -0.0019
22102W        W38236   8.050   3.836   1.396  0.0156  0.0619  0.0487
22103W        W38237   6.514  13.249   4.102  0.0173 -0.1121  0.1911
22104W        W38238   2.079   5.436  16.287 -0.2024  0.4130 -0.2382
22105W        W38239   5.059   4.535  15.727 -0.2696 -0.0165  0.0372
22106W        W38240   3.150  10.081  12.102  0.0322 -0.2257  0.2986
22107W        W38241  12.887   5.689   2.121 -0.1006 -0.1850  0.0761
22108W        W38242   2.033  13.994  16.540 -0.2493  0.1061  0.0133
22109W        W38243  10.437  14.667   5.061  0.1711 -0.1135 -0.1984
22110W        W38244   6.538  10.295  12.396 -0.2774 -0.0458 -0.1003
22111W        W38245  14.965   2.361  15.667  0.0921  0.2524 -0.2327
22112W        W38246   3.880  18.010  15.405 -0.0712 -0.2904  0.1441
22113W        W38247  17.157   9.194  14.344  0.0200 -0.0917 -0.3189
22114W        W38248  13.194  11.602   2.393  0.0750  0.1520  0.4429
22115W        W38249   8.361  14.987  13.172 -0.0582 -0.3017 -0.0477
22116W        W38250   7.801   4.225   3.184 -0.3011 -0.1050 -0.0685
22117W        W38251   1.443  10.791   1.314 -0.1446  0.2151  0.0213
22118W        W38252  17.387   1.523  11.668  0.0641  0.0745  0.3609
22119W        W38253   9.253   7.369  13.750 -0.0111 -0.3020 -0.0682
22120W        W38254   2.812  11.793  16.040 -0.0905  0.1557 -0.2012
22121W        W38255   8.004   9.726   3.957 -0.0584 -0.0218 -0.1668
22122W        W38256  17.509  10.009  11.486  0.2653  0.2271  0.3944
22123W        W38257   4.072   9.511   4.554  0.2194 -0.0811 -0.1248
22124W        W38258   9.334   5.277  14.889 -0.1639 -0.0163 -0.3097
22125W        W38259   8.405   7.513   1.225  0.1077  0.0900 -0.1574
22126W        W38260  14.690  13.708   5.335  0.0647  0.0903  0.5607
22127W        W38261  15.662   4.973  13.296  0.0837 -0.1407 -0.3858
22128W        W38262   5.214   2.349   0.254  0.0842  0.3878 -0.3273
22129W        W38263  10.798  12.954   2.922  0.0485 -0.1833  0.0238
22130W        W38264  17.761   6.608  13.499 -0.0899  0.3322 -0.0036
22131W        W38265  15.479   2.100  13.929  0.2291  0.1039 -0.0138
22132W        W38266  13.079   4.529  14.044  0.1063  0.0485 -0.0884
22133W        W38267  12.461  11.244   1.737  0.0328  0.1781 -0.1980
22134W        W38268   3.610   9.233  12.528 -0.0965  0.0287  0.1784
22135W        W38269   8.331   7.575   5.296  0.0356  0.3366 -0.2359
22136W        W38270  17.812  14.574  15.006  0.0219 -0.0191 -0.4136
22137W        W38271   3.715   1.947  15.372  0.0361 -0.0969 -0.1148
22138W        W38272  12.419   7.683  11.762 -0.1684 -0.3815 -0.1200
22139W        W38273   7.796   4.764  12.128  0.0509 -0.1839  0.1652
22140W        W38274   7.217  12.432  12.154  0.1045  0.0420  0.0420
22141W        W38275   4.018   1.532  11.887  0.0123  0.0984  0.2650
22142W        W38276   7.388   0.191  13.478 -0.1099 -0.0409  0.2306
22143W        W38277  16.839   5.980   2.106 -0.0087  0.2636 -0.1744
22144W        W38278   2.289  10.064   4.060  0.4092  0.0799 -0.1091
22145W        W38279   7.266   1.811  13.667  0.0310 -0.0302  0.3409
22146W        W38280   6.847  18.092   5.691 -0.0685 -0.0251  0.1584
22147W        W38281  12.003   1.171   1.907 -0.2767 -0.2477  0.0594
22148W        W38282  15.027   5.412  16.085  0.0953 -0.4338  0.0209
22149W        W38283   9.437   5.914   3.817 -0.0345 -0.1080  0.0152
22150W        W38284   4.736  10.089  13.689  0.0629 -0.0092 -0.1646
22151W        W38285   3.987  14.102   4.064  0.1038 -0.1792  0.1396
22152W        W38286  17.625   7.807  14.736 -0.1182 -0.3635 -0.0150
22153W        W38287   2.431   2.180  15.497  0.0071  0.2658  0.0432
22154W        W38288   4.805   3.688  15.722 -0.0286 -0.1283  0.0748
22155W        W38289  15.512   9.355  16.525 -0.1526 -0.0666 -0.0143
22156W        W38290  15.505  14.859  13.618 -0.1007  0.2833 -0.3114
22157W        W38291  11.771  11.317   0.249  0.0474  0.1752 -0.0460
22158W        W38292  14.094  11.465   0.384  0.0938  0.0157  0.3511
22159W        W38293   0.764   2.107  15.254  0.1170  0.2208  0.1544
22160W        W38294   1.859   1.924   3.602  0.0028 -0.0457  0.0874
22161W        W38295  17.033   5.805  15.308  0.1320 -0.0415 -0.2521
22162W        W38296  16.697   7.578  15.667 -0.0530  0.2071 -0.2176
22163W        W38297  14.903   2.785   2.136  0.2535  0.1759 -0.1527
22164W        W38298  10.838  14.947   3.577  0.0556  0.1559 -0.0190
22165W        W38299  17.451   7.941  11.212  0.3880  0.1537  0.1657
22166W        W38300  13.399  16.873  16.135 -0.4310 -0.0224  0.0206
22167W        W38301  16.510  17.659  11.908  0.0524  0.0554 -0.0399
22168W        W38302   0.552   8.576   0.198  0.0440 -0.0102  0.1140
22169W        W38303   7.734  16.364  14.599 -0.1214 -0.1421  0.0771
22170W        W38304  12.444  15.630  15.590  0.1595  0.0459 -0.1178
22171W        W38305   9.140  13.873  14.409 -0.0124 -0.1350  0.0221
22172W        W38306  12.699   8.233  13.487 -0.1840  0.1983  0.0733
22173W        W38307  14.383   2.832   2.022 -0.2966  0.0817  0.1146
22174W        W38308   2.130   3.415  13.481 -0.0856  0.1894 -0.2295
22175W        W38309  11.650   5.099   1.381  0.0224  0.1139 -0.0364
22176W        W38310   4.707  16.245   5.142 -0.0972 -0.4066  0.1678
22177W        W38311  16.344   5.645  11.945 -0.0207 -0.2284 -0.2121
22178W        W38312   6.320  15.054   2.493  0.1801  0.0629 -0.2680
22179W        W38313   5.228  17.046   4.490  0.0537 -0.1897  0.3502
22180W        W38314   3.310   9.625  11.737 -0.1019  0.1513 -0.0395
22181W        W38315  14.471   1.546   6.048  0.3966 -0.3601  0.0565
22182W        W38316   2.466   9.386   4.229 -0.3475 -0.1303  0.0511
22183W        W38317  15.749  16.415   2.611 -0.1403 -0.0749 -0.0905
22184W        W38318   6.623  11.600   0.954 -0.1700  0.2983  0.1559
22185W        W38319   3.941   4.620  14.446 -0.0107 -0.2742 -0.0274
22186W        W38320   2.944   5.180  15.241 -0.1308  0.1006  0.3035
22187W        W38321  12.316  15.792   4.146  0.0038  0.0046 -0.2176
22188W        W38322  12.579  13.057  16.348  0.1110  0.4173 -0.0373
22189W        W38323  18.005  15.881   3.479 -0.1960 -0.3468 -0.0340
22190W        W38324   1.806   6.697   2.541  0.2797 -0.1234  0.0846
22191W        W38325  15.240  12.208  11.982 -0.0465  0.0207 -0.2208
22192W        W38326  12.245  15.238   0.279  0.0794  0.2474  0.0812
22193W        W38327  11.639  16.554   3.534 -0.5213  0.2058 -0.2931
22194W        W38328  11.298   9.768  15.063 -0.1136  0.0087 -0.2546
22195W        W38329   2.917   3.528  14.438 -0.1389  0.0625 -0.0464
22196W        W38330   5.406  14.847   0.313 -0.0104  0.0336  0.1568
22197W        W38331   1.204  13.258   4.340  0.0668 -0.0416  0.0655
22198W        W38332   4.190  13.544  12.197 -0.1891 -0.0569  0.3755
22199W        W38333   6.851   8.352  16.223 -0.1608 -0.4097  0.0081
22200W        W38334  13.355  13.957   5.902 -0.0790  0.0644 -0.0258
22201W        W38335   1.075  18.173   3.293 -0.1318 -0.1927  0.3372
22202W        W38336   3.564  16.233   2.928  0.2134 -0.0147 -0.1082
22203W        W38337  13.457   6.387   4.883  0.1249  0.5239  0.0622
22204W        W38338   2.369   1.738  12.987  0.2951 -0.3824 -0.1775
22205W        W38339  13.186   8.302  13.459  0.1606 -0.3543  0.1288
22206W        W38340  12.149   2.434   5.554 -0.0657  0.0185 -0.2252
22207W        W38341  16.354   3.017  14.273  0.0477  0.1313  0.0809
22208W        W38342   3.262  13.275   1.391  0.0746  0.2268 -0.1968
22209W        W38343   1.450  16.987  15.092 -0.1270  0.0576  0.2332
22210W        W38344   3.910   5.365   0.472 -0.0919 -0.1078  0.1501
22211W        W38345   6.637   0.255   0.864 -0.1536  0.0864  0.2181
22212W        W38346   0.109  16.587   2.293  0.2705  0.1273 -0.0818
22213W        W38347   7.181   8.364   1.538  0.0379 -0.1081 -0.2603
22214W        W38348   0.348   7.294   1.540  0.0704 -0.0042 -0.1324
22215W        W38349   0.012  13.732   4.926 -0.0047  0.1335 -0.0341
22216W        W38350   1.090   2.469   0.404 -0.0361 -0.2151  0.0058
22217W        W38351   5.509   8.791  10.972  0.1921 -0.2296  0.2210
22218W        W38352  17.496   3.301  14.822  0.0273 -0.0083 -0.0069
22219W        W38353  15.129   4.692   5.036  0.1867 -0.2426 -0.0427
22220W        W38354  12.494  13.075   2.037 -0.5019  0.1627  0.2788
22221W        W38355   5.776   0.196   0.896 -0.1883 -0.0853  0.2462
22222W        W38356   4.880  18.014  14.532  0.1685  0.2276  0.2155
22223W        W38357   2.214  12.561   3.743 -0.1684  0.1901 -0.1565
22224W        W38358   6.828  16.994   1.853  0.0810  0.0424  0.1199
22225W        W38359   9.763  11.573   2.028  0.0043  0.0607 -0.0285
22226W        W38360   5.632   3.704  11.979 -0.3084 -0.0693  0.2019
22227W        W38361  16.576   0.079   2.900  0.3318  0.2361  0.0287
22228W        W38362  17.374  11.468   3.252  0.0147  0.0561 -0.1926
22229W        W38363  16.429  11.232  14.693  0.1933  0.0367  0.1241
22230W        W38364   6.842  11.182  11.567 -0.0235 -0.1763  0.0622
22231W        W38365   9.191   0.106  14.771  0.1561 -0.1490 -0.0343
22232W        W38366   6.519  10.917   3.739  0.2865 -0.1290  0.0638
22233W        W38367   9.833  13.299   3.884 -0.1448 -0.3310  0.2509
22234W        W38368  15.071  15.910   5.431  0.1303  0.0118 -0.3260
22235W        W38369  12.776  12.785  11.984 -0.3905 -0.0931 -0.0609
22236W        W38370   6.969   6.546   3.906 -0.1121  0.0490  0.1600
22237W        W38371   5.557  15.763   5.402  0.2354 -0.0482 -0.2894
22238W        W38372  14.587   6.833  11.352 -0.2118  0.2329 -0.2666
22239W        W38373  12.936   0.598   0.461  0.0969 -0.0537  0.3390
22240W        W38374  13.234   5.533   5.521 -0.1640  0.3524  0.0639
22241W        W38375  12.700   1.112   3.856 -0.1306  0.0381 -0.1011
22242W        W38376  12.928   0.701   3.864  0.2497 -0.0057 -0.0150
22243W        W38377  14.803   3.667   3.767  0.1731  0.5353 -0.1574
22244W        W38378   2.731  13.724   4.975  0.1079 -0.1532  0.0817
22245W        W38379  14.125   7.374  14.434  0.0761 -0.0657  0.0232
22246W        W38380  12.933   9.777   2.021 -0.0496 -0.0482  0.0116
22247W        W38381  11.562   6.786   0.485  0.0239 -0.2493  0.2092
22248W        W38382  13.278   7.553  13.949 -0.0202 -0.1739 -0.1848
22249W        W38383  11.075   1.066  16.220 -0.1944  0.0703  0.1683
22250W        W38384   4.417  11.157  15.731 -0.2305 -0.3075 -0.2151
22251W        W38385   2.474   1.257   0.651 -0.0941 -0.2492 -0.1602
22252W        W38386   5.532  17.272   0.986 -0.1935 -0.1523 -0.1840
22253W        W38387   5.748  14.555  13.042 -0.0237  0.0510  0.3834
22254W        W38388   5.671  10.407  12.883  0.3915  0.0030  0.2420
22255W        W38389   7.318   5.016  13.789  0.1609  0.1561 -0.5263
22256W        W38390   0.324  15.959   4.588 -0.1217  0.2780  0.0249
22257W        W38391  12.449   2.184   2.522  0.1649 -0.0865 -0.1489
22258W        W38392   6.741   3.373   3.743  0.3665 -0.1173 -0.4537
22259W        W38393   3.103   5.703  15.282  0.2274  0.1120 -0.0639
22260W        W38394  16.647   7.593  11.902 -0.0571  0.1593 -0.0264
22261W        W38395   0.773   6.917   0.415  0.0445 -0.1943 -0.0924
22262W        W38396   8.751   7.004  11.020  0.0817  0.0651 -0.0010
22263W        W38397  14.257   8.056  15.508  0.4637 -0.0894  0.0601
22264W        W38398  10.341   1.461  14.144 -0.0356  0.3875 -0.1803
22265W        W38399   1.811   8.063  16.274  0.1098  0.0694  0.2643
22266W        W38400  10.043  14.822   5.478 -0.0740 -0.1303  0.0606
22267W        W38401   8.844   3.458   1.323 -0.0788  0.1229 -0.1051
22268W        W38402   7.038  13.330  15.678  0.2675 -0.3790 -0.0814
22269W        W38403  16.116   7.440   0.096  0.0858 -0.0091  0.3229
22270W        W38404  11.079  10.708  15.326  0.0364  0.1818  0.0171
22271W        W38405   7.793  10.377  10.205  0.2478  0.4589  0.0845
22272W        W38406   6.560   7.597   4.933 -0.2382 -0.0772 -0.1309
22273W        W38407  13.822   4.645  12.923 -0.2041  0.1345 -0.3367
22274W        W38408   3.393   4.334   2.450  0.0027 -0.0955  0.1105
22275W        W38409   7.702  16.204   1.700  0.4058  0.0789  0.0797
22276W        W38410  17.025  13.132   6.045 -0.0893 -0.3870 -0.0346
22277W        W38411   7.518   6.740   0.156 -0.3380  0.1668 -0.0918
22278W        W38412  11.201  13.671  12.492 -0.1695 -0.0634  0.0161
22279W        W38413   4.820   8.598  13.465  0.3872 -0.1157 -0.0059
22280W        W38414   9.279   6.622   5.435  0.0586 -0.1515  0.0782
22281W        W38415   7.436   9.672  13.723  0.1958 -0.0059 -0.0324
22282W        W38416   9.607  17.001   2.186 -0.3167  0.2406 -0.0133
22283W        W38417   9.916   4.802  14.263 -0.0052 -0.0555  0.1874
22284W        W38418   0.427  12.456  12.467  0.2271 -0.0727 -0.1637
22285W        W38419  14.659  13.727   4.737 -0.3857 -0.1573 -0.0222
22286W        W38420  13.637  17.975  11.666  0.0194  0.1618  0.0688
22287W        W38421   0.601  16.727   4.787 -0.0844  0.1315 -0.2140
22288W        W38422   6.807   8.518  14.487 -0.0274  0.0531 -0.2652
22289W        W38423   2.992  15.340  16.177 -0.3182 -0.3473  0.1892
22290W        W38424   6.609   7.891  11.492 -0.1747  0.1662  0.0280
22291W        W38425   6.147  17.583  13.035 -0.0769 -0.0312  0.3172
22292W        W38426  17.871  14.437  13.300  0.1579  0.1429 -0.1117
22293W        W38427   3.184   5.601   4.749 -0.4095  0.1014  0.0534
22294W        W38428  14.650   8.592  12.539  0.1524  0.0234 -0.4214
22295W        W38429   6.395   5.922  11.716 -0.0907  0.2752  0.0395
22296W        W38430  16.019   6.604   2.049 -0.0403  0.0882 -0.1598
22297W        W38431  11.012  12.357   1.625 -0.3147  0.0943 -0.0048
22298W        W38432   2.698  18.074   3.204 -0.0252  0.1898  0.1076
22299W        W38433  17.492   7.354  11.427 -0.2476  0.0069 -0.0844
22300W        W38434   3.300  10.588   4.070  0.1472 -0.0651 -0.1103
22301W        W38435  11.110  11.027  12.783  0.3016  0.0180  0.1901
22302W        W38436   9.198  15.670   4.979 -0.2647 -0.3297 -0.1449
22303W        W38437  14.476   5.905  10.614  0.1769 -0.2460 -0.1017
22304W        W38438  12.902  13.740   3.058 -0.1472  0.2883 -0.0170
22305W        W38439  14.631  12.951   4.617 -0.1203  0.0790  0.2438
22306W        W38440   7.506  10.846  14.208 -0.0281  0.2115 -0.0430
22307W        W38441  15.189   8.817   2.421 -0.1586 -0.1555  0.0264
22308W        W38442   7.285   9.280  12.249 -0.3860  0.1750 -0.2226
22309W        W38443   7.451  17.914  12.685 -0.1036 -0.2780  0.0786
22310W        W38444   4.139   9.011  16.134 -0.2651 -0.1229  0.2138
22311W        W38445   8.348  10.516  16.410 -0.0048 -0.4897 -0.1549
22312W        W38446   1.440   3.787  11.233 -0.1183 -0.1171  0.0244
22313W        W38447   7.322   2.477  12.918 -0.1874  0.0609  0.2688
22314W        W38448   0.680   4.721  15.966  0.0371 -0.0899  0.2350
22315W        W38449   6.400   0.695  14.164  0.1945 -0.2016 -0.0960
22316W        W38450  17.253   5.661  13.598 -0.1120  0.0667 -0.0719
22317W        W38451   3.107   0.603  14.264  0.1722 -0.3529 -0.0645
22318W        W38452  14.447   1.612   2.787  0.1637 -0.1845  0.0406
22319W        W38453   1.774   6.344   4.499 -0.0907 -0.2854  0.1471
22320W        W38454   8.473  17.169   4.417 -0.0036  0.2046  0.1761
22321W        W38455  11.913  16.329  14.840 -0.3692  0.1127 -0.2381
22322W        W38456  12.292   1.696   3.087  0.2031 -0.1654 -0.1748
22323W        W38457   0.088  17.515  15.057 -0.1448  0.0036  0.1605
22324W        W38458   3.000  16.126   0.859  0.2609  0.0001  0.2492
22325W        W38459   7.525  14.648   3.721 -0.0562  0.0042 -0.2834
22326W        W38460  15.825  13.317   3.267 -0.1254 -0.1345 -0.0116
22327W        W38461  10.265  12.802   0.339  0.1383  0.1455  0.1897
22328W        W38462  15.513  12.930  15.977 -0.3269 -0.3858  0.0544
22329W        W38463   1.518  16.954  15.699 -0.2016  0.0690  0.0373
22330W        W38464   0.301  16.051  12.199  0.2828 -0.1372 -0.0519
22331W        W38465   5.535  10.306   0.010  0.0572  0.1420  0.0402
22332W        W38466  10.896  12.057   3.790 -0.0949  0.1297  0.0701
22333W        W38467  10.962   4.023   0.754 -0.1789 -0.0269  0.0168
22334W        W38468  10.077   7.741   5.588 -0.2868  0.0530  0.1826
22335W        W38469   7.074   1.089   1.496 -0.2391  0.0700  0.2556
22336W        W38470   0.479   7.764  15.890 -0.0022  0.1211 -0.0867
22337W        W38471   8.249   0.827  13.475 -0.0125 -0.2713  0.2959
22338W        W38472  15.895  16.300   2.128  0.0900 -0.0110 -0.2999
22339W        W38473  15.056   0.469   2.464  0.0415 -0.0002  0.1215
22340W        W38474   0.154   7.093  14.870 -0.2322 -0.1421  0.1639
22341W        W38475   3.703   3.618   3.421  0.2843  0.3777 -0.0369
22342W        W38476  15.274   2.692   4.987 -0.0113 -0.3490  0.2288
22343W        W38477  11.591   5.610   4.364 -0.2528  0.1321  0.0497
22344W        W38478  10.575  10.910  10.801 -0.0761  0.2501  0.0286
22345W        W38479   4.595  13.409  14.527  0.2038  0.0715 -0.3421
22346W        W38480  16.990  16.777   1.559 -0.1082 -0.0115 -0.3573
22347W        W38481  15.417   1.056   2.386 -0.0096  0.1426 -0.0727
22348W        W38482  15.590   6.178   5.874  0.1234 -0.2220  0.2835
22349W        W38483   8.497  11.035   4.885 -0.1423  0.1844  0.0452
22350W        W38484  11.094  18.088  12.000  0.0493  0.1621 -0.0473
22351W        W38485   0.249   9.908  13.151 -0.0330 -0.1757  0.1172
22352W        W38486  11.097   9.987   1.612 -0.1097  0.1058  0.1152
22353W        W38487  15.338   8.843  11.515 -0.1385  0.1557 -0.0896
22354W        W38488   1.908   6.657   3.078 -0.4333  0.3909 -0.0133
22355W        W38489   2.063  15.810   4.088 -0.0482 -0.0171 -0.1882
22356W        W38490   7.671  15.500   3.823 -0.0624 -0.3462  0.1867
22357W        W38491  16.430   2.937   0.662 -0.4996 -0.1479  0.1474
22358W        W38492  10.585  13.721   0.460  0.2459  0.1187  0.1780
22359W        W38493   9.297  16.787  13.548 -0.0253  0.0337 -0.0316
22360W        W38494   9.282   6.362   4.179 -0.0332 -0.0435 -0.0570
22361W        W38495  13.693  10.745   1.457 -0.2889 -0.3079 -0.2488
22362W        W38496   6.840  17.279   5.387  0.2630  0.2919  0.0699
22363W        W38497   8.717   2.102   2.756  0.0150 -0.0639  0.0786
22364W        W38498  17.331  16.201  14.124  0.2950 -0.1755 -0.0650
22365W        W38499   6.070   3.233   0.130  0.1499  0.0835 -0.0809
22366W        W38500   0.036  16.598  14.548  0.3465 -0.0071  0.0029
22367W        W38501  16.522  12.190  11.720  0.0840  0.1786  0.0126
22368W        W38502  17.134  17.820  15.000 -0.2037 -0.4129  0.1236
22369W        W38503   3.707  16.283  12.609 -0.0599  0.1342  0.0647
22370W        W38504  12.463   3.244   3.387 -0.2347 -0.2041  0.2630
22371W        W38505   6.459   3.187  14.258 -0.1894  0.1913 -0.3437
22372W        W38506   8.902   0.166   6.251 -0.0722  0.0482 -0.0076
22373W        W38507  15.913  14.511  15.895  0.0628  0.2338 -0.0830
22374W        W38508   4.237  14.885  16.342 -0.0327  0.1634  0.1370
22375W        W38509   4.520   6.257  13.153 -0.0231 -0.0379 -0.1398
22376W        W38510  10.001   7.519  11.252 -0.2111  0.0804  0.0491
22377W        W38511  15.846   9.945  13.806  0.0145  0.0909 -0.0035
22378W        W38512   0.146   6.720   3.441  0.0870 -0.1504  0.0664
22379W        W38513   8.122   1.533  15.123  0.1598  0.1253 -0.2232
22380W        W38514   2.838   5.736  13.503  0.2701 -0.2105 -0.0546
22381W        W38515   9.852  11.933  11.662  0.2119  0.0087  0.0524
22382W        W38516   1.214   9.055  11.046  0.3208  0.3098  0.0451
22383W        W38517  12.138  11.327   4.546  0.1506 -0.1494 -0.1996
22384W        W38518   1.772   9.200  14.696 -0.1312  0.2616 -0.1912
22385W        W38519   1.357   9.637   3.248  0.1563  0.0806 -0.0280
22386W        W38520   6.247  12.295   2.528  0.3499 -0.3799  0.1294
22387W        W38521  17.159  17.976   5.885 -0.1533  0.1384  0.3433
22388W        W38522  10.644  18.077  13.424 -0.0036  0.2959  0.2296
22389W        W38523  10.328  11.095  14.483 -0.0578 -0.1327  0.0409
22390W        W38524   8.530  15.144   1.913 -0.0986 -0.1210  0.0783
22391W        W38525   8.991   4.034  15.403  0.1278 -0.0842  0.1206
22392W        W38526  12.015   4.927  14.098 -0.0773  0.0008  0.1581
22393W        W38527   0.924  11.346  14.573  0.3642  0.1345 -0.3318
22394W        W38528   7.218   9.125  13.116  0.1939 -0.1959 -0.2414
22395W        W38529  13.862   6.658   6.097 -0.1025  0.1272 -0.2556
22396W        W38530   3.395  11.767  14.149 -0.0405 -0.0402  0.3811
22397W        W38531   8.425   5.845   0.631  0.1004 -0.1771 -0.2402
22398W        W38532   3.028  15.290   0.509 -0.0825  0.1690 -0.1485
22399W        W38533   6.937   5.362  13.638 -0.0695  0.0830 -0.1134
22400W        W38534  16.176   1.323   0.718  0.0097  0.1206 -0.2630
22401W        W38535  14.972  10.007  12.183 -0.1630  0.0984 -0.0894
22402W        W38536   7.176   1.516  15.429  0.0282 -0.0306  0.1126
22403W        W38537   3.565   4.268  15.628  0.0508 -0.0129  0.4721
22404W        W38538  17.167   4.858  12.031 -0.1903  0.1238 -0.0084
22405W        W38539  17.691  10.597   3.973  0.3161  0.3002 -0.0031
22406W        W38540   5.893   8.182  16.518 -0.0900 -0.3104  0.3836
22407W        W38541   8.759   4.984   3.865  0.2156  0.0815 -0.0280
22408W        W38542  10.866  12.706  12.553 -0.2863 -0.1782 -0.2904
22409W        W38543  13.688   2.231  15.770  0.1152 -0.0996  0.0326
22410W        W38544  15.325  17.852  16.018  0.0956 -0.2085  0.2921
22411W        W38545  16.538   4.831   0.811 -0.0176 -0.1570  0.0508
22412W        W38546  14.774  17.081  13.249  0.1753 -0.2928  0.0494
22413W        W38547   9.533  12.285   5.050  0.0614  0.0978  0.0048
22414W        W38548  15.386  13.854   3.148  0.3002 -0.0665 -0.1134
22415W        W38549   1.442   5.167  14.128 -0.0021 -0.0184 -0.1327
22416W        W38550  14.036  12.152   1.559  0.1086  0.0189  0.0028
22417W        W38551   5.378   1.607  11.890  0.2403 -0.2049  0.1258
22418W        W38552  15.377   4.178   2.496 -0.4094  0.1583 -0.0271
22419W        W38553  13.119  12.543   1.342  0.1516  0.2351  0.0465
22420W        W38554  14.961   6.649   3.849 -0.2241 -0.1405  0.0895
22421W        W38555  12.184   9.649  11.786  0.4637 -0.0876 -0.2365
22422W        W38556  15.324  13.317   4.469  0.0721 -0.0580  0.1363
22423W        W38557   4.109   8.279  14.621  0.3132  0.0227 -0.0314
22424W        W38558   4.172   8.617   1.227  0.1112 -0.0377  0.1446
22425W        W38559   0.817  13.858   0.347 -0.1571  0.3832  0.0651
22426W        W38560  15.875  11.309   0.746 -0.1342  0.2535  0.4052
22427W        W38561  12.597   0.468  13.407 -0.1083  0.1103  0.0913
22428W        W38562   2.564   7.847  11.826  0.1272 -0.4124 -0.1146
22429W        W38563   8.246   7.431  11.901  0.0535  0.0296 -0.4760
22430W        W38564   0.879  13.320   1.253  0.0934  0.2275  0.0498
22431W        W38565   5.075   8.940   2.582 -0.0848 -0.1817  0.1945
22432W        W38566  11.861   1.319   2.399  0.1754  0.0219  0.1919
22433W        W38567   6.435   8.200  15.002 -0.0969  0.0563  0.0305
22434W        W38568   0.774   7.388  12.075 -0.2492  0.2342  0.0616
22435W        W38569  14.084   4.007  11.061 -0.0822 -0.0736 -0.0200
22436W        W38570   2.865   9.530   2.503  0.2100  0.2919  0.1444
22437W        W38571  10.103  15.141   1.627  0.1120 -0.0937  0.1109
22438W        W38572   2.225   1.783  15.188  0.0221 -0.1064 -0.1095
22439W        W38573   8.038   2.584   3.034 -0.0225 -0.0503 -0.1381
22440W        W38574   3.396   8.309   2.570  0.1419 -0.1584 -0.0564
22441W        W38575  14.718   6.407   9.998 -0.1686  0.2508  0.0704
22442W        W38576  16.725  18.002   4.353  0.0284  0.2365 -0.2374
22443W        W38577  12.492  12.142  12.704  0.1331 -0.0212  0.0194
22444W        W38578   5.124   7.285   0.960  0.1304 -0.4135  0.0991
22445W        W38579   3.224  13.839   2.054  0.2037  0.0156 -0.2065
22446W        W38580   4.153  16.565   2.243 -0.1817  0.1149 -0.2047
22447W        W38581   0.892  17.509   4.637  0.0279 -0.4269 -0.1143
22448W        W38582   3.752  11.774  13.849  0.1118 -0.2945  0.2083
22449W        W38583   3.256   5.608  11.995 -0.0714 -0.3697 -0.0384
22450W        W38584   6.955  12.893   0.067  0.1054 -0.2169 -0.3151
22451W        W38585  12.645  18.127   1.685 -0.4125 -0.0148  0.1942
22452W        W38586   7.817   7.531  13.814  0.0396  0.1150  0.0635
22453W        W38587  15.245  11.635   2.911 -0.1951  0.1611  0.1350
22454W        W38588   3.109  16.456   2.784  0.1792 -0.5609 -0.1889
22455W        W38589   1.435   1.893   1.061  0.2722  0.0668  0.1216
22456W        W38590  15.133   9.409  16.103 -0.2811 -0.3878  0.0558
22457W        W38591  16.075   9.542  12.265 -0.0053 -0.3110  0.0548
22458W        W38592   0.174   1.570  14.705  0.1936  0.1288  0.1440
22459W        W38593  15.589  16.726  13.329  0.0275 -0.4497 -0.0626
22460W        W38594   3.199   6.825  12.251 -0.0942  0.2328  0.1430
22461W        W38595   0.141  15.499  15.944 -0.3757 -0.3269  0.3416
22462W        W38596  15.512   9.920  14.671  0.0819  0.2398  0.1501
22463W        W38597   8.296   2.760  11.587 -0.1343 -0.1800  0.0514
22464W        W38598  10.082   5.216  12.266  0.0534  0.0198  0.1195
22465W        W38599  16.246  11.697  13.362 -0.2325  0.2578 -0.4540
22466W        W38600   7.835   1.515   1.746  0.1303 -0.0803 -0.0571
22467W        W38601   2.883   4.502   4.847 -0.0370  0.1228  0.1600
22468W        W38602   7.385   6.243   2.429  0.1294  0.0533 -0.0315
22469W        W38603  13.156   6.843  12.732  0.0342  0.0852 -0.1017
22470W        W38604  10.317  17.250  15.049 -0.1030 -0.1508 -0.0520
22471W        W38605   3.509  13.406   2.499 -0.1405  0.3643  0.0293
22472W        W38606   8.782  13.913   1.447  0.3275 -0.0447 -0.2539
22473W        W38607  18.157   9.516   2.509 -0.2353  0.0538  0.0549
22474W        W38608   1.875  14.329   3.588  0.1844 -0.1283  0.0265
22475W        W38609  16.105   6.557   4.337  0.3837 -0.0911  0.2016
22476W        W38610   5.851   8.073   1.598 -0.0227 -0.0296 -0.5226
22477W        W38611   1.790   9.384  12.461  0.4376 -0.0906 -0.2736
22478W        W38612  15.267  11.544   3.423  0.0385 -0.0975 -0.3040
22479W        W38613  16.997   3.877   5.239 -0.3628 -0.1727 -0.0787
22480W        W38614   3.692   7.132   5.407 -0.0806 -0.0900  0.1063
22481W        W38615   9.954   3.128   1.830  0.1640  0.1228  0.2562
22482W        W38616   6.637  16.937  13.412  0.1817  0.3131 -0.0536
22483W        W38617  13.663  17.969  11.167 -0.3017 -0.2858  0.1304
22484W        W38618  15.234  13.239   2.040 -0.2402  0.1331  0.1098
22485W        W38619  16.883  11.274   2.475 -0.0466 -0.2427  0.1011
22486W        W38620   1.736  13.376   1.767  0.3206 -0.0276 -0.0906
22487W        W38621   6.740  10.347  11.088  0.1526  0.1882  0.0475
22488W        W38622  11.423  12.747   3.849 -0.1796 -0.0958 -0.0614
22489W        W38623   5.732  10.802  11.542  0.3152  0.2611  0.1407
22490W        W38624   0.385   8.434   1.225  0.3396 -0.1137  0.0921
22491W        W38625  14.979  13.353  13.100 -0.0171  0.1335 -0.2940
22492W        W38626   6.346  15.675   3.610 -0.2104 -0.1300 -0.0328
22493W        W38627   3.134   9.643   4.412  0.0444 -0.2997  0.0366
22494W        W38628   4.842   8.204  15.275 -0.0401  0.3181  0.0367
22495W        W38629  16.611   7.385   4.413  0.0623 -0.3248  0.2794
22496W        W38630   7.903  12.280  12.304 -0.1490 -0.0051  0.1133
22497W        W38631   9.461   8.601   4.737  0.1192  0.1477  0.3185
22498W        W38632   6.351  14.001   1.733 -0.2127  0.1447  0.1433
22499W        W38633  16.392   5.310   0.965 -0.1080  0.1011 -0.2101
22500W        W38634   3.131   0.073   3.222  0.0399 -0.0008 -0.1370
22501W        W38635  12.924   2.508  13.211 -0.1308 -0.0696 -0.1551
22502W        W38636   4.453   2.700   2.128 -0.1208  0.2587 -0.1099
22503W        W38637  11.042   5.806  15.955  0.0459 -0.1281  0.3011
22504W        W38638   3.625  14.571   1.029  0.0640 -0.0519  0.2531
22505W        W38639  14.507   0.440   4.593 -0.0881 -0.0761 -0.2719
22506W        W38640   1.523   9.429   0.628  0.2165 -0.2937  0.0252
22507W        W38641   1.287  14.540   3.807  0.0523  0.1214 -0.1756
22508W        W38642  14.732  16.521   3.962 -0.1955 -0.0386 -0.2455
22509W        W38643   1.846   7.010  15.200  0.2427  0.2857 -0.1461
22510W        W38644   2.563  14.180  15.274  0.0453 -0.5097  0.0225
22511W        W38645   1.439  13.087  11.060  0.0950 -0.1603 -0.1856
22512W        W38646   5.054  12.899   2.648 -0.0752 -0.3155 -0.2775
22513W        W38647   9.174  14.051  12.868 -0.0630 -0.0461 -0.0738
22514W        W38648   4.384  16.578   4.897 -0.2197  0.3373 -0.1880
22515W        W38649   3.311   4.331  14.354  0.3817 -0.5397  0.0197
22516W        W38650  18.116  15.744  12.532 -0.2154  0.1372 -0.1135
22517W        W38651  14.785  16.980   4.852  0.1089  0.0286  0.4464
22518W        W38652  14.724   9.452  15.732  0.2302  0.2965 -0.2292
22519W        W38653  11.695  18.131   2.528  0.1771  0.1689  0.1630
22520W        W38654  16.454   5.902  15.158  0.0293  0.0188 -0.2977
22521W        W38655  14.161   8.372  12.750 -0.0329  0.0304  0.0840
22522W        W38656   6.786   8.038   9.361  0.0670 -0.2479 -0.3182
22523W        W38657   5.759   9.630  15.850 -0.0532 -0.2400  0.2807
22524W        W38658  13.949  14.133  12.177 -0.0616  0.0519  0.0777
22525W        W38659   4.024   0.092   3.791  0.2375  0.3254  0.1497
22526W        W38660  11.705   5.649   1.412  0.4376 -0.2232  0.0269
22527W        W38661  18.076   2.134  13.300 -0.2673  0.1477 -0.2553
22528W        W38662  12.459   6.036   2.522 -0.1330 -0.1166 -0.3038
22529W        W38663  10.988   8.298  10.437  0.3548 -0.1007 -0.1440
22530W        W38664  10.400  14.525   3.597  0.1082  0.3378 -0.1608
22531W        W38665   1.266   7.263  11.897  0.2281 -0.1404 -0.2540
22532W        W38666   2.229   9.871   1.158  0.0395 -0.0286  0.0963
22533W        W38667   1.620  12.882  12.929  0.1488 -0.1524  0.1142
22534W        W38668  17.689   7.672  10.821  0.0364 -0.3227  0.1375
22535W        W38669  17.122  15.305   0.291  0.5358  0.2024  0.0484
22536W        W38670   2.542   0.906  16.148 -0.4517  0.0439 -0.0941
22537W        W38671   2.483   2.051   2.075  0.1482 -0.4427 -0.3369
22538W        W38672  12.530   0.447   3.958  0.0269 -0.0151  0.0644
22539W        W38673   4.022  14.870   0.963 -0.2497  0.0859  0.1047
22540W        W38674   4.231   1.756   2.245 -0.0646  0.0527  0.2916
22541W        W38675  15.951   5.566  15.294 -0.1058 -0.2706 -0.1046
22542W        W38676  15.022   1.098  12.578 -0.0430 -0.1095 -0.1633
22543W        W38677   9.690   9.176  16.033  0.2334  0.2128  0.2145
22544W        W38678   7.337   5.604   3.182 -0.0962  0.1977  0.1240
22545W        W38679   3.425  13.360  13.845  0.0986  0.1210  0.2132
22546W        W38680   7.601  10.312   1.869 -0.3005  0.1560  0.1328
22547W        W38681   0.654  15.135  15.789 -0.1103 -0.3246 -0.1759
22548W        W38682   9.701   6.929   2.427  0.0605  0.1842  0.0858
22549W        W38683   7.863   8.149   1.696  0.1032 -0.1031 -0.1054
22550W        W38684   4.209  11.929  15.903 -0.0095  0.0444 -0.3239
22551W        W38685   3.617  15.171   1.372  0.0693 -0.2122  0.1096
22552W        W38686  14.273   2.936   4.044  0.1894  0.2529 -0.1234
22553W        W38687  14.398   5.029   4.452 -0.1482  0.0177 -0.0576
22554W        W38688   7.111   7.408  15.497 -0.1815 -0.2918 -0.0318
22555W        W38689   6.812  10.887   2.076 -0.0892  0.0820 -0.0702
22556W        W38690  14.117   8.887   3.661 -0.0591  0.0598 -0.4614
22557W        W38691  12.547  14.143  10.608 -0.0375  0.0080 -0.0140
22558W        W38692  14.540   3.906   2.210  0.0671  0.0626 -0.0165
22559W        W38693  12.367   5.647   5.278  0.1860 -0.0588  0.0951
22560W        W38694   5.650  17.829   0.804 -0.0460  0.0233  0.1533
22561W        W38695  16.122   8.843  10.789  0.1241 -0.0089 -0.0557
22562W        W38696   9.460   1.373  11.768  0.0323 -0.0654  0.1781
22563W        W38697   0.846  11.318   1.742  0.1832  0.4556 -0.0133
22564W        W38698   9.828  11.078   1.847  0.0975  0.0357 -0.1736
22565W        W38699   8.609   6.287   1.824  0.0271 -0.2661 -0.3076
22566W        W38700  17.677   6.484   5.484 -0.2663 -0.1208 -0.0991
22567W        W38701   0.205  14.273   1.929  0.0082  0.0692  0.0470
22568W        W38702   9.779   9.313   2.156  0.1770  0.0156  0.0469
22569W        W38703   4.682   0.759  12.428 -0.0735 -0.1892 -0.0327
22570W        W38704  17.626   5.787   1.253  0.1431 -0.1706 -0.1035
22571W        W38705   4.304   1.049  12.640  0.2027  0.0969 -0.1037
22572W        W38706   9.290   6.576  12.803 -0.1639  0.0227  0.0636
22573W        W38707   7.362   5.798  11.831 -0.3185  0.1915 -0.1846
22574W        W38708   2.984  15.328  13.352  0.0630 -0.1836 -0.2604
22575W        W38709   4.346  16.358   3.457 -0.1703  0.0083 -0.2841
22576W        W38710   9.859  10.829  12.369 -0.0405 -0.1315  0.0545
22577W        W38711  11.483   6.486   0.122 -0.2782  0.0813  0.0261
22578W        W38712  10.352   7.999   3.310 -0.1471 -0.2162  0.1182
22579W        W38713  17.953   9.399   3.465 -0.1260 -0.3371 -0.0476
22580W        W38714  14.920   3.465   5.560 -0.0765  0.1510  0.0403
22581W        W38715   1.382   4.077  16.325 -0.0546  0.2128 -0.0528
22582W        W38716  11.373  13.323  15.010 -0.2872 -0.1101 -0.0431
22583W        W38717   0.640   4.515  14.390  0.0416  0.1180 -0.1623
22584W        W38718   3.462  10.777  13.826  0.0258  0.1082 -0.3485
22585W        W38719   9.613  16.240  14.966 -0.5584 -0.0611 -0.5311
22586W        W38720   1.207   1.467  14.482 -0.0328  0.1158 -0.1244
22587W        W38721   8.975   1.056   3.971 -0.0623 -0.0945  0.0056
22588W        W38722  14.380   0.195   5.052  0.1687 -0.1475 -0.2441
22589W        W38723   8.355   9.965   3.141  0.0824  0.2240  0.0592
22590W        W38724  13.016   7.801   3.332  0.0720  0.0837  0.3407
22591W        W38725  12.470  12.158   3.394  0.0227  0.0246  0.1251
22592W        W38726  14.890   2.497   5.312  0.0461 -0.1352 -0.1777
22593W        W38727   8.938  16.534  15.901  0.0025  0.2817  0.1018
22594W        W38728   4.014  13.829   1.047 -0.2530  0.1385 -0.2578
22595W        W38729   0.715   9.540   3.275 -0.1213 -0.1534 -0.1448
22596W        W38730  10.454   6.419   1.385 -0.2372 -0.2323 -0.1295
22597W        W38731   7.609  17.174  13.838 -0.0002  0.2382 -0.0345
22598W        W38732   8.500  17.091   0.980  0.1315  0.4484 -0.5415
22599W        W38733  15.770  12.524  13.344  0.1267 -0.1446 -0.1600
22600W        W38734  16.905   8.934   0.292 -0.0119 -0.1932  0.0263
22601W        W38735  17.951  16.602  14.993  0.0642 -0.1653 -0.2187
22602W        W38736  12.711  12.598  12.734  0.1477  0.0682  0.2134
22603W        W38737  11.948   1.142   4.292  0.0991 -0.0597 -0.1848
22604W        W38738   1.025  15.325   0.164  0.0060  0.1591  0.1551
22605W        W38739  10.189   3.404  14.265  0.1227  0.0170 -0.0639
22606W        W38740  11.658   8.633   4.358  0.1788  0.2960 -0.3763
22607W        W38741  17.183   2.379  14.926 -0.1172  0.0256 -0.2694
22608W        W38742   4.411  14.599   2.448  0.0176  0.0647 -0.3081
22609W        W38743   9.873  17.878   0.607 -0.0585 -0.2399 -0.0049
22610W        W38744  11.336  17.594  12.726 -0.0121 -0.2323  0.2701
22611W        W38745  13.374   9.820  15.231  0.1239 -0.0260  0.2386
22612W        W38746  11.727  11.888   1.720  0.1061 -0.4103 -0.2345
22613W        W38747  17.366  11.911  15.932 -0.1759  0.1219 -0.0771
22614W        W38748  14.379   6.447   0.157 -0.1232 -0.1511 -0.0151
22615W        W38749   9.519   5.372   5.248 -0.0498 -0.0303  0.2328
22616W        W38750   1.685  11.548   3.228  0.2428  0.0603  0.0902
22617W        W38751   6.845   1.766   2.659  0.0121 -0.4000 -0.0293
22618W        W38752   8.759  15.713  12.706 -0.3525  0.0682 -0.1967
22619W        W38753   0.903  14.561   4.834  0.1881  0.1292 -0.0661
22620W        W38754  13.687   3.977   2.236  0.0685  0.1047 -0.0011
22621W        W38755  11.672  15.532  11.878  0.1741  0.1777  0.2890
22622W        W38756   1.222  11.188  12.175 -0.1172  0.0738 -0.0346
22623W        W38757   3.382  13.626  12.925  0.1482 -0.1846 -0.1008
22624W        W38758   0.432  11.240   0.391  0.1191 -0.0064 -0.0597
22625W        W38759   5.779  16.091  15.971 -0.2155  0.1157  0.4408
22626W        W38760   4.030  13.536   1.833 -0.1644  0.2372  0.0294
22627W        W38761   8.723   7.453  13.689  0.0877  0.2270 -0.1999
22628W        W38762  17.750  10.011  12.404  0.2432 -0.0674  0.0044
22629W        W38763  14.870  12.904   1.699 -0.0686  0.1078 -0.0458
22630W        W38764   9.674  14.590   3.843  0.1301 -0.1678  0.6032
22631W        W38765  14.799   7.496   3.453  0.3639  0.0338 -0.0481
22632W        W38766   7.177  13.796   3.987  0.2617  0.2459 -0.1463
22633W        W38767  10.471   5.055   3.190  0.0799 -0.1441 -0.2646
22634W        W38768  15.252  12.509  15.922  0.5063  0.4013  0.0655
22635W        W38769  11.710   5.239  16.313 -0.0172 -0.0637  0.2809
22636W        W38770   4.516  13.535   4.237  0.1310  0.0878 -0.0850
22637W        W38771   5.320   2.664   3.796  0.1786  0.1473 -0.3694
22638W        W38772  12.169   3.118   4.417 -0.0018  0.2888  0.2336
22639W        W38773  11.061  11.576   2.281 -0.2493  0.1042  0.2887
22640W        W38774   9.003  12.407   0.639  0.0539  0.1071 -0.1332
22641W        W38775  13.951  10.493  12.348 -0.1459 -0.1323 -0.0814
22642W        W38776   5.966   3.326  10.907  0.0177  0.2934 -0.0442
22643W        W38777  14.231   6.272   2.604 -0.0095  0.0677 -0.0603
22644W        W38778   4.053  15.100  14.465  0.0521 -0.2104  0.1473
22645W        W38779   0.868   0.889   3.820  0.1730  0.0840 -0.0826
22646W        W38780  15.906  14.354   2.485 -0.1543 -0.3816  0.0059
22647W        W38781   8.639   1.604   0.766  0.2347 -0.3160 -0.0774
22648W        W38782   5.167   1.437  12.767 -0.1340  0.0322  0.1253
22649W        W38783   9.545  11.084  12.049  0.1874 -0.0731 -0.0272
22650W        W38784  13.935  14.382   2.409  0.1098 -0.1674  0.2243
22651W        W38785  11.871  16.695  12.724  0.2717  0.1999  0.3041
22652W        W38786  12.749  14.305  12.595  0.2248 -0.0036 -0.1951
22653W        W38787   7.347   4.548   6.262  0.0452 -0.0366 -0.2467
22654W        W38788   6.703  13.455   3.069  0.1738 -0.0453  0.1806
22655W        W38789   1.595   4.007  13.211  0.1947 -0.1670  0.0128
22656W        W38790   9.957   7.036  10.883 -0.0422 -0.0267  0.0202
22657W        W38791  17.017   9.589   1.320 -0.1405  0.1646  0.1986
22658W        W38792  11.623   3.002   6.080 -0.3572  0.0217 -0.0232
22659W        W38793  14.309  15.832   1.387 -0.0970 -0.2676 -0.2011
22660W        W38794   5.910   9.990   3.644 -0.1694 -0.1512  0.0086
22661W        W38795   8.943  14.725  15.512  0.1079  0.0086  0.1959
22662W        W38796   0.510  14.234  11.783  0.0990  0.1087  0.1199
22663W        W38797  13.136  14.986   5.530  0.1468 -0.1486 -0.1469
22664W        W38798  13.531  17.568  15.550  0.0325  0.0477 -0.0886
22665W        W38799   1.899   6.459  14.921  0.2695  0.2456  0.2555
22666W        W38800  16.288   1.975   6.012  0.0944 -0.1294 -0.0734
22667W        W38801  11.516   0.393   2.444 -0.4583  0.2413  0.0471
22668W        W38802   5.470   3.159   0.216  0.2286  0.0976  0.2213
22669W        W38803  10.078  11.089  12.039 -0.1618 -0.0660  0.0488
22670W        W38804  15.779  15.681   0.124 -0.1908  0.0564  0.0404
22671W        W38805   0.627  12.817   1.184 -0.1202  0.0211  0.3211
22672W        W38806  12.606   6.541   1.220  0.4705 -0.0440 -0.0831
22673W        W38807  13.584   2.514   6.495 -0.0630  0.3496 -0.1916
22674W        W38808   8.693  12.160  15.676 -0.0913 -0.3392 -0.1945
22675W        W38809  16.076  10.412   4.654 -0.1590  0.0040  0.3534
22676W        W38810  12.817  17.905  14.749 -0.0191  0.0377 -0.1977
22677W        W38811  13.573  14.092  13.005 -0.0238 -0.2728 -0.2371
22678W        W38812  13.163  17.104  12.650  0.4230  0.1167 -0.1473
22679W        W38813  15.686  11.468   5.402 -0.0684 -0.1028  0.0600
22680W        W38814  12.104   1.094   3.317 -0.0100 -0.1810  0.0344
22681W        W38815   7.792   8.582   2.342 -0.1171 -0.4411  0.1289
22682W        W38816   5.732  17.794   3.592 -0.0214  0.0707  0.1982
22683W        W38817   2.795   0.365   1.914  0.0578 -0.0784 -0.1628
22684W        W38818   3.892  16.890  13.120  0.1224 -0.1609 -0.1711
22685W        W38819   2.217   8.355  11.061  0.3106  0.1038 -0.2337
22686W        W38820   7.573  13.634  13.777  0.3108  0.0586  0.1922
22687W        W38821  16.587   1.491  14.298  0.0517  0.2474 -0.0049
22688W        W38822   6.253  16.959  16.393 -0.2089  0.0412  0.0086
22689W        W38823  13.751  12.321   0.018 -0.1571  0.0071  0.1023
22690W        W38824  12.371   5.659   2.145 -0.1359 -0.0326 -0.0571
22691W        W38825   6.830   4.756  15.163 -0.2254  0.0173 -0.1260
22692W        W38826  14.577  12.384  12.541  0.0403  0.1035  0.0737
22693W        W38827   1.064   9.274   0.728 -0.2033  0.1965 -0.0570
22694W        W38828  12.250   0.450  14.065  0.1248 -0.1953 -0.0372
22695W        W38829  16.296  14.682   2.817  0.0220  0.0847  0.0229
22696W        W38830   6.015   1.494   3.078  0.1748 -0.2594  0.3131
22697W        W38831  16.027   6.078   0.353  0.3012 -0.0239 -0.1295
22698W        W38832  14.349  13.090  13.866 -0.1439 -0.0501  0.0271
22699W        W38833  17.533   3.209   6.168  0.1581 -0.0530 -0.3822
22700W        W38834  13.036   6.861   1.943  0.1004 -0.0492 -0.0069
22701W        W38835  14.754   8.788  11.207  0.3219 -0.0655  0.0683
22702W        W38836   5.895  15.383  15.871 -0.1767  0.1086  0.2139
22703W        W38837   4.243  17.619  16.124  0.0183 -0.1598  0.3573
22704W        W38838   4.401   9.503   2.691  0.0932 -0.0740  0.1875
22705W        W38839   4.401   7.433   2.717 -0.1129 -0.0067  0.0564
22706W        W38840   9.658   3.364  15.040 -0.2562 -0.6352  0.0432
22707W        W38841  18.014   8.256  14.171  0.2289  0.2256 -0.3040
22708W        W38842  14.699   1.787   4.659 -0.1991  0.2032 -0.0236
22709W        W38843   6.979   1.725   2.152  0.0289  0.0240 -0.1218
22710W        W38844   6.768   8.093   3.767 -0.0295  0.0975 -0.2015
22711W        W38845  15.718   0.801  11.474 -0.2703 -0.0628  0.3111
22712W        W38846   9.243  11.447   3.873  0.0779 -0.0153 -0.0856
22713W        W38847  12.255   3.225  13.010 -0.0928 -0.1837  0.0161
22714W        W38848  12.017   1.480  12.557 -0.0512  0.2170 -0.0310
22715W        W38849   4.616  11.590  15.914 -0.0820  0.0203 -0.0493
22716W        W38850   2.705  11.616   2.710  0.1081 -0.1473  0.1491
22717W        W38851   3.163   4.560   2.092 -0.2018 -0.0364  0.3227
22718W        W38852  10.234   9.080  12.896 -0.0392  0.0846 -0.1058
22719W        W38853   0.348  10.007   4.161 -0.0656 -0.2132  0.0527
22720W        W38854  14.087   9.876  11.007 -0.3449  0.1570 -0.1623
22721W        W38855   9.058   9.211  10.385 -0.1804 -0.0968  0.1494
22722W        W38856  12.684   4.379  15.895  0.4731  0.1130 -0.2553
22723W        W38857  10.037  16.060   4.526 -0.1304  0.0405 -0.1974
22724W        W38858  12.020   9.018   2.007  0.0213 -0.2024 -0.2251
22725W        W38859  15.846  14.799   5.262  0.2711 -0.1490  0.0394
22726W        W38860  14.868   8.611   1.957 -0.2650  0.1880 -0.0886
22727W        W38861   3.640   5.423  16.115 -0.2767 -0.0241 -0.1200
22728W        W38862  15.855  15.096   4.364  0.0084 -0.1638  0.3008
22729W        W38863  10.242  12.826   4.750  0.0020  0.3309  0.1370
22730W        W38864   6.868  10.029  16.095  0.3470  0.1003  0.3538
22731W        W38865   0.973   6.226   4.867 -0.2407 -0.2150 -0.1566
22732W        W38866   7.437   9.580   1.443 -0.3688 -0.0279  0.1392
22733W        W38867   4.636  11.659  16.441 -0.2798 -0.1838 -0.2084
22734W        W38868   7.719   4.224   0.824  0.1433  0.0292 -0.1619
22735W        W38869  14.097  16.252  12.046 -0.0348 -0.2850  0.0087
22736W        W38870  11.216  13.456   4.337  0.0087  0.1365 -0.1493
22737W        W38871   7.704  16.242   1.205 -0.0817  0.0095 -0.3090
22738W        W38872   5.183  15.438   5.603  0.1637  0.0641 -0.1590
22739W        W38873   0.629   3.260   3.997  0.2514 -0.2162 -0.1845
22740W        W38874  15.838  15.344   2.545 -0.3666  0.0340  0.3059
22741W        W38875   5.631   5.101   1.374 -0.0921  0.1969  0.0515
22742W        W38876  11.613   2.774   1.594  0.0970  0.2931  0.2756
22743W        W38877  13.150   0.226  14.969 -0.0983  0.2358 -0.4755
22744W        W38878   0.017  10.336   1.557  0.2286 -0.0661  0.3346
22745W        W38879  18.080   8.949  11.482 -0.2008 -0.1772 -0.1856
22746W        W38880   5.953   1.018  15.245 -0.2271 -0.1244  0.2009
22747W        W38881  17.715   7.871   1.333 -0.3513 -0.1329  0.1785
22748W        W38882  15.562   1.324   5.004  0.2814 -0.1244 -0.0359
22749W        W38883  18.088  14.072  14.372 -0.0233 -0.0327  0.1112
22750W        W38884  15.808   1.756   3.113  0.0748 -0.0572  0.0906
22751W        W38885  14.630  12.479  14.827  0.3723 -0.3939 -0.0913
22752W        W38886  10.521  17.720   1.305  0.1415 -0.1246  0.1634
22753W        W38887   2.119   8.872   4.257 -0.0371 -0.2454  0.1457
22754W        W38888  11.007   0.850   4.087 -0.0958 -0.1051 -0.0362
22755W        W38889   2.899   7.353  12.891 -0.0902 -0.4178 -0.2702
22756W        W38890   8.081   7.223  16.410 -0.3030  0.1562  0.0516
22757W        W38891   3.335  12.767   3.961 -0.0144 -0.2049 -0.1240
22758W        W38892  13.761  13.676   5.669  0.0421 -0.0427  0.2445
22759W        W38893   5.122   4.114  12.693  0.0431 -0.0953 -0.2425
22760W        W38894   5.991  10.318   4.103  0.3295 -0.3604 -0.1093
22761W        W38895  17.021  11.590  15.191  0.1195  0.1504  0.1659
22762W        W38896  10.346  17.072  11.829 -0.1387 -0.1012 -0.1377
22763W        W38897   6.131  16.356  15.286 -0.0720  0.0008 -0.0696
22764W        W38898  12.497   9.972  14.721  0.2982 -0.0647 -0.2413
22765W        W38899   4.575   9.100   3.883  0.2218 -0.0832 -0.2233
22766W        W38900   2.527  11.916  13.101 -0.0900 -0.1211 -0.1145
22767W        W38901  13.184   0.471  12.358  0.3538 -0.1938 -0.1555
22768W        W38902  12.125  15.072   3.266  0.0992  0.2944 -0.2260
22769W        W38903   9.408   5.461   4.261 -0.1761 -0.0545  0.1578
22770W        W38904  12.360  14.127  13.463 -0.1663 -0.1323 -0.0492
22771W        W38905  17.707   1.172  13.351 -0.1385  0.0002  0.1223
22772W        W38906   3.333   1.841   4.922 -0.2578 -0.2530 -0.0925
22773W        W38907  10.371   0.422   1.925  0.3074  0.0754  0.1411
22774W        W38908   2.267  10.471  11.423  0.2406 -0.1426 -0.1177
22775W        W38909  10.053   4.563  13.781 -0.0132 -0.2292 -0.0758
22776W        W38910  14.071  13.340   1.545  0.1052 -0.1050 -0.0431
22777W        W38911   4.467  16.161   4.609  0.1626 -0.0798  0.3530
22778W        W38912  14.465   5.707  13.639 -0.0204 -0.1001  0.1324
22779W        W38913  17.770   1.536   4.190 -0.0509  0.2486  0.0998
22780W        W38914  16.216   5.781   4.207 -0.0850  0.2776  0.1047
22781W        W38915  11.717  11.043   2.047 -0.1196  0.0430 -0.0966
22782W        W38916  10.251   1.600   3.235 -0.0998 -0.0543 -0.2818
22783W        W38917  16.082  15.908  14.893 -0.2192  0.0668 -0.1182
22784W        W38918   4.205   5.029  14.575  0.0512 -0.0642  0.2521
22785W        W38919  14.209  10.503   1.292 -0.1201 -0.0646  0.2847
22786W        W38920  14.748   9.018   2.325  0.2804  0.2984  0.0565
22787W        W38921  16.394  11.361  12.786  0.2065 -0.0031 -0.0527
22788W        W38922  17.428  11.896  10.777 -0.1998  0.0699 -0.1183
22789W        W38923  12.764  17.486   1.076  0.0603  0.1155 -0.1443
22790W        W38924   3.104   9.190  13.739  0.0966 -0.1988 -0.1355
22791W        W38925   4.148   0.042  12.624  0.1623  0.1989  0.1656
22792W        W38926  14.568   7.395  13.899 -0.1792 -0.0168 -0.1208
22793W        W38927  15.130   4.411   4.413 -0.0401 -0.1628 -0.1384
22794W        W38928  11.616   7.788  13.502  0.2811 -0.3968 -0.2874
22795W        W38929  14.345  18.163  16.195  0.0998 -0.3533 -0.2237
22796W        W38930  10.217   3.497   2.025 -0.3340  0.0396 -0.1953
22797W        W38931  16.942   5.565   4.015  0.0967 -0.3415  0.4128
22798W        W38932  14.661   5.735  11.633 -0.0283 -0.1037  0.1835
22799W        W38933  10.422   7.245  16.218 -0.1033  0.2718 -0.1774
22800W        W38934   8.867   6.039  14.584  0.0440  0.2257  0.2203
22801W        W38935   4.983   0.758   5.921 -0.0956 -0.1848 -0.1428
22802W        W38936   4.690  13.315  12.942  0.1606  0.0344 -0.1662
22803W        W38937  13.501  17.782  13.310 -0.0629  0.0247 -0.2210
22804W        W38938  16.681   3.093  13.885  0.1989 -0.0539  0.2557
22805W        W38939   4.134   9.197  12.646 -0.0925  0.0951 -0.0577
22806W        W38940   8.853   9.009  14.927  0.1795 -0.0494  0.0141
22807W        W38941  10.398   4.272   3.541 -0.0387 -0.1409  0.2269
22808W        W38942  10.596   9.958  11.119  0.1320 -0.4649  0.0135
22809W        W38943   8.963   1.888  14.212  0.1290 -0.1086  0.2680
22810W        W38944   4.183  17.556  12.447 -0.0294  0.1403 -0.1378
22811W        W38945   9.353  13.068   1.024  0.0584  0.1582 -0.0444
22812W        W38946   7.892  16.377   4.296  0.3019 -0.0447 -0.2825
22813W        W38947  17.473  12.904   4.411 -0.1250  0.2419 -0.0192
22814W        W38948   7.235   1.767   3.865 -0.0221  0.3226  0.0388
22815W        W38949   8.958  16.496   6.050  0.0674 -0.2316  0.2519
22816W        W38950   7.881  15.420  15.597 -0.1640  0.0785 -0.0669
22817W        W38951   0.831   8.036   2.270  0.2226  0.2197  0.1655
22818W        W38952  13.549   5.111   4.294  0.1383 -0.1123 -0.2115
22819W        W38953  13.290  10.878  13.281  0.2511  0.1723  0.0392
22820W        W38954   5.463   4.994   4.321 -0.1350 -0.0225 -0.0246
22821W        W38955   1.610  13.147   3.910 -0.0980 -0.1056 -0.0349
22822W        W38956   8.082   5.551   2.219  0.2471  0.1662 -0.3251
22823W        W38957  13.082   6.090  12.560  0.1819 -0.0864 -0.0551
22824W        W38958   6.304  12.428  11.275  0.3737  0.1213  0.0267
22825W        W38959   2.467  12.635   5.450 -0.3407  0.3567  0.2914
22826W        W38960   5.748   4.856   2.713 -0.0766  0.2681  0.0300
22827W        W38961  11.361  15.768   1.405  0.2779  0.0566  0.0387
22828W        W38962   0.507   2.364   4.732  0.1494 -0.0116 -0.0309
22829W        W38963   8.177   3.554  15.975 -0.0919 -0.1718  0.1086
22830W        W38964   6.585   8.659  11.060 -0.4435 -0.1354  0.1232
22831W        W38965  11.582   1.216  14.557  0.0369  0.1201 -0.1179
22832W        W38966   0.344  10.430  16.129 -0.0785 -0.1174  0.1197
22833W        W38967   3.751  11.441  13.013 -0.1247  0.0331  0.1857
22834W        W38968  11.523   5.646  12.517 -0.0209 -0.0633 -0.0582
22835W        W38969  17.682   9.703  15.066  0.1669  0.0130  0.0812
22836W        W38970   4.535  12.663  15.562  0.0056  0.2057 -0.0944
22837W        W38971  12.752  14.147  15.565 -0.0580 -0.2503  0.1237
22838W        W38972   3.893  17.707  13.655  0.1235  0.0364  0.0029
22839W        W38973   0.541  15.308   0.919 -0.1333 -0.1350  0.2651
22840W        W38974  16.959   9.246   1.712  0.0058  0.2457 -0.1789
22841W        W38975  12.143   7.619  13.665  0.0712 -0.3881 -0.2866
22842W        W38976  16.573   5.621  16.105 -0.0984 -0.3222 -0.0850
22843W        W38977  16.981   6.329  12.031  0.0793  0.0853 -0.3818
22844W        W38978   1.862   2.149  14.836 -0.0626  0.0522 -0.4928
22845W        W38979  13.854  15.679  15.847 -0.0109  0.3886 -0.0045
22846W        W38980   8.988  15.445   2.011  0.0272 -0.3440  0.2392
22847W        W38981   1.942  16.318   4.345  0.4517  0.1270  0.0198
22848W        W38982   3.607  17.360  13.970 -0.0393 -0.0905 -0.2235
22849W        W38983   5.946  13.324   1.672  0.2462  0.1238 -0.2804
22850W        W38984   5.163  17.698  11.753 -0.1557 -0.1780  0.4134
22851W        W38985   0.822   8.599  11.682  0.1602 -0.2141 -0.2424
22852W        W38986  15.922  11.298   4.422 -0.2001  0.1531 -0.2941
22853W        W38987   2.097   5.680  14.474  0.2280 -0.3049  0.1114
22854W        W38988   4.927   8.549  10.613 -0.1025  0.2018  0.3481
22855W        W38989   6.428  12.964  11.143 -0.0220 -0.0916  0.0722
22856W        W38990  10.171  10.299   0.126  0.0473  0.0387  0.1752
22857W        W38991  16.549   4.578   3.093 -0.5958  0.4655 -0.0132
22858W        W38992  15.836   6.252   2.429  0.3257  0.0207 -0.2294
22859W        W38993   8.734  13.578   3.641  0.3550 -0.1369 -0.2011
22860W        W38994   3.631   8.695   4.881 -0.2484 -0.0692 -0.3252
22861W        W38995   9.238  15.324  11.547  0.3189  0.2974  0.1505
22862W        W38996  11.124  12.363   3.495  0.3918  0.2887  0.0556
22863W        W38997   5.248  16.541   4.399  0.0563 -0.2008 -0.2344
22864W        W38998  17.070   7.342   1.877 -0.0158 -0.2916  0.1728
22865W        W38999  13.385  11.973   0.125  0.0678 -0.0157 -0.1802
22866W        W39000   3.565   2.161   4.628 -0.0328 -0.1418  0.0223
22867W        W39001   3.470   0.521  11.803  0.0770 -0.3076  0.3002
22868W        W39002  11.932   9.503  12.777  0.2454 -0.0732  0.0610
22869W        W39003   9.888  12.635  14.175  0.1524  0.0264 -0.4562
22870W        W39004   6.854   8.801  13.492 -0.1571  0.0979  0.2261
22871W        W39005  16.040  12.524  15.531 -0.0725 -0.3320  0.2519
22872W        W39006  15.861   3.554  14.025 -0.3891 -0.3189  0.1618
22873W        W39007   7.999  17.316  15.018 -0.2823 -0.1065 -0.0710
22874W        W39008   6.891   4.308   3.801  0.0752 -0.0758  0.1173
22875W        W39009  16.605  15.877  16.035  0.1695  0.0912  0.0825
22876W        W39010   0.963  10.953   3.047  0.0719 -0.1965 -0.0472
22877W        W39011   3.841  17.003  12.520 -0.2091  0.1842  0.2320
22878W        W39012  13.313  16.619  12.568 -0.2394 -0.1533 -0.2109
22879W        W39013  12.475  13.736   0.937 -0.1264  0.1683 -0.1762
22880W        W39014  12.198   0.616   4.320 -0.1773 -0.0450 -0.1071
22881W        W39015  15.725  17.296   1.179 -0.1206  0.3565  0.2135
22882W        W39016  13.159   9.778   0.988 -0.2030  0.0378 -0.3300
22883W        W39017  17.873  15.431   2.650 -0.3224  0.2620  0.0387
22884W        W39018   6.443   9.769   1.435  0.2906  0.0232 -0.3319
22885W        W39019   6.304   0.924  16.094 -0.1249  0.1873 -0.0329
22886W        W39020  17.631   7.288  14.771 -0.2541 -0.0072  0.0985
22887W        W39021  13.473   3.925  16.271 -0.1065  0.1020 -0.0423
22888W        W39022  11.137  10.533  16.242  0.3448 -0.0605  0.1179
22889W        W39023  11.090  16.179   2.309 -0.0797  0.4907 -0.0286
22890W        W39024  15.529  14.350   0.506  0.2289 -0.2516 -0.1968
22891W        W39025   6.751   0.336  11.877 -0.0607  0.0767 -0.1627
22892W        W39026   8.768  12.441   1.119  0.3063 -0.0935  0.1131
22893W        W39027   5.262   9.750   2.672  0.5208 -0.1037  0.1360
22894W        W39028  12.349  13.276  15.319  0.0801 -0.4132 -0.1098
22895W        W39029   2.160   0.933   1.252 -0.1186  0.0475  0.1515
22896W        W39030  17.682  17.043   2.111 -0.1578 -0.0003 -0.1266
22897W        W39031   2.964   7.178   1.832 -0.0002  0.1767  0.1069
22898W        W39032  11.941  11.493  13.134 -0.1891 -0.1726 -0.0769
22899W        W39033   3.046  15.641   2.347  0.2797 -0.1691 -0.0409
22900W        W39034   8.720  11.657  14.778 -0.1503 -0.2317 -0.3541
22901W        W39035  17.794  14.577   2.215 -0.0338  0.4555  0.2813
22902W        W39036  12.547   3.930   1.766  0.3017 -0.1754 -0.0689
22903W        W39037   2.495   9.619  14.839 -0.3598 -0.3578  0.4106
22904W        W39038   5.419  16.448   0.715 -0.3942  0.1354 -0.0668
22905W        W39039   1.869   7.432   3.213  0.0566 -0.0339  0.1772
22906W        W39040  15.435  16.798   2.772  0.0816 -0.1151 -0.3041
22907W        W39041  11.470  10.262  11.169 -0.0574 -0.1170 -0.0339
22908W        W39042  15.961   9.541   4.686 -0.0494 -0.0002 -0.0923
22909W        W39043   8.656  14.830   0.208 -0.1224  0.2515  0.1241
22910W        W39044   7.948   7.622   4.650 -0.0071 -0.2375 -0.1356
22911W        W39045   5.911   2.487   3.111 -0.0323 -0.1353  0.0082
22912W        W39046  13.619   4.630  11.510 -0.1890  0.0463  0.0507
22913W        W39047   5.034  12.938  11.532 -0.1647  0.3773  0.5312
22914W        W39048  16.459  11.777   4.926  0.1749 -0.4835  0.1604
22915W        W39049   2.192  11.019   1.441  0.2640  0.2413 -0.0693
22916W        W39050   7.319  16.470   5.531 -0.1735  0.1141 -0.1375
22917W        W39051   4.278   1.805  13.107  0.0129  0.3339 -0.0198
22918W        W39052   5.217   6.890   0.700 -0.1506  0.2654  0.1958
22919W        W39053  17.376   8.787   0.970  0.3524  0.2402 -0.0976
22920W        W39054  16.509  13.734   4.889  0.2425 -0.1484  0.0434
22921W        W39055   5.051   4.210  11.432 -0.1982  0.0559  0.1425
22922W        W39056  12.342   8.361  14.361  0.0222  0.0559 -0.2276
22923W        W39057   4.516   2.377   4.715 -0.2234 -0.0381  0.3419
22924W        W39058   5.851  11.733   4.155  0.1730 -0.0126 -0.2615
22925W        W39059  12.343  15.088   2.657  0.0597  0.0202  0.1280
22926W        W39060  10.039   2.793  15.553  0.0709  0.3663 -0.0703
22927W        W39061  17.943  17.831   2.645  0.1798 -0.0674 -0.2121
22928W        W39062   6.415   0.295  15.063 -0.1797 -0.1872  0.0216
22929W        W39063  10.021   8.054  14.467 -0.2551  0.1921  0.1114
22930W        W39064  12.597  15.511  12.762  0.3490  0.0477  0.0364
22931W        W39065   5.907   1.326  14.154 -0.2498  0.0388 -0.2448
22932W        W39066   6.776   6.898  13.257  0.1214 -0.0988 -0.1648
22933W        W39067   8.464   4.923  15.899  0.1096  0.2588  0.1516
22934W        W39068  12.411  11.393   5.033 -0.1956 -0.1701  0.1943
22935W        W39069  12.236  14.835   4.847  0.2456 -0.0635 -0.2682
22936W        W39070  15.192  11.711  11.878  0.1947 -0.3410 -0.1000
22937W        W39071   0.484  11.788   2.567 -0.3216  0.2275 -0.0045
22938W        W39072   6.030   2.876  11.202 -0.1719  0.1396  0.0836
22939W        W39073  13.702   6.231  12.921  0.1815  0.0728 -0.1538
22940W        W39074  13.170   5.912   3.806  0.0052 -0.0938 -0.0012
22941W        W39075   5.583   2.864   4.793 -0.0361 -0.1576  0.3211
22942W        W39076  16.402  13.457   2.582 -0.3493  0.3197 -0.1273
22943W        W39077  13.625   1.786   4.570  0.3450  0.0617 -0.2556
22944W        W39078   3.541   0.016   3.605 -0.0527  0.0513 -0.0418
22945W        W39079  11.832   4.391  13.970 -0.0319 -0.2142 -0.1603
22946W        W39080   1.142  14.020  13.099  0.3843 -0.0576 -0.0862
22947W        W39081  14.211  15.739  11.978 -0.2940 -0.0820 -0.2098
22948W        W39082   7.233   2.665   0.413 -0.0610 -0.2626  0.0777
22949W        W39083   3.815  11.862  15.462 -0.2065  0.0859 -0.0905
22950W        W39084  13.769  12.481   4.198  0.1806 -0.0518 -0.1560
22951W        W39085   2.261   7.373  13.634 -0.4203 -0.3660  0.2181
22952W        W39086  14.330   3.915   4.013  0.2430 -0.0013 -0.1037
22953W        W39087   2.448   7.397  12.554 -0.1047 -0.0078  0.0576
22954W        W39088   1.293   2.499   4.232  0.0598 -0.0494 -0.0010
22955W        W39089   4.947   7.103  13.067  0.1410 -0.1257 -0.2828
22956W        W39090   4.107  15.507  14.190  0.2319  0.1013  0.2064
22957W        W39091   1.851  14.543   5.840 -0.3378  0.0572  0.3698
22958W        W39092   9.733  10.121  14.475 -0.1965 -0.3835 -0.1558
22959W        W39093   9.803  16.149   1.204 -0.1998 -0.1798 -0.2386
22960W        W39094   7.072  14.006  15.677  0.1793 -0.0585 -0.0607
22961W        W39095   5.567   8.908   0.749  0.0466  0.1317 -0.3517
22962W        W39096  13.499  15.539   1.908 -0.1467 -0.1181 -0.1190
22963W        W39097  15.102   8.259   1.220  0.1324  0.1336  0.0825
22964W        W39098  11.641   7.718   5.351 -0.3164 -0.1425 -0.0973
22965W        W39099   4.722   0.790   1.376 -0.0479 -0.4727 -0.2641
22966W        W39100   2.452   6.737   2.983  0.1683 -0.3346 -0.1062
22967W        W39101  10.468   9.611   2.190 -0.4608 -0.2312  0.2569
22968W        W39102   7.585   5.024  15.535 -0.0122 -0.2153  0.2229
22969W        W39103   1.766   5.518  14.074  0.0544 -0.3395 -0.0223
22970W        W39104  13.002   4.374  13.253 -0.2730 -0.1954  0.1878
22971W        W39105  11.205   4.374   5.504 -0.2446  0.2114 -0.4826
22972W        W39106   1.059   7.597  10.088 -0.1244 -0.2071  0.0177
22973W        W39107   2.479   6.391  14.906  0.1112 -0.0047  0.1200
22974W        W39108  10.773  16.663  13.700 -0.1142  0.1298  0.1374
22975W        W39109  12.724   7.554  14.700 -0.1127 -0.1421 -0.0643
22976W        W39110  10.311  13.254   5.002 -0.2006 -0.0071 -0.3460
22977W        W39111   7.276  13.097  13.235  0.1800  0.1826 -0.1032
22978W        W39112   8.307   1.405  11.736 -0.0184  0.0273  0.2149
22979W        W39113   2.805   3.307   0.755 -0.1997 -0.1821  0.0189
22980W        W39114   0.882   8.505   4.928  0.1353 -0.1166  0.0576
22981W        W39115   8.572   9.942  13.488  0.1321  0.0413  0.0652
22982W        W39116   4.265   0.752   5.187  0.1268 -0.1629 -0.0771
22983W        W39117  15.208  15.422  12.744 -0.0179 -0.0202  0.0901
22984W        W39118   4.217   7.217   1.330  0.2120 -0.2650 -0.1055
22985W        W39119   4.581  17.468  14.096  0.0034 -0.1669 -0.1058
22986W        W39120   9.591  10.236  15.931 -0.0844 -0.0835 -0.2651
22987W        W39121   5.805  11.124  13.845 -0.0153  0.0300 -0.1180
22988W        W39122  12.778  11.823   4.975 -0.0991 -0.0814 -0.2866
22989W        W39123  13.501  14.029   4.001 -0.0938 -0.1798  0.2283
22990W        W39124   6.383   6.022   5.612 -0.1431 -0.0762 -0.0812
22991W        W39125   3.547   1.362   3.952 -0.2245  0.2061 -0.0126
22992W        W39126  15.626   6.320  14.693  0.0196  0.1849  0.0657
22993W        W39127  15.923   1.315   1.846  0.0955  0.1046  0.1358
22994W        W39128   5.501   0.455   2.253 -0.3538 -0.1218  0.1057
22995W        W39129  10.619   1.042  14.298 -0.0838 -0.2337  0.0826
22996W        W39130  12.023   6.841  13.063  0.2070  0.2123 -0.0431
22997W        W39131   9.383   3.356  15.490 -0.2671 -0.1261  0.1719
22998W        W39132   7.357  10.803   3.376 -0.0398  0.0773 -0.0856
22999W        W39133  12.420  11.024   1.289 -0.3342  0.0048  0.2321
23000W        W39134   2.223  11.522   2.275 -0.0400  0.0199  0.0778
23001W        W39135  10.722   3.457   3.424 -0.1406  0.1288 -0.1914
23002W        W39136  12.461  17.465  15.407  0.1397 -0.0297 -0.1745
23003W        W39137   3.444  12.458  15.552  0.2072 -0.1914 -0.1466
23004W        W39138  15.425   7.474   3.629 -0.3183 -0.1134 -0.0973
23005W        W39139   4.404   9.423  15.878 -0.2252  0.0058 -0.0461
23006W        W39140   8.609  13.897   4.003 -0.3352  0.0306  0.0490
23007W        W39141   8.121   4.901  14.330  0.0661 -0.0306 -0.0859
23008W        W39142   4.690  12.265  13.700 -0.0051  0.1794 -0.1046
23009W        W39143  14.963   6.153   2.247  0.3311 -0.0995 -0.2997
23010W        W39144  17.822   6.195  11.467  0.2766 -0.0947  0.1052
23011W        W39145  13.062  10.263  15.380  0.1453 -0.2161 -0.1868
23012W        W39146   1.891  14.417   4.362 -0.0109 -0.1618 -0.0087
23013W        W39147   9.963  12.419  10.190  0.1703 -0.3211  0.0977
23014W        W39148   2.504   6.867   5.851 -0.0773  0.1334 -0.0758
23015W        W39149   7.837   3.081   2.326 -0.2349  0.1280  0.1423
23016W        W39150  15.737  16.423   0.640  0.1323  0.0114 -0.0558
23017W        W39151   1.837   5.994  15.128 -0.0102  0.1203 -0.0884
23018W        W39152   6.918   2.887   5.486  0.0037  0.2395  0.1036
23019W        W39153   7.670  14.903  14.435 -0.1926 -0.0025 -0.3297
23020W        W39154  13.939   2.574  13.871  0.3406  0.0037 -0.2210
23021W        W39155  13.309   1.056   5.302  0.1792 -0.3608  0.0917
23022W        W39156   4.310   8.020  11.129 -0.3543  0.0841 -0.1543
23023W        W39157  12.197   1.840  15.348  0.1162 -0.4444  0.0571
23024W        W39158   9.912  15.253  14.401 -0.4162 -0.2068  0.0912
23025W        W39159  16.811   1.534  13.337  0.2386  0.1795  0.1392
23026W        W39160   7.269   2.789  14.626 -0.0681 -0.0421 -0.3926
23027W        W39161   3.935  17.602   0.529  0.0174 -0.1967 -0.4763
23028W        W39162  13.196  13.176   2.429 -0.0609 -0.1040  0.1835
23029W        W39163  13.904  14.870   2.470 -0.0056  0.0587 -0.0392
23030W        W39164  16.930   8.489  13.740  0.1143 -0.1534 -0.1989
23031W        W39165   7.472   7.935   0.343 -0.0874  0.3918 -0.3419
23032W        W39166   0.115  12.119  15.221  0.0133  0.2246  0.1673
23033W        W39167   8.127  13.731   3.938 -0.1155 -0.0973  0.0128
23034W        W39168   0.462  17.140   2.276 -0.1493  0.3061  0.1187
23035W        W39169   7.614  16.922   5.314  0.1095 -0.0654  0.2478
23036W        W39170  17.312  15.844   2.016  0.0772 -0.0514 -0.2010
23037W        W39171  16.050   0.034  12.353 -0.0635  0.1459  0.4727
23038W        W39172  12.854   8.180   1.158  0.2378  0.1090  0.0146
23039W        W39173  16.296  18.039   1.580 -0.1300 -0.0957  0.0938
23040W        W39174   1.108  16.760  13.736 -0.2737 -0.1055  0.2550
23041W        W39175  10.303   9.195  11.993 -0.0221  0.1776 -0.2377
23042W        W39176   4.785  11.831  15.543  0.2034 -0.0010  0.1237
23043W        W39177   0.612   4.354   4.150 -0.2200 -0.0984 -0.0316
23044W        W39178   4.315   0.413  14.839 -0.3912 -0.0170 -0.0839
23045W        W39179  17.932   6.028   4.691  0.0335  0.2263 -0.0293
23046W        W39180  17.745   9.195   2.527  0.0594 -0.2410  0.0388
23047W        W39181   6.358   8.556  12.020  0.0066  0.1131  0.0400
23048W        W39182   6.055   9.401  13.392  0.0530 -0.1943  0.0663
23049W        W39183  12.903  10.712  15.575  0.1448 -0.2209  0.1476
23050W        W39184  14.047   9.728   5.350  0.0255  0.3272 -0.2271
23051W        W39185   7.931  10.780   3.685  0.0217 -0.1005  0.1069
23052W        W39186   2.408   2.041   4.216 -0.0853  0.0393  0.1163
23053W        W39187  11.664   1.631   5.534  0.2085  0.1915  0.0209
23054W        W39188  13.071  10.881  14.202 -0.1600  0.3755  0.1138
23055W        W39189   5.124   2.252   2.439  0.2112  0.0143 -0.0823
23056W        W39190   9.909   9.671  10.835  0.1470 -0.1741 -0.0512
23057W        W39191   5.430   5.594  15.781 -0.1856 -0.3102  0.1963
23058W        W39192   7.301  13.959   2.025  0.0458 -0.2235  0.2944
23059W        W39193   2.087  13.007   1.716 -0.0669  0.1233 -0.2600
23060W        W39194   0.015   4.029   0.047 -0.0310 -0.2379 -0.1082
23061W        W39195  11.287   4.582  15.618  0.0973 -0.1938 -0.1444
23062W        W39196  16.081  10.558   3.696 -0.3836  0.0767 -0.1784
23063W        W39197   3.937  17.581   1.800 -0.1486  0.0701 -0.2789
23064W        W39198  18.006  14.685  12.214  0.1640 -0.0595 -0.4127
23065W        W39199   6.089   3.316  11.430  0.1267 -0.0024 -0.0873
23066W        W39200  12.782  10.415  16.526  0.0126 -0.0698 -0.2656
23067W        W39201   6.717  14.999   1.316 -0.0098  0.1221 -0.0280
23068W        W39202   2.164   2.197   1.388 -0.4020 -0.0441 -0.1384
23069W        W39203   8.974  12.597  12.320 -0.2127  0.1299 -0.4412
23070W        W39204  15.234   0.187   4.672 -0.0142 -0.2466  0.3132
23071W        W39205   7.344  11.130  11.905  0.2670  0.1552  0.0660
23072W        W39206   5.537   1.343   6.052 -0.1970  0.0321 -0.4356
23073W        W39207   5.756  13.721  13.819 -0.0703  0.0961 -0.1458
23074W        W39208  15.546  16.707  15.350 -0.0036 -0.1588 -0.0306
23075W        W39209   2.880  12.661  12.506  0.0078  0.2758  0.0412
23076W        W39210  13.451   9.289   3.053  0.1161 -0.0398 -0.0847
23077W        W39211  16.862  16.043  13.781  0.2999 -0.2600 -0.0280
23078W        W39212  15.785  10.641  12.795  0.1031 -0.1323  0.0260
23079W        W39213  12.680  14.936   1.162  0.1582 -0.1359 -0.0314
23080W        W39214   3.708   2.306   5.153 -0.4042  0.1207  0.1453
23081W        W39215  16.086   1.545   6.009 -0.1147  0.0673 -0.0181
23082W        W39216   8.752   7.918  16.261 -0.0253  0.2983  0.0351
23083W        W39217  12.782  17.357   5.090  0.0911 -0.0749  0.1145
23084W        W39218   6.046  12.884   1.206 -0.0770  0.0265  0.3475
23085W        W39219   5.146   4.783  13.395 -0.1033  0.1581 -0.0675
23086W        W39220  11.995  13.880  13.695  0.2055  0.0051  0.2630
23087W        W39221   6.621  16.153  15.658 -0.0630  0.4360  0.1505
23088W        W39222   6.206   3.780   4.161  0.3428  0.0112 -0.1956
23089W        W39223   6.259   0.969   6.636  0.2800  0.1994  0.4227
23090W        W39224  13.231   9.526  14.616  0.0237  0.3822 -0.2174
23091W        W39225  15.897  17.700   5.437  0.3378 -0.1223 -0.0222
23092W        W39226  10.114  12.302   3.404  0.1410  0.0317 -0.0691
23093W        W39227   2.656   2.324   1.053 -0.1632 -0.1162  0.1159
23094W        W39228   2.462   1.327  15.259 -0.1234  0.1299  0.2365
23095W        W39229  14.206  17.836   1.881 -0.1796  0.1359  0.1382
23096W        W39230   9.173   2.312  14.361  0.1437 -0.1804 -0.3484
23097W        W39231  13.188  14.133   1.384 -0.1114  0.1463  0.1148
23098W        W39232  17.674  17.728   5.181 -0.1803  0.0140 -0.1246
23099W        W39233   6.327  11.672   4.078 -0.1444 -0.0929  0.2740
23100W        W39234   8.587   4.491   2.671 -0.0340 -0.0199  0.1660
23101W        W39235   2.165   4.780  12.981  0.0069 -0.0390  0.1278
23102W        W39236  18.015   5.328  15.079  0.3261  0.1840 -0.1262
23103W        W39237   0.249   0.894   2.388  0.0299  0.1127 -0.1739
23104W        W39238  10.070   2.476   2.429 -0.0529 -0.0949 -0.1273
23105W        W39239  17.467   9.198   2.037 -0.0182  0.4474  0.2843
23106W        W39240   2.393  18.161   1.147 -0.1447 -0.0530  0.0056
23107W        W39241  16.701   1.251   0.267  0.1254  0.0734  0.1022
23108W        W39242  16.028   0.518  14.783  0.1398  0.2400 -0.0835
23109W        W39243  10.791   6.479   0.858  0.0248  0.4368  0.2880
23110W        W39244   6.809   4.496  12.665 -0.1574 -0.0649  0.1842
23111W        W39245   8.437  13.487   2.454 -0.1384  0.2557  0.1596
23112W        W39246  12.662  11.624   3.163  0.2272 -0.4923 -0.3386
23113W        W39247  17.504   4.769  14.354 -0.1334 -0.1260  0.4095
23114W        W39248   7.332   2.700  15.953  0.1438 -0.0016  0.0276
23115W        W39249   7.358  17.162  16.213 -0.3379  0.0494  0.1632
23116W        W39250   7.367  10.590   1.498  0.0133 -0.0462 -0.1348
23117W        W39251  18.106   6.545   2.015 -0.0318 -0.4341  0.2134
23118W        W39252  14.036   8.066  16.336 -0.4124  0.2134 -0.0567
23119W        W39253  13.048   1.479  15.508  0.2317  0.1068  0.0173
23120W        W39254  11.749   2.815   2.122  0.2571  0.1474 -0.1988
23121W        W39255  14.117  16.095   4.177 -0.1135  0.1244  0.0623
23122W        W39256  17.629  15.236   0.202  0.2080  0.1810 -0.0423
23123W        W39257  10.450  16.492  16.444  0.3882  0.2181  0.0074
23124W        W39258   8.004  16.789   4.997 -0.0489  0.2912  0.2611
23125W        W39259   7.989  11.377  12.294  0.0164 -0.0644 -0.0129
23126W        W39260  13.993  13.232  15.067  0.3089  0.0542  0.0385
23127W        W39261   7.868   9.875   5.103 -0.0034 -0.2693 -0.0964
23128W        W39262   2.640   7.423  11.504 -0.0767  0.2251 -0.2279
23129W        W39263   2.177  17.647   2.668  0.1420  0.1258 -0.0507
23130W        W39264  14.092  15.788   0.211 -0.3424 -0.1436 -0.0220
23131W        W39265  18.093  10.176   3.291 -0.1557 -0.2888 -0.0422
23132W        W39266  13.536  14.259  11.897  0.0527  0.2085  0.2379
23133W        W39267  11.389  11.857   4.903 -0.0304 -0.0215  0.1976
23134W        W39268  13.797   2.788   5.329  0.0288  0.0601  0.0348
23135W        W39269  15.822   7.677  12.950 -0.1627 -0.0034 -0.0277
23136W        W39270  15.450   5.385   4.492  0.0107 -0.4195  0.3726
23137W        W39271   4.705  15.941   2.844  0.2294  0.0064 -0.1401
23138W        W39272   7.020  14.982   1.781  0.3445  0.0591 -0.0709
23139W        W39273   6.488   7.935   0.578 -0.2810 -0.0155 -0.0919
23140W        W39274  17.818  17.187   2.715  0.1272  0.1509  0.2098
23141W        W39275  15.001   4.302   3.381 -0.5084 -0.0848 -0.4091
23142W        W39276  17.258  16.661   0.150 -0.2187 -0.0170  0.1545
23143W        W39277   8.804   3.665   4.627 -0.1567  0.2380  0.2643
23144W        W39278  12.228  17.496   1.846 -0.1836 -0.0515  0.0904
23145W        W39279   8.531   6.164  12.970  0.0952 -0.2624  0.4540
23146W        W39280   5.097  12.470   1.640  0.2174  0.1480 -0.3452
23147W        W39281   5.481  15.127  15.972  0.1097  0.3181 -0.1788
23148W        W39282  17.124   0.806   5.205  0.2153  0.2897  0.1280
23149W        W39283  17.970  15.535  14.642  0.5113 -0.0976 -0.1520
23150W        W39284   0.820   2.805   2.625 -0.0219 -0.1018 -0.1861
23151W        W39285   6.949   4.161  12.185  0.2020  0.2421  0.0721
23152W        W39286  12.262  11.015   2.169  0.1985  0.1077  0.0662
23153W        W39287  11.558   9.118   1.843 -0.0672  0.3374 -0.1094
23154W        W39288   5.501   4.610  15.180 -0.0354 -0.1590 -0.4729
23155W        W39289  10.365  16.802  16.100  0.0049  0.1272 -0.0514
23156W        W39290   6.709   5.296  15.371  0.1406  0.1331  0.2559
23157W        W39291  15.700  16.873   0.947  0.1895  0.0701  0.0685
23158W        W39292  16.692   3.661   2.794 -0.1063  0.0019  0.1875
23159W        W39293   9.691  16.420  11.901  0.3924  0.0957 -0.1301
23160W        W39294   6.866  11.818   4.882  0.1112 -0.2826 -0.1125
23161W        W39295   2.403   4.618  12.548  0.0518 -0.0545 -0.1040
23162W        W39296   2.635  16.996   3.180  0.1235  0.1301 -0.0049
23163W        W39297  10.518  16.125  11.865 -0.1840 -0.1310  0.1535
23164W        W39298   3.855  12.868   3.875 -0.1202  0.0698 -0.0606
23165W        W39299  10.822   2.597   3.655  0.0541 -0.1449 -0.1079
23166W        W39300  11.805   8.639   2.928  0.0041  0.3607  0.3885
23167W        W39301   5.587  12.020   5.063  0.2064  0.0327  0.4087
23168W        W39302   8.076  16.662  13.204  0.0156  0.3044  0.1895
23169W        W39303   4.507  13.685   2.955  0.1134 -0.0534  0.0767
23170W        W39304   6.601   7.683  12.002  0.1651  0.1260  0.0602
23171W        W39305   0.385   4.289  13.281 -0.1313 -0.2312 -0.0300
23172W        W39306   1.413   7.255  16.026  0.0803  0.0324 -0.0626
23173W        W39307   3.158  13.816  11.458 -0.0086  0.0986 -0.0224
23174W        W39308   0.392   6.881  13.873 -0.1472 -0.0805  0.0815
23175W        W39309  14.564   2.082  14.975  0.2698  0.2729  0.2609
23176W        W39310  16.827  17.503   4.990  0.0106  0.0183 -0.0608
23177W        W39311   0.232   1.337  11.809  0.1435 -0.0355  0.0952
23178W        W39312   6.616   6.980   0.049 -0.3237  0.0892  0.0161
23179W        W39313   7.101  11.219   0.713 -0.0687  0.0303  0.0610
23180W        W39314   7.239  16.921   0.113 -0.1734 -0.2576  0.2602
23181W        W39315  18.020   4.029   2.553 -0.0870 -0.4061  0.1688
23182W        W39316  10.842  11.279   1.258  0.2443 -0.1101  0.0478
23183W        W39317   5.167  12.501  11.687 -0.0446  0.0459 -0.4110
23184W        W39318   3.434   0.300   2.631 -0.2342 -0.0288 -0.2436
23185W        W39319  16.226  15.286  12.998 -0.2442 -0.4301 -0.0492
23186W        W39320   0.643  12.675  16.448 -0.0989 -0.0212  0.1005
23187W        W39321  11.728   3.307   2.964  0.0188  0.3089  0.2688
23188W        W39322  13.198  12.108   5.133 -0.0474  0.1433  0.2182
23189W        W39323  14.506   2.266  15.494 -0.2367 -0.2002 -0.0083
23190W        W39324  16.336   2.971   4.359 -0.0631 -0.1136 -0.2132
23191W        W39325   9.152  11.301  14.597  0.2623  0.0730  0.1539
23192W        W39326  15.962  10.806   4.136  0.0264 -0.1883 -0.4254
23193W        W39327   5.022   7.487  15.631 -0.0544  0.0467 -0.0050
23194W        W39328   9.713  11.290   4.079 -0.3158 -0.0849 -0.2214
23195W        W39329   1.012  16.424   5.192 -0.0003  0.3746 -0.2969
23196W        W39330   4.518  16.902  14.585 -0.0819 -0.2847  0.0351
23197W        W39331   3.918   7.457   3.673  0.0911  0.1636 -0.2244
23198W        W39332   0.886   8.892   0.508  0.0884  0.0889  0.2844
23199W        W39333   4.503  10.374  16.155 -0.1584  0.0446  0.1153
23200W        W39334   1.717  14.942   5.133 -0.0968 -0.2637  0.0267
23201W        W39335   3.989   1.804  14.811 -0.0865  0.1574 -0.0583
23202W        W39336  15.401   5.338  11.901  0.3461  0.0779  0.3255
23203W        W39337   9.390  11.724   5.827 -0.1341 -0.0922  0.3381
23204W        W39338   8.676   6.778   1.746  0.0538  0.2451 -0.3251
23205W        W39339   1.734   4.586   3.416  0.1086  0.1685 -0.2356
23206W        W39340   0.151   9.123  12.578 -0.1357 -0.0676  0.2697
23207W        W39341  16.702   7.582  14.104  0.1396 -0.1958 -0.0408
23208W        W39342   1.912   8.516  14.797 -0.0097  0.2065 -0.2900
23209W        W39343   6.916  17.727  13.446 -0.0625 -0.2746  0.2012
23210W        W39344   1.269   1.697   4.840  0.0700  0.0138  0.0320
23211W        W39345  10.247  11.950   0.897  0.3712 -0.0432 -0.6339
23212W        W39346  11.967  11.649  15.515  0.2638  0.0613  0.0636
23213W        W39347   2.016   5.563  14.936  0.1709  0.3775  0.1115
23214W        W39348   7.822  17.850   5.573  0.1598  0.0706  0.0429
23215W        W39349  13.667   9.017   2.095  0.0809  0.0223 -0.2413
23216W        W39350  13.089  15.320   2.190 -0.1526  0.0423  0.1428
23217W        W39351   2.126   4.716   2.984  0.0700 -0.0364 -0.1532
23218W        W39352   9.543   0.600  14.955  0.1104  0.3202 -0.2572
23219W        W39353  13.675  17.108  15.142  0.0901 -0.0515 -0.0297
23220W        W39354  13.504  10.372  13.174 -0.0036  0.2323  0.2889
23221W        W39355  15.085  13.718  12.034 -0.2142  0.1934  0.0876
23222W        W39356  16.487   7.887   3.166  0.1626 -0.0041 -0.1492
23223W        W39357   0.600   8.237   1.637 -0.2258 -0.0814  0.1665
23224W        W39358   9.170  14.735  14.534 -0.3942  0.2932 -0.0127
23225W        W39359   8.281  14.561  14.387  0.1198 -0.2538 -0.1376
23226W        W39360  16.657  16.304   3.795 -0.2672 -0.2791  0.1046
23227W        W39361  12.944  18.163   5.121 -0.1464  0.0284 -0.0054
23228W        W39362   3.116   3.909  12.187  0.1832 -0.0875 -0.3823
23229W        W39363  13.609   6.667  14.017 -0.0125  0.0741 -0.1376
23230W        W39364  13.645   4.379  15.397 -0.0797  0.1315  0.2896
23231W        W39365  10.234   0.369   1.069 -0.0100  0.3549  0.1524
23232W        W39366   5.515   7.988  10.811 -0.1642  0.2370 -0.4122
23233W        W39367  15.192  14.746  12.196 -0.0084  0.0326 -0.0036
23234W        W39368  14.944  10.247  11.762 -0.1820 -0.2251  0.2554
23235W        W39369   8.650   4.062   4.905  0.1862 -0.1742 -0.0401
23236W        W39370  15.332   5.905  16.391 -0.1951 -0.1763  0.1414
23237W        W39371  16.203   4.773  15.614 -0.2667 -0.0726 -0.0081
23238W        W39372  15.374   5.113   3.499  0.0808 -0.2182 -0.0688
23239W        W39373   3.835  14.724   4.163 -0.1607 -0.0868 -0.2718
23240W        W39374   3.389   6.471  14.482  0.2548 -0.0888  0.0651
23241W        W39375   9.869  14.266   2.501 -0.0030 -0.2284  0.0142
23242W        W39376  16.169  11.114   3.790 -0.1467  0.0806  0.1807
23243W        W39377   9.749   5.619   1.957  0.1275  0.0542 -0.1792
23244W        W39378  14.244  16.021   1.857 -0.4239  0.1023  0.3658
23245W        W39379   9.036  10.144  10.890 -0.1190  0.0994  0.0475
23246W        W39380   0.537  11.547  15.706  0.0061  0.3555 -0.0826
23247W        W39381  16.414   1.684   0.310  0.1205  0.3008  0.0566
23248W        W39382   5.038  17.034   0.414  0.0749 -0.1268 -0.1492
23249W        W39383   9.822  17.806   2.766 -0.0065  0.0697  0.0587
23250W        W39384  10.729  14.324   3.092  0.0286 -0.1986 -0.1250
23251W        W39385   2.779  16.979  12.796 -0.1984 -0.1646  0.0435
23252W        W39386  12.224  15.249   1.180 -0.1744 -0.3144 -0.1766
23253W        W39387  12.877   0.638   2.998 -0.1070 -0.1476  0.2792
23254W        W39388  11.814  15.379  12.325 -0.1829 -0.2174  0.2406
23255W        W39389   6.058  12.522   0.034  0.1611 -0.0819 -0.2324
23256W        W39390  14.004   0.907   0.660  0.1154 -0.1110  0.0793
23257W        W39391   1.990   8.031   2.452  0.0345  0.1518 -0.1343
23258W        W39392  10.917   4.016   4.769 -0.1290  0.0479 -0.0787
23259W        W39393  13.421   8.577   2.321 -0.0776  0.1697 -0.0878
23260W        W39394  15.893   4.704  13.941  0.0581  0.0908  0.1396
23261W        W39395  12.090   7.254  15.337  0.0598 -0.1448  0.0624
23262W        W39396   0.610   0.384   2.834 -0.0570  0.0456  0.0499
23263W        W39397   2.828  14.060   1.795  0.2366 -0.1016  0.0147
23264W        W39398  11.531   0.434  15.176 -0.2780  0.2753  0.0622
23265W        W39399   7.172  12.145  14.359 -0.1344 -0.0877  0.0589
23266W        W39400  14.527  15.259   7.037  0.3767 -0.3539 -0.0152
23267W        W39401   2.687   8.409   3.315 -0.1390 -0.0254 -0.4427
23268W        W39402  18.172   4.258  13.645 -0.5508  0.0621 -0.1490
23269W        W39403   9.385  17.618   3.430  0.0066 -0.0185 -0.0016
23270W        W39404  13.689   9.145  14.889 -0.1658  0.0580 -0.2022
23271W        W39405   1.213   5.055   3.866  0.5476  0.0122  0.1141
23272W        W39406  17.880  10.099   4.769 -0.1659  0.0636  0.1695
23273W        W39407  15.758   2.303   2.981  0.0551  0.1047 -0.1507
23274W        W39408  15.306  17.323   1.571  0.1346  0.1829  0.2112
23275W        W39409  11.239   8.613  11.385  0.0758  0.1723 -0.0763
23276W        W39410  13.260   1.562   1.338  0.0357 -0.2120 -0.0121
23277W        W39411   1.306  10.222  11.691 -0.0676  0.0036  0.1022
23278W        W39412  17.306  10.480  11.137 -0.0452  0.2459  0.0582
23279W        W39413  13.527   6.444   3.955  0.0539 -0.0871 -0.1556
23280W        W39414   2.184  13.108   3.132 -0.1324  0.0038  0.0590
23281W        W39415  10.656  12.743  10.901  0.0068 -0.0071 -0.1053
23282W        W39416   6.479   2.925   1.791  0.1315  0.1986 -0.1054
23283W        W39417   3.411   7.365   0.657 -0.1295  0.3410  0.0954
23284W        W39418  10.862  15.658   0.100  0.0223  0.2625  0.3203
23285W        W39419  11.540   1.253  16.385 -0.1056  0.0013  0.4234
23286W        W39420   1.353   0.834   3.756  0.0519  0.1820  0.0718
23287W        W39421  16.019   7.761  15.348 -0.0433 -0.1737 -0.1798
23288W        W39422  17.423  17.373  11.988 -0.1258  0.0527  0.3672
23289W        W39423   8.882   7.380  10.075  0.3156  0.0472  0.1748
23290W        W39424   2.444  10.701  15.873  0.2675  0.1339 -0.5656
23291W        W39425   2.779   3.371   1.951  0.0183 -0.2711 -0.1160
23292W        W39426  10.328  11.021  12.514  0.0105  0.1889 -0.1663
23293W        W39427  10.953  12.268  15.934 -0.0727 -0.0386  0.2362
23294W        W39428   7.841  15.980   2.401  0.0553  0.0669 -0.0137
23295W        W39429   6.484   3.654  11.434 -0.0226  0.0126 -0.0209
23296W        W39430  11.670  17.569   3.610 -0.1003  0.2923 -0.0228
23297W        W39431  14.616  13.450  13.427  0.1268  0.1373  0.3024
23298W        W39432  12.968   6.837   1.378  0.2973  0.1317 -0.1156
23299W        W39433  13.786  17.300   5.833 -0.1347 -0.0580  0.2783
23300W        W39434  15.595   0.886  11.959 -0.0202  0.0316  0.2248
23301W        W39435   0.244  14.452  14.229  0.0930  0.0733 -0.0470
23302W        W39436   9.389   5.506   5.729  0.1780  0.0739 -0.0334
23303W        W39437  13.558  17.236   1.690 -0.0176 -0.0273  0.1473
23304W        W39438  15.595  15.942  14.868 -0.2005  0.2289 -0.0341
23305W        W39439  16.257  10.605   0.311 -0.0907  0.0038  0.2807
23306W        W39440   2.236  10.485   1.638  0.1645 -0.2743 -0.1641
23307W        W39441  11.858  13.244   2.039 -0.1405 -0.2287  0.0694
23308W        W39442  13.657   7.553  12.248  0.2722  0.1627  0.1229
23309W        W39443   2.280  17.897  15.518 -0.2706 -0.0236  0.2205
23310W        W39444  17.486   8.412  10.987  0.2951 -0.0140  0.1222
23311W        W39445  15.583  16.500   3.184  0.4605 -0.1334 -0.0453
23312W        W39446  11.771   1.730   5.035  0.3433  0.0419 -0.2175
23313W        W39447  15.102  12.844  12.478 -0.2743 -0.4193 -0.1225
23314W        W39448  13.414  10.023   3.859  0.0584  0.0785 -0.1876
23315W        W39449   8.531   9.740   3.673 -0.3287  0.0878 -0.0612
23316W        W39450  17.207  13.631   4.166 -0.0361 -0.0319 -0.1191
23317W        W39451   4.132  15.570   4.117 -0.1087 -0.1797  0.2334
23318W        W39452   4.510   7.574   1.443 -0.2475  0.2661 -0.1150
23319W        W39453   7.055   3.636   1.227 -0.0146 -0.2055  0.1032
23320W        W39454   9.997  10.448  12.046 -0.1427 -0.0673 -0.0398
23321W        W39455  11.864  11.689   5.516 -0.4560 -0.1754  0.1272
23322W        W39456   8.720   0.972   4.385 -0.0691  0.0301 -0.0887
23323W        W39457  16.175  12.437  12.035  0.2237  0.1140 -0.2197
23324W        W39458  10.223  17.570  11.804 -0.2121  0.1845  0.1269
23325W        W39459  11.991   3.533   4.790 -0.0507 -0.1538  0.3651
23326W        W39460   0.515   0.466   0.163  0.1272  0.0973 -0.0281
23327W        W39461   0.235   4.943   1.127  0.2503 -0.2244 -0.2299
23328W        W39462  12.162  12.828  12.083  0.1572  0.1240  0.1584
23329W        W39463  17.644  12.266   3.041 -0.1511 -0.2051  0.0641
23330W        W39464   1.286  11.338  14.218 -0.1824  0.2328 -0.0831
23331W        W39465   9.014   7.021  11.944 -0.0698 -0.0926  0.0970
23332W        W39466   2.151  11.123   2.612  0.1178 -0.0751  0.0892
23333W        W39467   0.660  14.473   3.879  0.2155 -0.3397  0.3050
23334W        W39468  15.722  16.126   3.530  0.1537 -0.1169 -0.0286
23335W        W39469   4.191   9.316  13.852  0.1124  0.1036  0.1014
23336W        W39470   5.540  11.865  16.014 -0.0489 -0.1533 -0.3406
23337W        W39471   2.183   0.188  15.596 -0.2080  0.1611 -0.2186
23338W        W39472  13.579  15.379   4.522  0.3235 -0.0534  0.1416
23339W        W39473  14.672   2.724   4.226 -0.2539  0.0342  0.1080
23340W        W39474   5.241  16.085   5.632 -0.0932 -0.0025  0.1405
23341W        W39475  13.900  16.818   2.238 -0.2050 -0.2214 -0.0173
23342W        W39476  13.472   5.410   5.052 -0.1041 -0.2991 -0.1852
23343W        W39477  10.058   0.940   2.507  0.2753 -0.1359 -0.1005
23344W        W39478  13.689   5.514   4.039  0.0799 -0.2922  0.1639
23345W        W39479   4.450   0.549  16.150 -0.1287 -0.0199 -0.1649
23346W        W39480  17.401   9.116  12.622  0.0041  0.2437 -0.1777
23347W        W39481  13.657   4.573   2.614 -0.2191 -0.0229 -0.2024
23348W        W39482   3.603  15.765   4.905 -0.5182  0.1375  0.1677
23349W        W39483   1.422   3.270   3.891  0.2989  0.0722 -0.0718
23350W        W39484  10.816  15.711   3.422  0.2545  0.0031  0.1338
23351W        W39485   7.841  17.673   4.407  0.0875  0.2386 -0.1442
23352W        W39486   0.844  17.360   6.068 -0.0690 -0.0117 -0.0768
23353W        W39487  15.036  15.702  12.369 -0.2055 -0.1664  0.1120
23354W        W39488  13.409   5.078   2.198  0.2272 -0.0105  0.0521
23355W        W39489   1.655  11.410  11.544 -0.0416 -0.0501  0.0116
23356W        W39490  16.481  14.369   0.623  0.0070 -0.0736  0.1357
23357W        W39491   9.452   7.325   3.386  0.1084  0.2857 -0.1060
23358W        W39492   4.009  11.041   0.817 -0.1202  0.1517 -0.1868
23359W        W39493   8.106   8.236  12.359  0.0447 -0.0551 -0.1135
23360W        W39494   0.174  14.237   3.984 -0.0683  0.1097 -0.0393
23361W        W39495   9.716   5.923   2.503 -0.0736  0.0550 -0.3011
23362W        W39496  10.554  15.884  12.266  0.1512  0.0646 -0.1159
23363W        W39497  11.749   7.022  12.256 -0.1906 -0.0295 -0.0525
23364W        W39498   9.285  12.988   3.264 -0.0916  0.1760 -0.1255
23365W        W39499  14.675   4.774   5.284 -0.4357  0.2662 -0.2145
23366W        W39500  17.278   8.110  12.547 -0.1656  0.2166 -0.0584
23367W        W39501  15.720  14.076  15.631  0.1403 -0.0220 -0.1074
23368W        W39502   9.396  15.148  14.741 -0.1552 -0.1312  0.0239
23369W        W39503   2.567  16.016   1.619 -0.0802  0.0903 -0.2076
23370W        W39504   9.276  15.142   3.717  0.0278  0.2073  0.2100
23371W        W39505  10.486   0.319  11.477  0.0050 -0.0415 -0.0700
23372W        W39506   1.289  14.747   1.392  0.1451 -0.1704  0.0369
23373W        W39507   6.892   7.955   5.036  0.3369 -0.2160 -0.0787
23374W        W39508   0.428   0.186  11.637 -0.0126 -0.1422  0.0923
23375W        W39509  11.819   7.434  10.177  0.2551  0.1213  0.1953
23376W        W39510   5.633  11.084   3.623  0.2393 -0.1368  0.0152
23377W        W39511   5.678  17.961   4.540 -0.0637 -0.0820  0.1819
23378W        W39512  15.441   4.904  12.145  0.0256  0.1377  0.0951
23379W        W39513   2.206   6.287  15.291  0.2226 -0.0194  0.1387
23380W        W39514   7.110   9.580  14.218  0.3113  0.1108  0.0526
23381W        W39515  12.857   9.492  13.433  0.0919 -0.2569  0.0345
23382W        W39516   8.036   7.281  13.426 -0.4163 -0.1574  0.1553
23383W        W39517  15.369  11.571  16.237  0.0150 -0.2023 -0.0492
23384W        W39518  14.689  12.557   4.300  0.1151 -0.0174 -0.0008
23385W        W39519   4.146  16.200  11.510 -0.1515  0.1166  0.2176
23386W        W39520  10.005   4.310   4.942  0.2068  0.1059  0.0389
23387W        W39521  17.808  13.805  15.507  0.3645  0.1400 -0.1893
23388W        W39522   8.101  12.147  12.849 -0.0577  0.1430  0.0754
23389W        W39523   4.425  13.673  16.448  0.2096  0.1791  0.2005
23390W        W39524  12.159  14.317  15.718 -0.1851 -0.0154  0.1346
23391W        W39525   2.893   6.877  14.014  0.1254  0.0168  0.4054
23392W        W39526  15.377   6.574   3.305 -0.2096  0.0178  0.0342
23393W        W39527   7.550  15.847  16.515 -0.1139  0.2947  0.3809
23394W        W39528   4.506   1.024   2.871 -0.1030  0.3207  0.0719
23395W        W39529   0.773  10.083   2.340 -0.4942 -0.0223  0.1218
23396W        W39530   3.744   0.142   1.508  0.0817 -0.2241  0.0789
23397W        W39531  14.219  12.503   2.376 -0.0359 -0.2814 -0.1020
23398W        W39532   4.429   3.246  12.104 -0.1303 -0.1441 -0.1932
23399W        W39533   5.669   3.565   0.362  0.2665  0.2244 -0.0844
23400W        W39534  14.010   4.121  14.278  0.1514 -0.0027 -0.2281
23401W        W39535  16.038  15.029   5.761  0.1527 -0.0346  0.3605
23402W        W39536   6.370   2.414  15.942  0.1926 -0.2437  0.2303
23403W        W39537   5.418   6.195   1.495 -0.1456  0.0335 -0.1061
23404W        W39538   3.980   7.825  14.899  0.1695 -0.0068  0.1558
23405W        W39539   6.377   7.035  16.007  0.1558 -0.0041 -0.4798
23406W        W39540  13.845   2.393   3.761 -0.1417 -0.1601  0.1598
23407W        W39541  10.140   0.027  15.215  0.0102  0.0655  0.0774
23408W        W39542  14.088  15.356   6.258 -0.1565  0.1005  0.0746
23409W        W39543   7.278   5.757  14.439 -0.0566 -0.1353  0.0832
23410W        W39544  17.914  11.262  12.439  0.4136 -0.3111 -0.3784
23411W        W39545   3.211   3.164   1.344  0.1831 -0.1806  0.1737
23412W        W39546   1.571  16.170  11.795  0.1463 -0.0843 -0.2203
23413W        W39547   9.776   5.384   4.831 -0.1006  0.2338  0.0603
23414W        W39548  10.817   1.136  14.777 -0.1975  0.1836 -0.1311
23415W        W39549  10.330  13.358   3.076  0.0854  0.0262 -0.0887
23416W        W39550  11.391   4.773  13.007 -0.0856  0.3202 -0.1874
23417W        W39551  13.213  10.715  15.136  0.1268  0.1340 -0.0682
23418W        W39552   0.439   3.158  15.544  0.1766 -0.0494 -0.0258
23419W        W39553   0.710  12.569   3.620  0.0041  0.2284 -0.0532
23420W        W39554  16.556   1.181  15.175  0.2931 -0.0710 -0.2653
23421W        W39555   1.969   4.634   4.262  0.0967  0.0212  0.5067
23422W        W39556   5.541  15.008   4.869 -0.0932  0.1000  0.2259
23423W        W39557   1.300   2.393   0.892  0.1886 -0.1314 -0.3355
23424W        W39558  13.128  13.486   5.735  0.1823 -0.0270  0.6385
23425W        W39559   8.732   3.433  13.755  0.1678  0.0008  0.0306
23426W        W39560   6.860  17.282   0.501  0.0611  0.0819 -0.0759
23427W        W39561  10.445  15.963   4.813  0.1441 -0.0630  0.0370
23428W        W39562   5.964  12.376   0.513 -0.2263  0.1969  0.3956
23429W        W39563   8.897   7.031  14.926 -0.0075 -0.1755  0.2212
23430W        W39564  17.175  18.055   2.173  0.0422  0.1987  0.0948
23431W        W39565   3.398   5.155   3.811  0.2627  0.1967  0.0679
23432W        W39566  11.225  15.668  13.540 -0.3318  0.0996 -0.2686
23433W        W39567   5.100  17.048   3.626  0.5441 -0.0742 -0.0544
23434W        W39568  14.745  16.302   3.427 -0.3665  0.3027  0.0091
23435W        W39569  11.138   0.436  12.666 -0.2303  0.2790 -0.2014
23436W        W39570  17.113   0.367   1.790 -0.3296  0.1660  0.1058
23437W        W39571   7.652   7.244   1.705 -0.0348 -0.1589 -0.0241
23438W        W39572   4.313  13.173   3.869  0.1799  0.0707 -0.0156
23439W        W39573   5.944  15.915   5.028 -0.0715  0.2279  0.2016
23440W        W39574  15.149  17.995  11.400  0.0367 -0.2048  0.2184
23441W        W39575  13.429  14.028  14.411 -0.1418 -0.3269 -0.4855
23442W        W39576  11.441   7.365   3.939  0.0217 -0.1228  0.0602
23443W        W39577   7.797  12.937   0.119 -0.2476  0.1139 -0.0765
23444W        W39578  15.376   4.943  11.607 -0.1576  0.0019 -0.1612
23445W        W39579   4.455  16.891  15.134  0.0166  0.2278  0.0171
23446W        W39580   2.039   7.912  11.066  0.1370  0.2788  0.1556
23447W        W39581   5.145  12.460   5.646 -0.0421  0.0702 -0.1019
23448W        W39582  17.987  17.499   3.100  0.2010 -0.1102 -0.0674
23449W        W39583  14.819   3.340   2.832  0.2261  0.0841 -0.0394
23450W        W39584  18.076   0.007   5.874 -0.1989 -0.3058 -0.0872
23451W        W39585  16.325   4.118   5.506  0.1088 -0.0290  0.2538
23452W        W39586  16.927   6.558  15.891  0.3870  0.0847  0.0147
23453W        W39587   2.406  13.613  16.294  0.0480  0.0126  0.3062
23454W        W39588  13.974  17.932   3.512 -0.0529  0.0930 -0.1761
23455W        W39589  13.604  11.845  14.151 -0.0561 -0.3471  0.2081
23456W        W39590  14.277  11.623  15.397  0.0910 -0.1896  0.3940
23457W        W39591  16.031   6.404  11.122 -0.1093  0.0213  0.1589
23458W        W39592   5.714   7.323   0.117  0.1197 -0.0860  0.2448
23459W        W39593   5.045   6.548  13.241 -0.0207  0.2271 -0.1120
23460W        W39594   9.404  15.201   4.880 -0.0462 -0.2449 -0.3482
23461W        W39595   0.328  14.159  15.224 -0.1947 -0.2101  0.1396
23462W        W39596  11.816   9.440   0.026  0.0357  0.0731  0.2028
23463W        W39597   1.922   0.820   2.645  0.0544  0.2289 -0.1327
23464W        W39598   7.091   1.013   0.413 -0.1112 -0.0917 -0.3194
23465W        W39599   3.489   7.590  11.535 -0.2678 -0.0261 -0.0597
23466W        W39600  11.895   2.059  10.541  0.0696 -0.0194  0.1744
23467W        W39601   3.667  14.257  11.793  0.0395  0.3635  0.2588
23468W        W39602  12.298   1.966   1.712  0.1633 -0.2522 -0.3518
23469W        W39603  13.946   4.544  13.623 -0.0824  0.3371 -0.3452
23470W        W39604  10.084  17.541  12.835  0.1300 -0.1370 -0.1270
23471W        W39605  14.837   4.753   5.770  0.1101 -0.2008 -0.0868
23472W        W39606  16.910  12.420  15.579  0.1471 -0.1463  0.2118
23473W        W39607   7.782   7.830  14.740  0.3605  0.2236  0.3278
23474W        W39608   6.784   0.469   2.083 -0.0185  0.2223 -0.3390
23475W        W39609  18.034   2.327  15.967  0.0426  0.2902 -0.0621
23476W        W39610  13.082  10.511   2.123  0.1551 -0.2772 -0.0855
23477W        W39611   6.409   3.122  13.713  0.0726 -0.3901  0.0886
23478W        W39612  15.661   9.755  12.614  0.0902 -0.0162  0.2640
23479W        W39613  18.113  17.050  15.740 -0.4257  0.2198  0.0442
23480W        W39614  11.897   3.509  13.770  0.1007  0.0585  0.0561
23481W        W39615  14.977   9.379   0.663  0.1281 -0.1579  0.2054
23482W        W39616  13.161   9.355  15.132 -0.0568 -0.0410  0.3733
23483W        W39617  10.388   9.261  10.297  0.1876  0.2745  0.1736
23484W        W39618  13.967   1.871  14.486 -0.0704  0.0799  0.0087
23485W        W39619  11.884   3.535  15.239  0.1555 -0.1155 -0.0251
23486W        W39620   3.063  15.840  15.759 -0.0348  0.2306 -0.0005
23487W        W39621  11.316  15.971   4.784 -0.1310 -0.0994 -0.1276
23488W        W39622  16.390  16.804  16.481  0.1131 -0.0261  0.4960
23489W        W39623   8.179  16.168   5.791 -0.1748  0.0471  0.1635
23490W        W39624  17.122  10.031  16.340 -0.4703  0.1406 -0.2510
23491W        W39625  14.091   5.021   3.541  0.1227  0.1503  0.3041
23492W        W39626   1.999  11.759  11.406  0.0176 -0.2271 -0.0226
23493W        W39627  16.362   2.136  16.050  0.2257 -0.2482 -0.2425
23494W        W39628  16.312   6.672  14.103 -0.4248 -0.0363  0.1517
23495W        W39629  12.510   2.850  14.894  0.0205  0.0286 -0.0952
23496W        W39630   5.250   5.844  11.396 -0.0093 -0.2826 -0.2221
23497W        W39631  14.914  15.542   5.795 -0.0290  0.1722 -0.3299
23498W        W39632   4.559   7.334  15.723  0.3270 -0.0580 -0.4778
23499W        W39633  13.361   1.219  11.688 -0.1051  0.1377 -0.0943
23500W        W39634   4.802   1.789  15.131 -0.1294 -0.4463 -0.2832
23501W        W39635  12.411   3.523  13.494  0.1633  0.2779  0.1008
23502W        W39636  15.408  15.114   5.057 -0.0192 -0.0970 -0.0728
23503W        W39637   4.096   2.564   2.527 -0.0364  0.1144  0.2005
23504W        W39638  15.707  15.479   5.054  0.0377 -0.1433 -0.0435
23505W        W39639   3.825  10.219  11.436  0.1221  0.1923  0.2842
23506W        W39640  10.112   3.425   2.569  0.4111 -0.1329 -0.4158
23507W        W39641   4.558   4.399  15.165 -0.2530 -0.1087  0.0371
23508W        W39642   5.340  12.615  16.422  0.2834  0.0987 -0.1090
23509W        W39643   3.104  14.823   1.167  0.0771  0.0657 -0.0241
23510W        W39644  16.475  17.497   1.664  0.0184 -0.0618 -0.1523
23511W        W39645   3.304   9.928   4.060  0.0721  0.4315  0.0107
23512W        W39646  15.454  14.326   3.013  0.0612 -0.2450 -0.0125
23513W        W39647  13.238  10.176  10.868  0.0925 -0.0351 -0.1190
23514W        W39648   4.357   9.663  14.318  0.1631  0.1662 -0.5617
23515W        W39649  11.942  14.953  14.876  0.0092 -0.0143  0.1451
23516W        W39650   8.427   1.649  12.159  0.2466  0.3088  0.0992
23517W        W39651   1.341   4.504  12.215  0.5052  0.1167  0.3126
23518W        W39652  17.873  11.279  14.198  0.0271 -0.3345  0.1047
23519W        W39653  14.291  13.886   5.878  0.0201  0.3765 -0.0983
23520W        W39654   6.310   5.819  14.574 -0.0719  0.1468  0.0654
23521W        W39655  16.752   3.248   4.805 -0.1118  0.0568 -0.1045
23522W        W39656   9.051   1.294  14.560  0.0391  0.1154 -0.0616
23523W        W39657  14.494   1.566  12.502 -0.2230 -0.0687  0.0247
23524W        W39658  17.419  16.576   6.081  0.1456  0.1097 -0.0529
23525W        W39659   8.739   9.517  13.738 -0.1809 -0.0546 -0.0668
23526W        W39660  16.327  10.844   4.467  0.2657 -0.0518 -0.3273
23527W        W39661   7.018   2.712   4.218 -0.1180 -0.2163  0.2774
23528W        W39662  16.874  16.869  15.828  0.0769  0.0110  0.0394
23529W        W39663   4.948   2.599   4.140 -0.1220  0.0785 -0.0247
23530W        W39664   2.009  14.331   0.322  0.0373  0.1272 -0.2898
23531W        W39665  14.901   5.200   3.310 -0.2667  0.2089  0.2476
23532W        W39666   9.766   8.518   5.146  0.0298  0.1787  0.1094
23533W        W39667  14.821  10.338   0.616  0.1857  0.0730 -0.1372
23534W        W39668   4.385   5.637   3.997  0.2250 -0.0564 -0.1196
23535W        W39669   8.735   4.769   2.110  0.2919  0.0417 -0.0570
23536W        W39670  14.662   1.889   4.146 -0.2071  0.2796  0.2091
23537W        W39671  17.645  13.110  15.671 -0.0070 -0.3025  0.0823
23538W        W39672  17.940   4.057  14.495 -0.0362  0.0773 -0.0711
23539W        W39673   5.006   8.134  12.199  0.0241 -0.1179 -0.0821
23540W        W39674   8.019  14.523  15.827 -0.3104  0.0421 -0.0638
23541W        W39675   2.781   1.322   2.369 -0.2624  0.1127 -0.1569
23542W        W39676   1.340  16.942   4.352 -0.3728  0.0168  0.0240
23543W        W39677   0.867   5.620  12.869  0.1878 -0.0292 -0.2393
23544W        W39678  14.585   7.545  14.743 -0.2480 -0.1976 -0.1396
23545W        W39679  10.124  16.348  16.114  0.4027  0.0709 -0.2256
23546W        W39680  10.982  17.936   0.945  0.0126 -0.1426 -0.0304
23547W        W39681  11.472  10.727  12.993 -0.0993 -0.2429  0.0029
23548W        W39682   0.549   0.191  12.640  0.2275 -0.1787  0.0533
23549W        W39683   4.881   5.517   0.995 -0.0607 -0.2896  0.1597
23550W        W39684   4.332   9.524   1.564 -0.0997 -0.0341  0.0912
23551W        W39685   5.631   3.856  12.827  0.1615  0.2280 -0.0940
23552W        W39686  15.311   7.151   2.341  0.1252 -0.1684 -0.2012
23553W        W39687   0.435   4.300  16.414 -0.0877  0.1127  0.0505
23554W        W39688  15.494   2.426   4.053  0.3332  0.2078  0.0430
23555W        W39689  12.290   7.588   2.005  0.0408  0.0317 -0.1139
23556W        W39690   3.835   9.817   2.752  0.1828 -0.1579  0.0297
23557W        W39691  11.724   7.671  15.881 -0.3304  0.1603  0.0016
23558W        W39692   7.279  16.296   2.668  0.3140 -0.1323  0.0547
23559W        W39693  17.381  12.772   3.743 -0.0932 -0.2352 -0.1482
23560W        W39694   4.350   8.521  13.769 -0.2329 -0.0374  0.1787
23561W        W39695  13.285  14.739  14.875  0.0640  0.0335 -0.3276
23562W        W39696  11.686  14.355   1.393 -0.0521 -0.1313 -0.3300
23563W        W39697  14.115   8.015   3.988 -0.1745 -0.3236  0.1830
23564W        W39698   2.921   5.513  11.565 -0.2453  0.1463  0.0137
23565W        W39699   8.515   0.404   2.519  0.1047  0.0892  0.3798
23566W        W39700  14.425   0.647  11.642  0.0222 -0.1212 -0.4480
23567W        W39701  17.312  14.041   0.565 -0.1633  0.1254  0.1062
23568W        W39702   7.178   8.537  11.047 -0.0794  0.2476 -0.3654
23569W        W39703  14.205   5.685   4.127  0.0865  0.0973 -0.0100
23570W        W39704   9.867  17.027  14.397 -0.0112 -0.2669 -0.1695
23571W        W39705  13.141   1.644  12.272  0.3441 -0.1404 -0.0673
23572W        W39706  16.877   3.253  14.396 -0.2896  0.1181  0.1003
23573W        W39707  10.143   7.288   5.769 -0.1231  0.3273  0.0152
23574W        W39708  17.458   3.556   5.268  0.1678  0.3290 -0.0028
23575W        W39709  12.991  12.884   0.857  0.1378 -0.2246 -0.0183
23576W        W39710  17.055   5.413   3.406  0.1558  0.0680 -0.0317
23577W        W39711   3.616   8.818  12.233 -0.0342  0.0172  0.1129
23578W        W39712  17.258   6.743   5.638 -0.2510  0.1331 -0.0816
23579W        W39713   9.970   5.493   3.997  0.0106 -0.0253  0.0364
23580W        W39714   3.266   9.246   0.135  0.1269  0.0795  0.1357
23581W        W39715   6.956   5.029   4.069  0.0804 -0.2096  0.3111
23582W        W39716   7.305  14.838   5.853 -0.0411  0.0350  0.0644
23583W        W39717   8.417  13.628   4.809 -0.1846 -0.1615  0.2972
23584W        W39718   2.519   1.550   4.998 -0.0093 -0.0783 -0.2763
23585W        W39719   8.245   4.526  13.358 -0.0833 -0.0903  0.1991
23586W        W39720  16.452   1.512   1.612 -0.0116  0.2128 -0.0437
23587W        W39721   4.020   3.512  13.738  0.0087  0.2653  0.0189
23588W        W39722   9.615   1.934   3.532 -0.2011  0.3071 -0.1243
23589W        W39723   2.449   9.522   5.153 -0.2829  0.0601  0.1014
23590W        W39724   6.307   7.026  13.246  0.0784 -0.1746 -0.0843
23591W        W39725   1.977  15.941   1.713  0.0055  0.0768 -0.0255
23592W        W39726   9.452  12.506   3.259 -0.4044  0.1723 -0.0680
23593W        W39727   0.498  14.712   2.814 -0.1741 -0.5112 -0.1395
23594W        W39728  11.094   1.514  16.457 -0.2491  0.2117 -0.2912
23595W        W39729   2.737  14.145   3.474 -0.1017  0.1036  0.0767
23596W        W39730  14.195  15.909   6.187  0.1129  0.0153  0.2258
23597W        W39731   8.553   7.416  15.792  0.1435 -0.0036 -0.1179
23598W        W39732  10.145   1.573  16.232  0.1660  0.1706  0.1753
23599W        W39733   6.783   8.057   2.412  0.1784  0.1061 -0.3378
23600W        W39734   2.726   7.732   4.321  0.1081  0.4683  0.1123
23601W        W39735  13.095  17.373  12.251 -0.0972 -0.3056 -0.2944
23602W        W39736   9.482   8.902   2.280 -0.0548 -0.0324  0.0012
23603W        W39737  15.994  17.011  11.807  0.1862 -0.2160 -0.1348
23604W        W39738  16.299   7.100   2.805  0.1922 -0.3215  0.2560
23605W        W39739  11.370  10.343  14.412 -0.3305  0.2850  0.3157
23606W        W39740  17.074   4.708  14.066 -0.0627 -0.4015 -0.1238
23607W        W39741  16.792  15.933   2.549  0.1187 -0.0306  0.0832
23608W        W39742  15.097   3.270   1.690 -0.2072  0.0767  0.1362
23609W        W39743   8.552  10.657  13.971  0.0022  0.0623 -0.0961
23610W        W39744   5.488  15.582  15.309  0.0636  0.0989 -0.0511
23611W        W39745   3.098  17.082  13.771 -0.0258  0.0755  0.0161
23612W        W39746   3.387   7.538   5.113 -0.1500 -0.0012  0.1839
23613W        W39747  12.602   1.735   2.687  0.3138 -0.0273  0.0649
23614W        W39748  11.230  13.813   1.570  0.1367 -0.0969 -0.1141
23615W        W39749   6.165   8.112  12.186 -0.1289 -0.4022  0.2030
23616W        W39750   1.061  12.172  15.235  0.0503 -0.1691  0.0444
23617W        W39751   3.569  15.909  15.153 -0.3124  0.1416  0.0668
23618W        W39752   7.639   5.943  13.197 -0.1952 -0.3305  0.1141
23619W        W39753   9.478   3.548   5.516 -0.0114  0.1919 -0.0712
23620W        W39754   3.228   1.738   3.777  0.0106  0.1009  0.1980
23621W        W39755   7.104   7.028   4.989 -0.0424 -0.2668  0.2371
23622W        W39756   2.598   6.033  12.311  0.2516 -0.2089  0.0877
23623W        W39757   0.466   3.348   4.498 -0.1191  0.5227  0.0172
23624W        W39758   2.215   3.189  10.752  0.1408  0.3278 -0.0728
23625W        W39759   6.441  14.603  11.438  0.0594 -0.1593  0.0338
23626W        W39760  11.744   4.448   5.293 -0.1553 -0.2009 -0.1300
23627W        W39761   9.640   8.108   4.029 -0.0286  0.1511  0.1590
23628W        W39762  16.730   6.120   4.748 -0.4560 -0.1367 -0.1489
23629W        W39763  10.055  11.476   1.557 -0.1130  0.0063 -0.2155
23630W        W39764   9.835   4.616   4.341 -0.1493 -0.0897 -0.0524
23631W        W39765   9.556  13.385   5.804  0.3082  0.1293 -0.2063
23632W        W39766  17.617   3.354   3.068 -0.1208 -0.2938 -0.0352
23633W        W39767   1.332  12.488  11.608 -0.1702  0.0477 -0.2751
23634W        W39768  11.195   8.584   0.860 -0.0192  0.2672 -0.1391
23635W        W39769  12.917  15.247  13.159  0.3786  0.0528 -0.0256
23636W        W39770  11.708   0.879   0.908  0.1513 -0.0642 -0.0146
23637W        W39771   0.724   8.761  16.143 -0.0047  0.1933 -0.0747
23638W        W39772  16.854  11.026   4.464  0.1970 -0.0856  0.0331
23639W        W39773   4.554  16.295   1.601  0.3644  0.1723  0.0733
23640W        W39774   2.470  13.545   6.327  0.1715 -0.1842 -0.4296
23641W        W39775  11.569  10.467   3.152  0.0513 -0.1281  0.1606
23642W        W39776   7.193  12.321   2.994 -0.2395 -0.0088  0.3657
23643W        W39777  11.572   6.029  11.657  0.0982 -0.0472  0.0506
23644W        W39778  15.971   0.305   2.214  0.0754  0.0759 -0.0039
23645W        W39779   2.875  14.918  14.602 -0.2992  0.1193  0.0905
23646W        W39780  15.695   9.380   2.748 -0.3571  0.2148  0.0677
23647W        W39781   2.514  14.532  13.498 -0.0369  0.0780 -0.0795
23648W        W39782  11.942  16.867   1.051 -0.2349 -0.1097  0.0048
23649W        W39783   6.530   8.817  13.890  0.1662  0.1760  0.2022
23650W        W39784   3.297  11.693  11.436 -0.0951 -0.0477 -0.3500
23651W        W39785   7.002  10.463   1.115  0.0929 -0.0369 -0.1463
23652W        W39786   6.389  14.146   0.532  0.4951  0.1076 -0.0569
23653W        W39787  11.008  15.866   2.974 -0.1514  0.3484  0.0870
23654W        W39788  16.721   4.901  14.341  0.2565 -0.2332  0.0395
23655W        W39789   6.569   3.038   4.064 -0.1265 -0.0872 -0.0485
23656W        W39790   8.939   0.585   2.285 -0.0376 -0.1901 -0.0843
23657W        W39791   5.030  15.903   5.091 -0.2018  0.0306  0.1099
23658W        W39792   7.257   4.243  12.715  0.0188 -0.2749  0.0031
23659W        W39793  10.477   5.140   5.257  0.3428  0.0649  0.0000
23660W        W39794   9.204   4.915   1.870  0.0326  0.0382  0.0684
23661W        W39795  14.558  10.548   2.884  0.1184  0.2186 -0.2327
23662W        W39796   7.358   7.847  11.831 -0.0782 -0.1101 -0.2177
23663W        W39797  17.916   0.862   0.398  0.1406  0.4064  0.1710
23664W        W39798  18.026  15.632  13.023  0.0318 -0.1264  0.1157
23665W        W39799   2.151   1.177   2.994 -0.0131 -0.1860 -0.0293
23666W        W39800  15.396  10.233  12.053  0.0248 -0.0052  0.1503
23667W        W39801   0.912   5.248  11.348 -0.0630  0.1765  0.0431
23668W        W39802   2.558  10.950   0.587  0.3494 -0.0308  0.0550
23669W        W39803  13.695   5.069   0.641 -0.0787 -0.2496 -0.2785
23670W        W39804  12.485  10.877   0.788 -0.3040  0.0272  0.5546
23671W        W39805  15.862   7.348  15.639 -0.0846  0.6470 -0.0927
23672W        W39806   3.760  17.799   0.086  0.2127  0.0340  0.1616
23673W        W39807  14.986   3.222  11.242  0.1607 -0.0533 -0.0977
23674W        W39808  13.835  10.243   1.524 -0.0621 -0.0564 -0.0198
23675W        W39809  14.745   5.940  16.031  0.0790  0.2483 -0.0605
23676W        W39810  12.705  12.873  15.610 -0.2508  0.3317  0.0097
23677W        W39811   7.587   6.045   2.897 -0.4109  0.0440 -0.0535
23678W        W39812  14.394   3.469   2.595 -0.3837  0.0114  0.0632
23679W        W39813   0.008   3.576   4.416  0.2612  0.3332  0.1531
23680W        W39814  14.757   6.769   0.931  0.2177  0.0958 -0.1795
23681W        W39815   8.246  15.755  13.718 -0.3040  0.2531 -0.2302
23682W        W39816  15.312   7.368   4.627 -0.0165  0.2917  0.0863
23683W        W39817  11.881  15.886  12.264  0.0941  0.0643 -0.0953
23684W        W39818  14.589   2.605  16.057  0.0794  0.0152 -0.0963
23685W        W39819   2.904  15.377   1.025  0.1848  0.1601  0.2956
23686W        W39820   3.250   4.938  11.162 -0.0782  0.0078 -0.1623
23687W        W39821   8.367  13.974  12.306 -0.1579  0.3604  0.3907
23688W        W39822  16.003  12.016   3.580  0.1802  0.1762  0.1813
23689W        W39823  17.595   9.445   5.676  0.2564 -0.0213 -0.1095
23690W        W39824   9.140  14.759  11.428  0.0642 -0.1293 -0.4008
23691W        W39825  15.367  17.302   4.738  0.1002  0.2963  0.3632
23692W        W39826  11.943   9.921  13.066 -0.1015 -0.0272  0.2680
23693W        W39827   1.646  13.790  14.441  0.2414  0.0679 -0.3292
23694W        W39828  14.730   3.135   3.868  0.2930 -0.1610  0.2179
23695W        W39829   3.653  10.202   1.159 -0.2526 -0.2462  0.0834
23696W        W39830  14.308   7.734   3.503  0.0811  0.0052  0.1928
23697W        W39831  12.213   0.702   1.906 -0.0517 -0.1265  0.3040
23698W        W39832   0.153  11.998  13.366  0.0036  0.1194 -0.0031
23699W        W39833   0.822   6.484   5.570  0.0242 -0.1557  0.0629
23700W        W39834   5.602  12.863  14.935  0.0544  0.1043 -0.2748
23701W        W39835   0.834   6.780   4.758  0.1689  0.0106  0.1869
23702W        W39836  10.799  14.735   4.481 -0.3696 -0.2522 -0.0907
23703W        W39837   5.068  10.171   1.955 -0.0562  0.1793  0.2447
23704W        W39838  10.392  16.538  12.737  0.1609  0.3483  0.5293
23705W        W39839   3.495   8.325  12.082 -0.0170  0.4231  0.3176
23706W        W39840   2.278   8.134  14.890  0.0509  0.1244 -0.0210
23707W        W39841   0.807   9.000  12.059  0.1571 -0.3830 -0.0724
23708W        W39842  17.824  15.644  13.495 -0.1097  0.2350  0.1866
23709W        W39843  10.666  17.988  16.286 -0.2265  0.0498  0.2548
23710W        W39844   1.068  10.287  12.900 -0.0872  0.1457  0.1119
23711W        W39845  15.083   6.445   1.782  0.1487 -0.2085 -0.1431
23712W        W39846   9.802  12.211   2.256 -0.1353 -0.0987 -0.3805
23713W        W39847  10.135  18.113  16.329 -0.3798  0.0247  0.0038
23714W        W39848   3.321  15.631   6.047 -0.2144  0.2569  0.1772
23715W        W39849   6.575   2.622   2.579  0.3114  0.0585 -0.0745
23716W        W39850   0.510  17.731  14.110  0.0336  0.1753  0.3800
23717W        W39851  12.538   3.973  16.122 -0.1476 -0.1634 -0.0648
23718W        W39852   8.658   8.782   2.028  0.4864  0.1417 -0.0074
23719W        W39853  13.153  14.003  15.879 -0.0811  0.0495  0.0867
23720W        W39854  13.687   7.132  14.788  0.0402  0.2845 -0.3764
23721W        W39855  17.004   4.767   1.731 -0.0717  0.2729 -0.2398
23722W        W39856  16.327  14.848   0.522  0.1609 -0.1053 -0.2418
23723W        W39857  18.171   5.277  12.200 -0.1407 -0.3471  0.0833
23724W        W39858  14.159   6.586   2.178 -0.0567 -0.0287  0.3373
23725W        W39859   0.494   4.876  13.064 -0.0151 -0.0027  0.0766
23726W        W39860  14.009   3.229   3.282  0.0625  0.0499 -0.1533
23727W        W39861  17.901  10.515   0.355  0.0341  0.3760  0.0798
23728W        W39862  14.204   4.960   0.339 -0.0288 -0.3377 -0.0183
23729W        W39863   4.459   1.691   4.590  0.1288 -0.3733 -0.0254
23730W        W39864   1.748   5.515   1.118 -0.3404  0.2234 -0.0100
23731W        W39865  11.159   3.573   1.781 -0.3297 -0.1304 -0.2509
23732W        W39866   5.291   6.354  11.596  0.0905 -0.1207 -0.1709
23733W        W39867  17.991   5.458   1.062 -0.2131 -0.2906 -0.0114
23734W        W39868  14.289   1.645  14.795 -0.0349  0.0651  0.1141
23735W        W39869  12.551   3.361   4.031  0.3579  0.0724  0.1909
23736W        W39870   2.824  14.630   4.678 -0.0329  0.3595  0.1323
23737W        W39871  17.448  16.806  15.799  0.4908 -0.1027 -0.1914
23738W        W39872   0.707  18.011  12.919 -0.2428  0.1326  0.0289
23739W        W39873  16.500  11.649  14.377 -0.1186 -0.1167 -0.1186
23740W        W39874   1.032   6.576  12.598  0.0324 -0.0568 -0.0008
23741W        W39875   7.723   2.452  15.271 -0.3105  0.2350  0.0785
23742W        W39876  17.224   7.882  13.943 -0.0597 -0.3103 -0.0451
23743W        W39877  10.172   6.148   2.659  0.1116 -0.1659  0.0123
23744W        W39878  16.293   4.913  12.143 -0.0572  0.1435 -0.1289
23745W        W39879  10.492   1.760  13.824  0.1850 -0.1560 -0.2873
23746W        W39880  15.455   6.512  15.739 -0.2783  0.1652 -0.0084
23747W        W39881  12.420  15.662   2.648  0.0262  0.0112 -0.2561
23748W        W39882  11.247   3.398  11.992 -0.0819  0.1020 -0.1558
23749W        W39883   9.198   5.456   6.317  0.0969  0.0074 -0.0182
23750W        W39884   9.820   7.152   1.902  0.1176 -0.2293 -0.1311
23751W        W39885   9.431  10.861  12.851 -0.0743  0.3578  0.3358
23752W        W39886  17.423   7.001  13.586 -0.0793  0.0152 -0.3739
23753W        W39887  14.457  13.943  14.908  0.0573 -0.1066 -0.1791
23754W        W39888  16.944   5.928  13.279 -0.2560 -0.2020 -0.1116
23755W        W39889  11.096  17.111  16.274  0.0571  0.0895  0.1075
23756W        W39890  13.133   5.715  15.399 -0.1725 -0.1918  0.0309
23757W        W39891  14.610  12.502   1.581  0.1319  0.2411 -0.1310
23758W        W39892   9.052  11.876  13.997  0.0323 -0.1878  0.0269
23759W        W39893  15.676   4.604   1.287 -0.3939 -0.3582  0.0553
23760W        W39894   9.731   6.501   4.492 -0.1531  0.0845 -0.0745
23761W        W39895   2.350  11.488   0.384 -0.2303  0.1037 -0.0072
23762W        W39896   4.669   4.471  13.815 -0.0898  0.0743  0.1695
23763W        W39897  15.075  13.285   1.465  0.3690 -0.0653  0.1105
23764W        W39898   9.236  14.230   3.884 -0.1996  0.2192 -0.0128
23765W        W39899  16.759  14.117   0.279  0.2178  0.2411  0.0566
23766W        W39900  17.721   7.252   4.037 -0.1970 -0.0960 -0.4055
23767W        W39901  16.249  15.266  13.500  0.1910  0.1455  0.1816
23768W        W39902  11.501  11.733  13.099  0.1323 -0.1602 -0.0487
23769W        W39903   7.896  16.637  16.289  0.5142 -0.0139  0.0781
23770W        W39904   9.449   4.665   0.933  0.2328 -0.2194 -0.0635
23771W        W39905   4.393   2.086  12.117 -0.2233 -0.2416  0.1885
23772W        W39906   3.236  17.218  12.409  0.1774  0.3853 -0.1075
23773W        W39907   3.931   9.096  12.016 -0.0803 -0.1596 -0.1361
23774W        W39908  10.749  17.799   6.304 -0.0036  0.2378 -0.1166
23775W        W39909  17.318   8.338   5.045  0.0910 -0.2370  0.2652
23776W        W39910   5.069   6.311  11.144 -0.1330 -0.1125  0.0426
23777W        W39911   1.517  11.433  13.277  0.0487 -0.0173 -0.0731
23778W        W39912   8.705  13.699  15.945 -0.0125  0.0089 -0.1407
23779W        W39913  13.653   5.640  12.020  0.0621  0.0353  0.1167
23780W        W39914   9.141   8.269  12.392 -0.2648 -0.0175  0.3276
23781W        W39915   8.619  11.966   2.387 -0.1250 -0.0178 -0.3554
23782W        W39916  14.534   1.255   1.359 -0.1036  0.0761  0.0981
23783W        W39917   0.106   4.926   2.596  0.1674  0.3319  0.1812
23784W        W39918   5.549  17.679  12.243  0.5500  0.0019  0.1494
23785W        W39919  13.680  10.302   2.920 -0.2945 -0.1324  0.3802
23786W        W39920   8.842   3.651   6.159 -0.2007  0.0125  0.0352
23787W        W39921   3.616   5.057  11.991  0.0586 -0.2502 -0.2673
23788W        W39922   1.355   2.681   3.023  0.1839 -0.1317  0.2357
23789W        W39923  15.721  15.479  15.676  0.6585  0.1465  0.3410
23790W        W39924   6.767   2.545   3.365  0.1321  0.2003 -0.0030
23791W        W39925  17.883  12.739   0.952 -0.0274 -0.0231  0.2949
23792W        W39926   0.356   6.918  14.371  0.1539 -0.2970  0.0755
23793W        W39927   5.874   1.754  14.484  0.0668 -0.0423 -0.1644
23794W        W39928  11.688  11.982  14.370 -0.0354  0.0845  0.0446
23795W        W39929  16.939   2.446   3.910  0.0270  0.0480 -0.0942
23796W        W39930  10.716  12.646   0.820 -0.2637  0.0078  0.0713
23797W        W39931   4.168  17.735   5.632 -0.0447  0.0068 -0.0482
23798W        W39932  12.873   5.867  14.574 -0.0540  0.2063  0.1387
23799W        W39933   1.142  17.124   0.371 -0.2824  0.0748  0.1061
23800W        W39934   8.628   1.801  10.541 -0.1871 -0.0942 -0.0480
23801W        W39935   7.779  10.218  11.410  0.0485 -0.0592  0.0160
23802W        W39936   6.766  15.303  11.884  0.0184  0.1150  0.1759
23803W        W39937  11.381  16.217   1.615 -0.2482 -0.2783 -0.0817
23804W        W39938   3.266   8.995   0.995 -0.0848 -0.2228 -0.1411
23805W        W39939   8.279  14.324  13.069  0.0991 -0.3417 -0.1651
23806W        W39940   6.228   6.532  14.136  0.1439 -0.0439  0.1093
23807W        W39941   0.802   3.783   2.576 -0.0143 -0.0947 -0.3030
23808W        W39942   5.968  15.361  13.041 -0.1228 -0.1763 -0.0585
23809W        W39943  14.495  13.044   5.876  0.1196 -0.0583 -0.2237
23810W        W39944  15.720  12.421  11.712 -0.2901  0.1555 -0.1734
23811W        W39945   3.346   2.915  12.086  0.2683 -0.3082 -0.2700
23812W        W39946   5.205  10.984   3.965  0.2562  0.1841 -0.2718
23813W        W39947  13.546   3.753  13.323  0.1596 -0.1833  0.0505
23814W        W39948   1.666   5.377   3.649 -0.0503  0.1149 -0.0636
23815W        W39949   2.213  12.387   3.047  0.1869 -0.2990  0.1188
23816W        W39950  17.445  17.095  13.508 -0.1812  0.2264 -0.0077
23817W        W39951  15.076   5.719   4.032  0.0063  0.1708  0.1726
23818W        W39952  11.114   9.268  13.048  0.2001 -0.1737 -0.1157
23819W        W39953   6.432  13.544   0.308  0.0987  0.2678  0.3726
23820W        W39954   1.293   6.595  15.562 -0.1725  0.0879 -0.0001
23821W        W39955  15.731  17.663  15.695  0.1188 -0.2122 -0.0291
23822W        W39956   2.396   4.901  13.408 -0.0378  0.0750 -0.0178
23823W        W39957  11.591  11.411   4.651 -0.3014  0.5472  0.0256
23824W        W39958  11.823   2.324   4.511 -0.0103 -0.0690 -0.3930
23825W        W39959  10.408   7.604  11.620  0.1839  0.0084 -0.0850
23826W        W39960  13.223   6.225  11.225  0.0340  0.0703 -0.1076
23827W        W39961  10.245   2.278   4.701  0.4323 -0.0143  0.0277
23828W        W39962   6.825  15.417  14.709  0.1169 -0.0494 -0.1938
23829W        W39963   1.036   0.823  11.613  0.1577 -0.0699  0.1532
23830W        W39964   7.182  10.942  13.835  0.2125 -0.2300  0.0784
23831W        W39965  11.630  12.812   1.785  0.1844 -0.1683 -0.3337
23832W        W39966  10.587   5.443  15.785 -0.1190 -0.0609 -0.0145
23833W        W39967   0.979   3.297   3.541 -0.2294  0.0098 -0.2058
23834W        W39968   6.250  11.097  10.797  0.0311 -0.2935  0.1132
23835W        W39969  14.471   7.317  15.172 -0.1885 -0.1001 -0.2396
23836W        W39970   6.648  12.976   3.266  0.1151  0.3504 -0.2528
23837W        W39971  13.788   6.870   2.344 -0.1721 -0.1904 -0.1439
23838W        W39972   6.915   7.200   0.366  0.2271 -0.1044  0.0095
23839W        W39973  17.962   3.564   1.846 -0.1876  0.0837  0.2904
23840W        W39974   5.031  13.006  14.683 -0.0256  0.3323 -0.0084
23841W        W39975  16.061  10.400   5.142  0.0442  0.3013 -0.1241
23842W        W39976   5.002   8.063  10.748 -0.1182  0.0884  0.3250
23843W        W39977  11.914  12.014  13.297 -0.1841 -0.0341 -0.3692
23844W        W39978   9.933  14.661  14.277  0.2111  0.0808 -0.2173
23845W        W39979   0.844  11.287  11.878  0.0908  0.0600 -0.0302
23846W        W39980  11.026   0.407  15.120 -0.3928  0.0880 -0.0165
23847W        W39981  12.010  11.500   1.917  0.0060  0.0345  0.2810
23848W        W39982  12.556   2.364  11.779  0.2274 -0.4123  0.1655
23849W        W39983   8.685  11.241   3.133 -0.0316  0.0667  0.1165
23850W        W39984   5.301   9.078  15.354 -0.0329  0.0500  0.0603
23851W        W39985  14.015   8.362  14.588 -0.1044 -0.4187 -0.1162
23852W        W39986  10.921  12.213   0.654 -0.0377 -0.0899  0.2192
23853W        W39987  15.401  16.510   1.292  0.1734 -0.2775 -0.0337
23854W        W39988   0.306  14.002   5.210  0.1950 -0.2538 -0.0773
23855W        W39989   4.752   7.696  12.961  0.0231 -0.1787 -0.0410
23856W        W39990   4.478   7.307  12.699 -0.0019  0.0533  0.3163
23857W        W39991  13.670   3.922   5.409  0.0006  0.2019 -0.5487
23858W        W39992  16.079  10.895   5.092  0.1544 -0.1274  0.4550
23859W        W39993   3.476   5.441   4.320  0.0383  0.0429  0.2824
23860W        W39994  10.508  13.704   4.783 -0.1771 -0.1320  0.3285
23861W        W39995  17.950   2.132  14.291  0.0520 -0.0841  0.2988
23862W        W39996  10.731   0.963  13.278  0.1404 -0.3990 -0.1089
23863W        W39997   6.889   7.537   3.895 -0.1543  0.1127  0.2429
23864W        W39998  16.450   9.871   4.651  0.1186  0.3993 -0.1334
23865W        W39999   3.686  17.819   3.251 -0.0066  0.0498  0.2514
23866W        W40000   9.407   3.094   1.980 -0.2477  0.2211 -0.0113
23867W        W40001   5.872   6.487  11.140 -0.0826  0.0947  0.1672
23868W        W40002  16.898  15.326   0.735 -0.0441 -0.2325  0.1535
23869W        W40003  11.709   5.645   0.152  0.2366  0.2918  0.1102
23870W        W40004   9.896  15.149  11.865 -0.0555 -0.1617 -0.0118
23871W        W40005  14.052   6.771  15.732 -0.0195 -0.1448 -0.1108
23872W        W40006   0.956   9.833   1.613  0.1052  0.0597  0.0074
23873W        W40007   4.562  11.217  16.274 -0.1688 -0.1535 -0.1506
23874W        W40008  14.005   5.763  12.913 -0.1426 -0.1096 -0.0195
23875W        W40009  15.159   1.669   1.676 -0.1897  0.1637  0.0949
23876W        W40010  12.094  12.577  13.839  0.2547 -0.3592 -0.3468
23877W        W40011   5.202   8.570   2.968  0.1123 -0.1418 -0.2095
23878W        W40012  10.250  12.881   2.948  0.2834  0.2180 -0.1235
23879W        W40013   6.317  14.133   0.043  0.1573  0.4803 -0.3926
23880W        W40014  10.915  15.376   3.776 -0.1491  0.1812 -0.0339
23881W        W40015  12.886   9.564   3.089 -0.1192 -0.0158 -0.0273
23882W        W40016   3.175  17.088   5.473  0.0795 -0.3475  0.0309
23883W        W40017  17.395   6.158   0.456 -0.0247 -0.1425 -0.1136
23884W        W40018   5.722  15.147  15.312 -0.0353  0.2245  0.0337
23885W        W40019  10.843   1.907   1.469 -0.2439 -0.1692  0.3698
23886W        W40020   5.741  11.139   5.530  0.2602  0.0429 -0.1188
23887W        W40021   3.772   0.147   4.676  0.2001  0.3610  0.0343
23888W        W40022  15.452  17.986   2.757  0.0673 -0.2178 -0.1621
23889W        W40023  11.359   6.813   1.688  0.2596 -0.2808  0.1642
23890W        W40024  12.255   1.367   3.970 -0.0406  0.0045  0.0249
23891W        W40025   8.691  16.818  15.574  0.1296  0.1295  0.0786
23892W        W40026  10.272  11.017   0.424  0.3851  0.1591 -0.0621
23893W        W40027  17.228  10.896  15.290 -0.2448 -0.0958 -0.0826
23894W        W40028  16.826  12.998  15.356  0.1575 -0.2257  0.2123
23895W        W40029  17.261  14.474  16.209 -0.3111  0.0923  0.2214
23896W        W40030   4.155  14.967   4.573  0.1323 -0.0478 -0.0249
23897W        W40031   0.442  16.944   4.345  0.2951 -0.1358 -0.1589
23898W        W40032  11.306  15.166  13.849  0.1912  0.0990  0.3219
23899W        W40033  14.032  12.337  14.780  0.1044  0.2739  0.0511
23900W        W40034   4.567  10.296   2.814 -0.2225  0.2498 -0.0858
23901W        W40035  15.283  12.250  11.445  0.2134  0.0312  0.0007
23902W        W40036   5.592  17.056  15.818 -0.0041 -0.2668  0.1892
23903W        W40037  17.434   9.294   1.043  0.2491 -0.0966  0.2211
23904W        W40038   0.117   9.453   0.654  0.1921  0.0487 -0.1554
23905W        W40039   7.466  17.655   4.063 -0.1427  0.0749  0.1725
23906W        W40040   2.656   8.829  12.127 -0.1573 -0.0489 -0.3054
23907W        W40041   7.516   9.882   4.008 -0.2390 -0.1249 -0.2135
23908W        W40042  14.465  17.976   2.838 -0.4059  0.1788  0.0267
23909W        W40043  16.290  11.529  10.894 -0.2004 -0.2158 -0.0639
23910W        W40044   5.705  11.694  12.745 -0.0573 -0.1204 -0.1418
23911W        W40045   3.599  14.132   1.323 -0.3540 -0.0767 -0.2275
23912W        W40046   1.917  10.120  11.508 -0.2099 -0.2595  0.1072
23913W        W40047   8.383  16.589  15.200 -0.1408  0.1058  0.0103
23914W        W40048   6.948  10.015   1.317  0.1450 -0.2151  0.0196
23915W        W40049   5.098  15.365  14.074  0.1185  0.0414  0.0099
23916W        W40050  16.674   4.559  13.350 -0.1383 -0.0930  0.1130
23917W        W40051  10.296  15.246  10.922 -0.0374  0.1091  0.2590
23918W        W40052  10.630   4.040  13.317 -0.2159 -0.0613 -0.3047
23919W        W40053  14.479   7.708  11.250  0.2418 -0.1459 -0.1660
23920W        W40054   1.371   9.499  14.324  0.3138  0.0471 -0.0844
23921W        W40055  17.760   5.742  13.737 -0.0907 -0.0980 -0.2579
23922W        W40056   4.289   6.993  11.941 -0.0306  0.0851 -0.0242
23923W        W40057   2.166  15.021   2.980  0.1038 -0.3253 -0.0714
23924W        W40058  14.974  15.453   5.122  0.1487 -0.0533  0.2962
23925W        W40059  15.725   2.760   5.738 -0.2720  0.0743 -0.0232
23926W        W40060   4.177  10.020   2.430 -0.4458  0.1090  0.0232
23927W        W40061  12.286  11.956  14.278 -0.1265  0.0692 -0.0355
23928W        W40062   3.993  12.743   1.975 -0.0775 -0.1246 -0.0191
23929W        W40063   4.166   3.517  15.542  0.0204  0.1494 -0.1193
23930W        W40064  14.138   2.904  12.029  0.2476  0.0473 -0.1358
23931W        W40065   0.783  11.404   2.739 -0.3565 -0.1128  0.1392
23932W        W40066  15.161   6.607   2.327 -0.0568 -0.0247  0.3029
23933W        W40067   7.268   1.822   4.515  0.0637 -0.3470 -0.1022
23934W        W40068   7.830  15.745  16.037 -0.1176  0.0753  0.1969
23935W        W40069  13.961   2.217  13.059 -0.4280 -0.0566 -0.1600
23936W        W40070  16.390  11.766   3.240 -0.0647 -0.0079  0.0125
23937W        W40071  14.489   9.951  12.777  0.2851 -0.1390  0.2395
23938W        W40072   7.179  16.304  12.874  0.1939  0.0311  0.0220
23939W        W40073  16.295   7.856  11.594 -0.1155 -0.1210  0.0785
23940W        W40074   8.946  11.606   1.547  0.0326  0.0740 -0.1674
23941W        W40075  16.717  17.438   5.485  0.0001  0.0938  0.1565
23942W        W40076  10.703  11.912  14.912 -0.0312 -0.1758  0.1205
23943W        W40077   8.574  13.510   2.946  0.1397 -0.1148 -0.2191
23944W        W40078   5.582   4.608  12.251  0.1237  0.0171  0.0785
23945W        W40079  15.701   7.784  15.793 -0.0365 -0.0374 -0.0319
23946W        W40080   3.284   0.500  16.228  0.1623  0.1857 -0.1515
23947W        W40081   9.807  14.536  13.720 -0.1044 -0.1148  0.2895
23948W        W40082  10.976   9.957  15.418  0.1105 -0.0292 -0.0919
23949W        W40083   7.494   8.236  13.341 -0.1749  0.1668 -0.0258
23950W        W40084   1.010  10.623   2.116  0.0105 -0.1226 -0.1052
23951W        W40085  13.467  11.948   2.562  0.1208  0.2276  0.1243
23952W        W40086   4.501  13.026   4.996 -0.3454  0.1036  0.0412
23953W        W40087   3.654  10.723   0.004 -0.0239 -0.0649 -0.1048
23954W        W40088  13.845   6.909  16.153  0.2822  0.0517  0.0443
23955W        W40089   9.766   8.693   3.452  0.1586  0.1161  0.2356
23956W        W40090   6.688   2.565  13.117  0.2086  0.0831 -0.1511
23957W        W40091   5.829  18.015  13.030  0.0611  0.0452 -0.0341
23958W        W40092  12.546   3.227   5.417  0.2622 -0.1668  0.0277
23959W        W40093  15.953   6.122  13.445 -0.3879 -0.0626  0.0850
23960W        W40094   1.327   8.312   0.999 -0.2369  0.2633 -0.0506
23961W        W40095  15.017   0.480   1.181  0.0207  0.0141  0.0281
23962W        W40096  12.437   9.350  12.854  0.2261  0.1398 -0.5242
23963W        W40097   9.738   3.373   1.403  0.1480 -0.2072  0.1251
23964W        W40098  12.033  11.935   3.571  0.1791  0.2567  0.0734
23965W        W40099  16.101   8.711  15.413  0.4152 -0.2395  0.0738
23966W        W40100   8.603   1.478   4.358 -0.1222 -0.0614 -0.0187
23967W        W40101  15.005   2.922  12.184 -0.1258 -0.1017  0.1592
23968W        W40102   5.346  11.862   4.274  0.1189 -0.0012 -0.1286
23969W        W40103   2.712  13.159   4.670 -0.3127 -0.0682  0.1725
23970W        W40104  12.774  12.774  13.231  0.0832  0.0108 -0.1486
23971W        W40105   8.348   0.796  15.097 -0.0455  0.1669  0.1091
23972W        W40106   8.326  16.699  11.836  0.1263  0.1259  0.0168
23973W        W40107   6.718  17.699   0.238 -0.0052 -0.0819 -0.1235
23974W        W40108  15.119   6.814  11.376  0.1749  0.0300 -0.0953
23975W        W40109   5.392  18.007   2.766 -0.2170  0.0572 -0.0557
23976W        W40110  16.356  10.815  13.918  0.3702  0.1477  0.0973
23977W        W40111   5.429   3.052   0.725  0.0429  0.1113 -0.1387
23978W        W40112  11.191   9.758   5.078 -0.1368 -0.1867 -0.0808
23979W        W40113   7.415   9.800  15.026  0.0503 -0.0702  0.3004
23980W        W40114  17.427  13.215   3.999 -0.1517 -0.1353 -0.1407
23981W        W40115  16.121  13.906  13.832 -0.0168  0.0352  0.1142
23982W        W40116   1.519  17.723   1.445 -0.1381 -0.1679  0.4077
23983W        W40117   8.752   6.794  12.361 -0.1158 -0.0727 -0.3524
23984W        W40118   0.231   1.593   0.694 -0.2319  0.0663 -0.2249
23985W        W40119   4.803  18.036   3.688 -0.1891 -0.1177  0.2845
23986W        W40120  13.397  10.106  16.195  0.1031 -0.1726 -0.0141
23987W        W40121   0.818  14.106   6.058  0.1745 -0.1961 -0.6113
23988W        W40122   6.359  15.124  13.459  0.0163 -0.3699  0.3709
23989W        W40123  13.480   1.156   0.989 -0.1055  0.0436 -0.0291
23990W        W40124   2.270   0.669   5.042  0.1666  0.2029 -0.1580
23991W        W40125  12.556  16.010  13.565  0.2019 -0.1192 -0.1795
23992W        W40126   7.366  11.607  11.380 -0.2407 -0.1648 -0.0216
23993W        W40127  15.396  15.098   0.847  0.4170  0.2092 -0.0602
23994W        W40128   1.980  15.040  12.145 -0.0342 -0.3576 -0.0439
23995W        W40129  13.719  15.177  15.978 -0.0910 -0.1911  0.0657
23996W        W40130  17.202  17.055   5.414  0.1428  0.4106  0.3126
23997W        W40131  13.509   9.179  15.738 -0.0967 -0.0491  0.0674
23998W        W40132   2.791   1.780  15.220 -0.1381  0.4294  0.0719
23999W        W40133  10.785   4.341  12.930 -0.1272 -0.1585  0.0522
24000W        W40134  13.995   9.561   1.018 -0.2975  0.3034  0.2018
24001W        W40135   2.687   4.113  15.027  0.2460 -0.1088 -0.1063
24002W        W40136   3.482   0.509  13.664 -0.0306  0.0428  0.2441
24003W        W40137   4.261  10.643   3.777  0.1519  0.1464 -0.0673
24004W        W40138   2.122   5.225  12.112  0.1092  0.2146  0.1052
24005W        W40139   9.368  15.375  13.395 -0.0547 -0.0633  0.2027
24006W        W40140   6.673  12.735   4.165  0.1513 -0.0792  0.2347
24007W        W40141  11.339   4.440  12.231 -0.0264 -0.1928  0.3992
24008W        W40142   4.161   6.060  14.340 -0.1202  0.1793  0.1513
24009W        W40143   5.483  15.138   2.210 -0.0253 -0.0797  0.1589
24010W        W40144  17.622  12.754   1.865 -0.0758 -0.2400  0.2059
24011W        W40145  14.160  16.038   5.687 -0.1133  0.1156 -0.1043
24012W        W40146  10.227  16.332   0.417 -0.1331 -0.0071 -0.2574
24013W        W40147  16.563  14.078  13.175  0.3781  0.1948 -0.2813
24014W        W40148   8.792   1.386   3.501  0.1424  0.1527  0.2706
24015W        W40149  17.750  16.239   5.418 -0.2528  0.0523  0.2686
24016W        W40150  12.270  14.164   4.313  0.2299 -0.3028 -0.2966
24017W        W40151   1.323  10.529  14.315  0.0320  0.3944  0.0920
24018W        W40152   4.642   3.778   2.750 -0.0222 -0.1468  0.1370
24019W        W40153   7.175   7.114  16.329  0.0127 -0.0356  0.3702
24020W        W40154   9.782   1.592  13.007 -0.3063  0.0825 -0.1071
24021W        W40155  12.690   0.905   0.823  0.0713  0.1824  0.0858
24022W        W40156   4.724  15.493   1.976  0.2363 -0.3346 -0.2000
24023W        W40157   5.575   2.474  15.648  0.0261 -0.3742 -0.1376
24024W        W40158   0.339   1.916  14.344  0.0913  0.0054 -0.2607
24025W        W40159   7.907  11.137  15.134 -0.1997  0.1629  0.3612
24026W        W40160   0.708   5.757  15.543 -0.1264 -0.0226  0.1814
24027W        W40161  17.145   8.292   4.222  0.1891  0.0366  0.2292
24028W        W40162  14.105   0.629   4.841  0.0951  0.1385  0.0518
24029W        W40163  13.631   0.313   5.693 -0.1743  0.1268 -0.0033
24030W        W40164   6.825   7.607  11.128 -0.4746 -0.1152 -0.1202
24031W        W40165   2.492   5.506   2.912  0.1344  0.0719  0.1628
24032W        W40166  15.579  11.866  11.593  0.1338 -0.3561  0.0658
24033W        W40167   1.335  15.066  12.314 -0.0754 -0.1673  0.3890
24034W        W40168   2.336  11.840  15.465 -0.2555  0.0028  0.1306
24035W        W40169  14.455   0.125  13.636 -0.0497 -0.2391 -0.0820
24036W        W40170   8.789  11.908  15.258  0.1544 -0.0273 -0.3869
24037W        W40171   1.369  10.593  12.249  0.0413  0.0043  0.0328
24038W        W40172   2.556  12.364  13.920 -0.1446 -0.0226 -0.3416
24039W        W40173   2.161  12.291  15.533 -0.2280 -0.2067 -0.1011
24040W        W40174   1.777   5.743   0.541 -0.1940  0.2766  0.1942
24041W        W40175  12.213   7.817  15.535 -0.2404  0.1104 -0.1178
24042W        W40176  17.771   8.332  12.456  0.1475  0.1147  0.2936
24043W        W40177   4.865  17.738   2.832 -0.1394  0.6199 -0.1837
24044W        W40178   4.228  13.046  16.325  0.3243 -0.2775  0.0994
24045W        W40179  12.674   2.616   4.122 -0.4201  0.1239 -0.0854
24046W        W40180   7.936   2.594  16.515  0.1356 -0.3397  0.0234
24047W        W40181  10.987   6.824   4.401 -0.0827 -0.3022  0.0058
24048W        W40182   2.969   2.201   5.541  0.0592  0.1344  0.0713
24049W        W40183  17.416   3.976  11.186 -0.4790 -0.0098 -0.4041
24050W        W40184   3.051  13.501   4.068 -0.2420 -0.0024 -0.1894
24051W        W40185  16.468   4.095   2.934  0.0689 -0.4088 -0.1032
24052W        W40186  13.245  15.854   5.894 -0.0471 -0.2270  0.0469
24053W        W40187  12.359   2.268  14.106 -0.1326  0.0125 -0.2946
24054W        W40188  11.122   0.160   2.723 -0.1960  0.1034 -0.2752
24055W        W40189  14.847  16.519  15.651  0.0051 -0.0717  0.1278
24056W        W40190  17.322   7.876  12.995  0.0134  0.0706 -0.0178
24057W        W40191   0.071   1.951   3.931  0.0515  0.0391 -0.0108
24058W        W40192   5.799  10.099   2.635  0.1744  0.1207 -0.1845
24059W        W40193  15.493   8.870   5.719 -0.1253  0.1978  0.1121
24060W        W40194   3.350  14.851   1.725 -0.1688  0.2053  0.2883
24061W        W40195   3.426   5.042  15.022 -0.0203 -0.1273 -0.0440
24062W        W40196   9.267   8.162   1.226  0.2452  0.0650  0.0262
24063W        W40197  16.419   6.141  13.626 -0.0137 -0.0443 -0.2318
24064W        W40198   7.309   9.037  15.583  0.1202  0.1771  0.0190
24065W        W40199  10.587  13.307  14.294  0.3096  0.0299  0.3169
24066W        W40200   3.942  14.376  12.782 -0.1578  0.1550  0.0216
24067W        W40201   4.133  16.101   0.878 -0.1141 -0.0451 -0.1740
24068W        W40202   7.875   4.702   1.222  0.0632 -0.0345  0.2516
24069W        W40203   2.543   3.200  13.353 -0.0302  0.2249  0.3915
24070W        W40204  10.576   4.812   2.621  0.3647 -0.5595  0.3538
24071W        W40205   4.437   4.381  11.379 -0.2164 -0.1623 -0.1943
24072W        W40206  10.979  10.073  13.463 -0.1363  0.2088 -0.1214
24073W        W40207  15.358   2.871  13.508 -0.2549 -0.1302  0.0308
24074W        W40208   9.783  10.602   1.350 -0.3467  0.0210  0.2252
24075W        W40209   1.067   0.436   3.823 -0.0885 -0.0976  0.0488
24076W        W40210  16.994   4.640   1.187 -0.2260 -0.0709 -0.0723
24077W        W40211   8.179   7.416  12.419 -0.2982 -0.0278  0.5208
24078W        W40212  14.235   9.219   4.021 -0.0211  0.0937 -0.3316
24079W        W40213  15.124   5.987   4.518  0.1207 -0.0511 -0.0265
24080W        W40214  14.775  10.592   1.553  0.3736  0.2092 -0.1358
24081W        W40215   7.993   5.775   1.789  0.1034  0.1995  0.1849
24082W        W40216   6.995   5.827  13.839 -0.0343  0.0021 -0.2585
24083W        W40217   2.329  10.064  11.922  0.2155 -0.2755  0.0529
24084W        W40218  10.406  13.028   0.780  0.0449  0.1095 -0.1231
24085W        W40219   9.600   0.790  13.447 -0.2034  0.3497  0.3703
24086W        W40220   1.309  13.007   0.554  0.0168 -0.0866 -0.1741
24087W        W40221   8.126   2.160   1.190  0.2483 -0.2777 -0.3737
24088W        W40222   1.537   1.357   0.390  0.0656 -0.2119 -0.2087
24089W        W40223  15.120  14.490  14.794 -0.1950 -0.2184  0.0586
24090W        W40224   8.269   7.847   0.012  0.1929  0.1433 -0.0601
24091W        W40225   5.145   2.641   6.032  0.3972 -0.0737  0.0180
24092W        W40226   5.757  16.125  12.104 -0.1361 -0.0889  0.1937
24093W        W40227   9.194   0.940   3.456 -0.0988  0.1801  0.1547
24094W        W40228   2.538   7.992   3.072 -0.1208  0.2428 -0.0580
24095W        W40229  11.976   8.688  13.049 -0.0032 -0.0691  0.0367
24096W        W40230   8.349  11.655   2.736 -0.1757  0.1837 -0.1836
24097W        W40231   7.976   9.899  11.797  0.3483 -0.1761 -0.0684
24098W        W40232   9.675   4.744   0.424 -0.2189 -0.5492 -0.0079
24099W        W40233  12.304  14.880  14.481 -0.0673  0.0878  0.3543
24100W        W40234   9.731  17.947  15.415  0.0889  0.1074  0.2515
24101W        W40235   6.561  10.365  15.177  0.0747 -0.1985 -0.0438
24102W        W40236   4.153   9.387   5.060  0.0864  0.1900  0.3768
24103W        W40237   1.931   7.608   0.623 -0.2783 -0.0678 -0.0479
24104W        W40238   5.436  11.715  15.516  0.2099  0.2410  0.1157
24105W        W40239   8.251  14.314   4.035  0.0693 -0.0899 -0.0820
24106W        W40240  10.000   6.627   4.980  0.0582  0.3429 -0.0229
24107W        W40241  18.150  13.067   0.649 -0.2489  0.0588  0.1537
24108W        W40242   6.980  15.853  15.886  0.2765 -0.3657 -0.2963
24109W        W40243   9.967   9.767   0.121 -0.0774 -0.1167  0.0768
24110W        W40244  17.976  18.010   4.856 -0.1011 -0.2713 -0.1051
24111W        W40245  17.491  10.191   5.108  0.1448  0.0297  0.0181
24112W        W40246   1.509   8.141   1.473  0.0170 -0.1354 -0.1469
24113W        W40247  11.397  11.655  14.110 -0.2221  0.1786  0.0291
24114W        W40248   3.894   7.939  12.166 -0.0733  0.2372  0.0854
24115W        W40249   1.101  10.043  16.530 -0.1613  0.0713  0.1628
24116W        W40250   9.328  11.518  11.976 -0.2848  0.0421 -0.0743
24117W        W40251  17.468   6.018  15.426  0.1476 -0.2825 -0.4538
24118W        W40252  17.167  10.981  16.256  0.0687  0.0384  0.2245
24119W        W40253  15.757   9.887   0.601  0.2918 -0.0428 -0.2632
24120W        W40254   3.181  14.912   4.911  0.3925 -0.4458 -0.1537
24121W        W40255  12.415  15.514   3.145 -0.1465  0.0325  0.0260
24122W        W40256   9.591   5.573  14.092  0.4353  0.0241 -0.2850
24123W        W40257   2.786  10.238  11.841 -0.0293 -0.5747 -0.0016
24124W        W40258  13.639  18.072  15.741  0.1527 -0.1874  0.1117
24125W        W40259   1.341  12.055  16.113  0.2342 -0.3538 -0.0578
24126W        W40260   2.710   6.183   5.449 -0.0759  0.1522 -0.6129
24127W        W40261   9.303  10.248  12.972  0.0323 -0.2718  0.0851
24128W        W40262   9.361  16.646   4.516  0.0077 -0.0578  0.1186
24129W        W40263  17.530  17.551   2.254 -0.0710  0.2375 -0.3212
24130W        W40264   8.951   7.503  14.113 -0.0941  0.0349  0.2672
24131W        W40265   1.918  14.678   2.657  0.0550 -0.1792  0.0436
24132W        W40266   2.718  16.128   4.380  0.0437 -0.3050  0.0458
24133W        W40267  11.944   7.806   4.908  0.0951  0.3796 -0.1710
24134W        W40268   0.844  14.652  15.732  0.1148 -0.0375  0.0993
24135W        W40269  16.337   9.769  15.124 -0.3619 -0.0219  0.1270
24136W        W40270  10.762   8.919  11.429 -0.3370 -0.1420 -0.0537
24137W        W40271  16.965  13.076   1.772  0.1460 -0.4167 -0.0467
24138W        W40272   7.698   4.762  14.482  0.2155  0.0344 -0.0058
24139W        W40273   0.184  16.098   5.117 -0.2572  0.2468  0.0950
24140W        W40274   1.259   8.728   5.212  0.0872  0.4320 -0.2036
24141W        W40275   4.751  13.859   3.469  0.2479 -0.2796  0.3423
24142W        W40276   3.964  14.693   3.199  0.1902 -0.2669  0.3623
24143W        W40277  17.625   9.652  12.696  0.1301 -0.0167  0.0548
24144W        W40278   8.291  16.062   1.449 -0.3319 -0.1615  0.0868
24145W        W40279   4.593  14.980   1.869  0.0643  0.2017 -0.0140
24146W        W40280  14.201   4.759   4.009  0.0096  0.3033  0.0703
24147W        W40281  11.664  11.509   0.677 -0.3881 -0.5156 -0.0221
24148W        W40282  10.571   3.415  15.735 -0.1166 -0.1750 -0.2787
24149W        W40283   9.801   8.278   1.108 -0.2005 -0.0497  0.0877
24150W        W40284   1.778  15.789   0.501 -0.0676 -0.0607  0.1000
24151W        W40285   1.317  15.019   4.012 -0.2446  0.1605  0.1476
24152W        W40286  17.233  10.409   1.089  0.0814 -0.0171  0.0249
24153W        W40287  11.705   0.820  15.449  0.2027  0.0556  0.2172
24154W        W40288  12.919   9.792  14.911 -0.1455  0.0720 -0.0249
24155W        W40289   7.528   5.726   5.337 -0.2135  0.0009  0.0677
24156W        W40290   4.469   8.439  14.273  0.5423 -0.2139 -0.1880
24157W        W40291   8.348   2.082   0.783  0.1206  0.3546 -0.2701
24158W        W40292  13.201  10.654  12.725  0.1192  0.0027 -0.1650
24159W        W40293   9.609   7.756   3.708  0.0359  0.1548  0.1162
24160W        W40294   0.885  15.155   5.522 -0.0395  0.0119  0.2636
24161W        W40295  15.270  12.333  12.484 -0.1957 -0.0161 -0.2037
24162W        W40296  10.295  15.474   0.115  0.0280  0.0031  0.2984
24163W        W40297   1.319  12.238   0.042 -0.0211  0.2800 -0.5428
24164W        W40298  17.794   3.118  15.178 -0.1384 -0.0409  0.2342
24165W        W40299   4.005  16.353   0.409  0.1280 -0.1298  0.2770
24166W        W40300   9.011  10.468  15.467 -0.2973 -0.0612  0.2318
24167W        W40301   6.553  10.007   5.516  0.1385  0.1404  0.1217
24168W        W40302  16.744   3.804   3.839 -0.0690  0.3917  0.1088
24169W        W40303  18.061  11.740   5.732 -0.1406  0.0359 -0.0548
24170W        W40304   9.876   0.831  14.548  0.0768 -0.0526  0.0840
24171W        W40305   5.491   7.593   3.752  0.2813 -0.3719 -0.0968
24172W        W40306   7.392   9.335   0.799  0.1311  0.2367  0.1991
24173W        W40307  14.665   6.506   2.544  0.0742 -0.1321  0.0313
24174W        W40308  14.337   9.526   2.917 -0.1749 -0.1562  0.2041
24175W        W40309   8.480  14.436   0.568  0.0761  0.0341 -0.1288
24176W        W40310  10.067  14.263   1.944 -0.0543  0.2896 -0.0279
24177W        W40311  18.092   9.851  11.266 -0.2539 -0.0152 -0.1642
24178W        W40312  14.986   4.837  15.861 -0.1275  0.0488 -0.0586
24179W        W40313   0.611   5.324  12.560  0.2735 -0.2872  0.3369
24180W        W40314  10.467   5.083   4.061 -0.0495  0.1503  0.3033
24181W        W40315  16.410   4.152   3.896 -0.2740 -0.2004 -0.1061
24182W        W40316   0.397   9.829  14.087  0.0217  0.1354 -0.1719
24183W        W40317   4.848   5.395   5.018  0.0503  0.0339  0.0607
24184W        W40318  15.298   0.567   5.346  0.0445 -0.2192 -0.3073
24185W        W40319  12.212  16.751   2.686  0.1080  0.1598 -0.0206
24186W        W40320  14.057   2.079  12.507  0.0560  0.1043 -0.1906
24187W        W40321  17.014  13.072   1.283 -0.2318  0.1531  0.0672
24188W        W40322  12.359  17.008   3.211 -0.1473  0.1299  0.0995
24189W        W40323   9.874   8.416  11.540 -0.1940 -0.0194  0.0091
24190W        W40324   8.981   6.011  13.630 -0.1103  0.2399  0.2048
24191W        W40325   9.377  12.685  11.261  0.0079  0.0093  0.1497
24192W        W40326   0.544   2.027   3.787 -0.0412 -0.3319 -0.2514
24193W        W40327   4.438   7.918  13.521  0.0724  0.0665  0.0522
24194W        W40328  15.121  11.107   2.643 -0.0604 -0.1594  0.0286
24195W        W40329   6.909   3.774   1.691  0.0391  0.1522 -0.0394
24196W        W40330  10.566   3.438   2.898  0.2998  0.0545  0.2749
24197W        W40331  14.774  16.521  16.312 -0.0077  0.1609  0.0502
24198W        W40332  14.410   6.263  15.158 -0.0189  0.1702 -0.1580
24199W        W40333   7.932   6.060  15.030 -0.2092  0.0578 -0.1421
24200W        W40334   2.733  18.130  15.700 -0.0516 -0.1310 -0.1314
24201W        W40335  18.160   4.872   5.766  0.0722 -0.4254 -0.0782
24202W        W40336   4.628   1.016   2.290  0.0914  0.0753 -0.1844
24203W        W40337  17.597  12.606   5.639  0.1642  0.1034 -0.3813
24204W        W40338   5.641  12.988  14.400  0.0663  0.2827  0.1633
24205W        W40339   8.177   6.134   9.861  0.0643  0.1239 -0.0302
24206W        W40340   1.060   5.175   4.935 -0.1921  0.2580  0.0103
24207W        W40341   3.295   5.919   0.061 -0.0576 -0.0655 -0.1920
24208W        W40342   4.757  17.720   4.816  0.1732 -0.2590 -0.0633
24209W        W40343   6.406   7.750   3.763 -0.0140  0.0226  0.1488
24210W        W40344   7.551   8.917   2.067 -0.4046  0.2587  0.1272
24211W        W40345   6.305   1.139  14.416 -0.0382  0.0416  0.3355
24212W        W40346   6.514  17.548   2.420 -0.1340 -0.0448 -0.1811
24213W        W40347  15.773   5.121  12.423  0.3197  0.1717 -0.2521
24214W        W40348  11.489  16.036   0.145 -0.0188  0.1549  0.0733
24215W        W40349  16.088  15.656  13.910 -0.0930  0.1323 -0.0283
24216W        W40350  11.660  17.505   5.070  0.0059  0.0387  0.3105
24217W        W40351  17.510   8.196  10.090 -0.1779  0.1426 -0.1792
24218W        W40352  10.386  11.789  16.480 -0.3005  0.1975  0.1522
24219W        W40353   7.469  13.043   2.857 -0.0542 -0.1992 -0.1738
24220W        W40354  12.988   0.229   1.379  0.2604  0.0409 -0.2308
24221W        W40355   0.513   3.526  12.059  0.1926 -0.2495 -0.2191
24222W        W40356   9.710   3.617   0.924  0.0552 -0.0884  0.1824
24223W        W40357   0.487  12.737   3.989  0.0446 -0.0037  0.0247
24224W        W40358   6.331  12.381  13.404 -0.0542  0.0627  0.1123
24225W        W40359  10.393   2.860  13.086 -0.0397 -0.2700 -0.1303
24226W        W40360  14.246  13.186  11.736  0.0509 -0.0441 -0.1649
24227W        W40361   6.086  12.020   3.760  0.2005  0.2489  0.0599
24228W        W40362   1.708   1.510  14.260  0.1873  0.0186 -0.1708
24229W        W40363  14.970   1.769  12.399 -0.0513  0.3062 -0.2387
24230W        W40364  13.875  14.098   4.973  0.0158  0.0688  0.0396
24231W        W40365  13.214   5.668  14.906 -0.0798 -0.2600 -0.0229
24232W        W40366  16.487   1.601   4.266 -0.3772 -0.1155  0.0905
24233W        W40367   8.182  17.972   0.383  0.0823  0.1865  0.1031
24234W        W40368   1.682  11.866  15.646 -0.0808 -0.0277  0.2308
24235W        W40369  17.054   3.903  16.453 -0.1268 -0.3223  0.3397
24236W        W40370   1.713  10.470  11.224  0.1050  0.1011 -0.2631
24237W        W40371  13.971   0.518   4.231  0.2123 -0.2830  0.0100
24238W        W40372  10.535  11.470  13.934 -0.1823 -0.0953  0.0308
24239W        W40373  16.260  11.925  12.937  0.1735  0.1152  0.4731
24240W        W40374   3.020  14.216   0.410 -0.0587  0.0486 -0.2487
24241W        W40375   0.308   3.874  13.555  0.2102 -0.3420 -0.1871
24242W        W40376   9.218  12.945   1.511  0.0164  0.1649  0.0350
24243W        W40377  13.902   7.534   9.617 -0.1082 -0.0886  0.1215
24244W        W40378   4.037   3.422   0.746  0.0927 -0.1641 -0.0656
24245W        W40379   6.698  10.953   5.022  0.0939  0.4155 -0.1444
24246W        W40380   9.856  13.858  11.901  0.0705 -0.1801  0.0443
24247W        W40381  15.924   3.305   2.338  0.1665 -0.1336  0.1020
24248W        W40382   5.004  15.747   1.552 -0.0501 -0.0728  0.0523
24249W        W40383   0.998  13.518  13.943  0.0620  0.0645  0.2553
24250W        W40384   2.592   7.473   2.485  0.4084  0.3140  0.0863
24251W        W40385  10.034   8.680  12.520 -0.1397 -0.5281  0.0988
24252W        W40386   2.012  12.949  12.034 -0.2767  0.2374 -0.0667
24253W        W40387  17.010  17.569   4.505 -0.2719  0.0040 -0.0850
24254W        W40388  12.844  14.930  15.958  0.1527 -0.3408  0.2021
24255W        W40389  13.593  13.717   4.524  0.0435 -0.0856 -0.1615
24256W        W40390   3.474   2.037   1.404  0.1744  0.1299  0.2241
24257W        W40391  10.412   4.603  11.282 -0.0958 -0.1033 -0.1084
24258W        W40392  14.180   4.498  16.459  0.2588 -0.3658 -0.2679
24259W        W40393   9.108   6.114   1.176  0.0952 -0.0669  0.0955
24260W        W40394  14.572  12.055   4.875  0.1884  0.0530 -0.1140
24261W        W40395  10.335  10.005  16.325  0.1268  0.1863 -0.1332
24262W        W40396  16.949  14.140   6.111  0.0191 -0.1680 -0.0135
24263W        W40397  15.844   2.762  13.335 -0.0009  0.1142 -0.2434
24264W        W40398   5.017  10.481  16.260  0.2229  0.2167  0.1694
24265W        W40399  15.564   4.453   2.895  0.2785  0.1741  0.1914
24266W        W40400   9.002   1.826   4.424  0.3163 -0.1531  0.2213
24267W        W40401   9.457  12.741   5.173 -0.0713 -0.0105  0.2581
24268W        W40402  16.580   2.883   3.910  0.1642  0.0570  0.2333
24269W        W40403   7.669   1.845   4.140 -0.0762  0.0393  0.0286
24270W        W40404  14.041  16.963  15.459 -0.0406 -0.2082 -0.0522
24271W        W40405  15.614   8.798  12.268  0.4623  0.0466  0.0396
24272W        W40406   6.755   6.605   1.842  0.1676 -0.1830 -0.0066
24273W        W40407   2.613  11.507   3.730 -0.2504  0.0959 -0.1544
24274W        W40408   5.867   2.370  12.394  0.0216  0.1215  0.0564
24275W        W40409  15.952   5.870   1.698  0.1720 -0.1481  0.0301
24276W        W40410  14.334   5.476   4.676  0.3003  0.0647  0.1432
24277W        W40411  15.463  11.197   2.994 -0.2184  0.0996  0.0307
24278W        W40412  14.082   7.098  12.361  0.3724 -0.4923  0.0687
24279W        W40413  17.374  10.704   1.451 -0.2765 -0.4344  0.2457
24280W        W40414   5.257  17.937   5.331 -0.0139  0.3007  0.3086
24281W        W40415   6.546   0.871  12.552 -0.2959 -0.1617  0.4899
24282W        W40416   7.414   3.737   0.794  0.4660  0.1588  0.1844
24283W        W40417  13.891  13.892   0.928  0.4017 -0.1584  0.1808
24284W        W40418  12.568   8.133   0.696  0.2537  0.0841 -0.0770
24285W        W40419  11.672   9.190   2.699  0.1962 -0.1227 -0.0098
24286W        W40420   1.414  14.073   3.601 -0.2497  0.1227 -0.0195
24287W        W40421   0.520  17.653   3.250 -0.3336  0.0904 -0.2577
24288W        W40422   8.078   8.296  14.300 -0.0609  0.1826  0.1265
24289W        W40423   9.458   5.917  14.432  0.2119  0.1990  0.0053
24290W        W40424  16.455   5.941  14.673  0.0197 -0.0238  0.0471
24291W        W40425  15.111   1.567  12.849 -0.1130 -0.3087 -0.2013
24292W        W40426  11.687   8.048  11.639 -0.1935  0.0431 -0.0752
24293W        W40427   8.101  16.572   1.234 -0.1595  0.1934  0.1693
24294W        W40428  16.405  11.687  11.425 -0.3042 -0.0994 -0.3497
24295W        W40429   1.013   3.987  11.522 -0.0543 -0.0468  0.1404
24296W        W40430  16.145  16.418  14.232  0.0947  0.0385 -0.1864
24297W        W40431   0.084   9.707   1.121 -0.2883  0.4644  0.2137
24298W        W40432   4.416   4.306   0.871 -0.4302  0.2260 -0.0935
24299W        W40433   2.412   9.218  13.166 -0.0200 -0.1300  0.2177
24300W        W40434   3.767   6.179   0.786 -0.2285  0.3682  0.1881
24301W        W40435   1.022  11.959   5.219 -0.2384 -0.0908 -0.1875
24302W        W40436  16.872  13.582   3.567  0.1269  0.0998 -0.2307
24303W        W40437  17.015   0.156  13.826  0.1405 -0.1803  0.1024
24304W        W40438   5.096  16.025  16.112  0.3326  0.1160  0.1527
24305W        W40439  15.538  10.364  14.902 -0.3127  0.0513  0.0927
24306W        W40440   0.657  12.100  12.037  0.0967  0.3750 -0.0118
24307W        W40441   0.707   0.310   3.473 -0.2373 -0.0223  0.0561
24308W        W40442   3.338  17.620  14.382 -0.0107 -0.2056  0.1276
24309W        W40443  13.945   1.324   1.034  0.0337 -0.2867 -0.0516
24310W        W40444  12.742   5.484  14.260 -0.0546  0.0428  0.0727
24311W        W40445  17.675  13.552   4.952  0.0191  0.0193 -0.0436
24312W        W40446   4.729  10.985  13.824 -0.0781  0.0434  0.0294
24313W        W40447   4.904   8.897   1.281  0.0538 -0.2409  0.0414
24314W        W40448   0.740   5.873   3.630  0.0869  0.2389 -0.1805
24315W        W40449   0.454  14.183   3.485 -0.0110  0.0629  0.2478
24316W        W40450  12.844   8.481   2.241 -0.0511 -0.1008  0.0484
24317W        W40451  15.749  16.693  12.767 -0.1548  0.0484 -0.1406
24318W        W40452  10.037  16.166   5.092  0.0897  0.0947  0.1150
24319W        W40453   6.640  14.156   5.200 -0.1100 -0.0920 -0.0388
24320W        W40454  16.160  10.407  16.371 -0.0731 -0.0544 -0.1548
24321W        W40455  17.405   9.368  12.185  0.2047 -0.2670  0.0715
24322W        W40456  10.044   2.696   0.658  0.3879  0.0771  0.0883
24323W        W40457  15.275   4.343   1.008 -0.3092  0.3170  0.0757
24324W        W40458   4.582   8.589   3.608  0.1737 -0.2153 -0.1106
24325W        W40459  11.294  15.196   2.746 -0.0319 -0.1011 -0.0207
24326W        W40460  13.086   0.004  16.470  0.1928 -0.1296  0.0142
24327W        W40461  15.005   2.624   4.569 -0.0395  0.1740 -0.2175
24328W        W40462   0.733   4.788  12.058  0.1325 -0.0490  0.0665
24329W        W40463   2.831   7.824  12.667 -0.0558  0.1519 -0.1805
24330W        W40464  10.276   6.279   3.742  0.2229  0.1558 -0.1241
24331W        W40465   6.794   5.794   5.672  0.1473  0.1913 -0.2172
24332W        W40466  12.917   8.965  14.944  0.0650 -0.0845  0.1050
24333W        W40467   6.715   6.095   1.019  0.1691  0.0047 -0.0142
24334W        W40468  15.768  17.963   3.611  0.0577  0.1906  0.0306
24335W        W40469  13.404   1.636  13.834 -0.1161  0.2432  0.0040
24336W        W40470  11.524  12.611  13.772 -0.0257  0.0825 -0.2527
24337W        W40471  11.166  18.094  13.422  0.0386  0.3616  0.1649
24338W        W40472  11.684   2.399  14.678 -0.0465 -0.1379  0.2044
24339W        W40473  14.932   9.678  12.667  0.2412 -0.3694  0.1530
24340W        W40474   8.980   8.990   0.556 -0.1019  0.0710 -0.1003
24341W        W40475   0.617  16.219   4.885 -0.1218 -0.1990 -0.2322
24342W        W40476   6.958   0.520   5.130  0.0978 -0.1573 -0.0727
24343W        W40477  11.325  15.837   4.245 -0.0024 -0.4133 -0.1418
24344W        W40478  14.543  17.104  14.582  0.2232  0.2507  0.0677
24345W        W40479   1.726  13.556   1.224  0.5800 -0.1029  0.0015
24346W        W40480   0.473   2.890   0.811  0.0985  0.1210 -0.0028
24347W        W40481   9.008  12.379   0.098  0.2458  0.0266  0.5217
24348W        W40482  13.280   1.611   2.962 -0.2706  0.4241  0.4008
24349W        W40483  14.944  15.281   0.619 -0.0455 -0.2532  0.0930
24350W        W40484  16.541  10.731  16.458  0.2769  0.0527  0.2209
24351W        W40485   3.488  14.805   3.238 -0.1490  0.0820  0.2389
24352W        W40486   2.637   6.032  13.131  0.1389 -0.1731  0.2234
24353W        W40487   8.616   1.876  12.773  0.1234 -0.1589  0.0999
24354W        W40488  10.103  10.143  10.634 -0.0002 -0.0663  0.1875
24355W        W40489  13.638  14.150   3.490  0.4676  0.0279  0.0902
24356W        W40490   6.423   9.134   4.711  0.0137 -0.0433  0.1300
24357W        W40491   8.782  14.735   5.583 -0.0326  0.1090 -0.2028
24358W        W40492  14.996  15.186   6.256  0.0121  0.0483  0.1595
24359W        W40493  15.724   1.075   4.577  0.2074  0.1730  0.2059
24360W        W40494   7.668   9.174   1.150 -0.2781  0.2049 -0.2460
24361W        W40495  17.476   7.980  15.676 -0.1433  0.1067  0.1885
24362W        W40496  16.286   3.209   5.122 -0.2848 -0.3901  0.2624
24363W        W40497   2.673  17.321   5.905 -0.0987 -0.0206 -0.0483
24364W        W40498  17.108   0.403   3.443  0.3015 -0.1119  0.0939
24365W        W40499  16.286   5.663  13.562 -0.0015  0.1086 -0.1229
24366W        W40500   9.756   5.606  15.634  0.0547  0.2233  0.1505
24367W        W40501  15.487  11.227  13.638  0.1540 -0.1531  0.0100
24368W        W40502  15.985   8.627   1.109 -0.0697  0.2264  0.2264
24369W        W40503   0.152   2.876   4.591 -0.1531  0.2205  0.2595
24370W        W40504   1.490  16.338  14.071 -0.3765 -0.0545 -0.1328
24371W        W40505   1.222  14.125  12.321  0.2215 -0.0641  0.3066
24372W        W40506  17.662   1.882   3.849 -0.2275 -0.3230 -0.2239
24373W        W40507   4.593  17.630  13.686  0.0507 -0.2081  0.2171
24374W        W40508  15.278  14.281   2.258  0.1986  0.0853  0.0769
24375W        W40509  12.302   2.337   5.012  0.0926 -0.0783 -0.0309
24376W        W40510   5.447  11.528   2.818 -0.2933  0.0495 -0.0603
24377W        W40511   9.167   2.060   1.453 -0.1357 -0.0103 -0.1322
24378W        W40512  14.429  10.973  11.440  0.2776 -0.0319  0.1364
24379W        W40513  13.673   4.092  11.453  0.1340  0.0068 -0.0492
24380W        W40514  13.661   4.320  16.480 -0.0690  0.3232  0.0565
24381W        W40515  16.990  10.107   5.323  0.1340 -0.0644  0.1198
24382W        W40516   2.750  13.094  16.402  0.2163  0.0756 -0.1387
24383W        W40517  11.132   4.964   4.564 -0.0683 -0.1369 -0.0141
24384W        W40518   2.745  13.843  14.266  0.1487 -0.2970  0.0324
24385W        W40519   0.108  14.450  13.584  0.1483 -0.1255 -0.0425
24386W        W40520   9.627   9.045   1.239  0.0474  0.0767  0.1893
24387W        W40521   3.730  16.789   3.684 -0.0091  0.4541  0.0351
24388W        W40522  18.018   1.406   3.760 -0.3509 -0.1080 -0.2258
24389W        W40523   9.268  17.340   0.332 -0.2143  0.1065  0.0242
24390W        W40524   6.246   8.329  15.443 -0.0614 -0.0822 -0.1325
24391W        W40525  13.028   2.354  12.727  0.1453 -0.1851 -0.0669
24392W        W40526  10.145  10.820  13.410 -0.0726 -0.3826 -0.0371
24393W        W40527  17.123   3.794  13.569  0.1098 -0.3379  0.0601
24394W        W40528  10.280   7.361  15.332 -0.1799  0.0062 -0.2570
24395W        W40529   0.076   5.087  13.242  0.2545  0.0517 -0.0225
24396W        W40530   5.592  10.064  10.366 -0.0693  0.2914  0.0628
24397W        W40531  17.232   9.285  15.898 -0.2812  0.0055 -0.0360
24398W        W40532   3.128  15.392  13.957 -0.0920 -0.2333 -0.4166
24399W        W40533  12.721   3.523  15.503  0.0746  0.2568 -0.2254
24400W        W40534   3.506   8.151  13.357  0.0984  0.1937  0.1518
24401W        W40535   2.125  12.612   5.081 -0.0253 -0.4332  0.3103
24402W        W40536   7.249  17.541   3.040 -0.2690 -0.1115  0.0036
24403W        W40537  10.742  13.474  15.677 -0.0422  0.0379 -0.2644
24404W        W40538   0.273   0.496   2.107  0.4989  0.0379 -0.0438
24405W        W40539  14.809   4.254  13.869 -0.1286 -0.0628  0.0881
24406W        W40540  12.000   2.398  12.972  0.2011  0.0260 -0.1190
24407W        W40541  12.595  15.629  14.100 -0.0415 -0.0732  0.0788
24408W        W40542  14.259   8.888   2.132  0.0123  0.1081 -0.0497
24409W        W40543   1.121  14.151   0.772 -0.3632 -0.0740 -0.2575
24410W        W40544  10.035  13.830   5.145 -0.2644  0.1338  0.0244
24411W        W40545   2.287  16.297  16.450 -0.2221  0.0714 -0.2960
24412W        W40546   4.539   6.374   1.423  0.1991 -0.0492  0.6815
24413W        W40547   2.553   1.965  13.863 -0.2391  0.0769  0.1903
24414W        W40548  13.541   2.218   1.963  0.0924  0.0759 -0.0774
24415W        W40549   5.311  14.717  14.728  0.0944  0.0324 -0.0522
24416W        W40550   8.185   5.404   5.085  0.0909 -0.1029  0.0255
24417W        W40551  12.113   7.517  14.684 -0.3247  0.1763 -0.3191
24418W        W40552   9.430  16.869   4.076 -0.1416 -0.2338 -0.3695
24419W        W40553   6.284  10.702  12.243 -0.1491 -0.0250 -0.4355
24420W        W40554  13.045   2.372   1.768 -0.0148 -0.1657  0.0221
24421W        W40555   8.588   4.450  15.780 -0.0586  0.0006  0.0345
24422W        W40556  13.341  17.645  14.897 -0.0341  0.1498 -0.1880
24423W        W40557   6.313  12.123   0.112 -0.0920 -0.1800 -0.1984
24424W        W40558  14.201  16.601   4.143  0.3719 -0.0348 -0.0852
24425W        W40559  11.262  17.358  13.727  0.1029  0.1023  0.0830
24426W        W40560   8.436  11.138  13.790  0.0017  0.0986 -0.3814
24427W        W40561   4.295  15.055   2.805 -0.1087  0.0868  0.0678
24428W        W40562   5.283   3.662  12.421  0.1755 -0.2736 -0.0434
24429W        W40563   5.596  12.518  13.509 -0.4023  0.3327 -0.0287
24430W        W40564  12.492   3.160  12.454 -0.0827 -0.0220  0.0593
24431W        W40565  13.792   1.385   0.529 -0.1275 -0.4559 -0.2203
24432W        W40566  13.757  13.653   1.969 -0.0780  0.1361  0.1156
24433W        W40567   9.397  14.598   1.735  0.4493  0.2215 -0.2420
24434W        W40568   6.228   6.860   0.445  0.1983  0.2675  0.1153
24435W        W40569  17.849   6.920  12.082 -0.3044 -0.1145 -0.2749
24436W        W40570   2.767   9.797   4.861 -0.2020 -0.0825 -0.3182
24437W        W40571  14.006   2.323  11.718 -0.1815 -0.3072  0.2556
24438W        W40572   6.829   7.795  15.043 -0.1555  0.0316  0.4023
24439W        W40573   6.439  17.611   5.518 -0.2177 -0.1569 -0.1616
24440W        W40574   0.006  10.388   5.703  0.1403 -0.0238  0.2420
24441W        W40575   0.324   5.715   3.375 -0.0176 -0.1001 -0.0379
24442W        W40576  15.534   3.823  13.594  0.1418  0.2682  0.1800
24443W        W40577  12.493  17.025  15.663 -0.4247 -0.2061 -0.4084
24444W        W40578  11.763   5.272   5.786 -0.2058 -0.0632  0.1708
24445W        W40579   0.151  12.574  11.495  0.0465  0.0779 -0.2454
24446W        W40580   0.428   4.280  15.689  0.0741  0.1120  0.1277
24447W        W40581   3.138  15.107   3.997  0.1410 -0.2592 -0.2101
24448W        W40582   3.184   7.578   0.240 -0.1168  0.0357 -0.0887
24449W        W40583   1.577   3.984  13.681 -0.2111 -0.0777  0.0226
24450W        W40584   4.895   4.411  14.268 -0.1154 -0.3349  0.0318
24451W        W40585   2.136  17.196   2.924 -0.0338 -0.0619  0.2175
24452W        W40586   4.806   5.464   2.416  0.0969 -0.0651  0.1967
24453W        W40587  17.331  17.366  14.762 -0.2659 -0.3243 -0.0128
24454W        W40588  12.208  18.166   2.692  0.0812  0.0968  0.2339
24455W        W40589  13.951  14.863  12.059  0.0807 -0.1974 -0.0382
24456W        W40590   1.812   9.724   2.467  0.0595 -0.0642  0.3613
24457W        W40591  11.461   5.140   2.128  0.1061  0.0305  0.1337
24458W        W40592   8.802  17.317  12.376  0.1369  0.0414 -0.2644
24459W        W40593  17.098  15.989   4.577  0.0241 -0.0986  0.0501
24460W        W40594   3.676   5.826  13.440 -0.0269 -0.0171 -0.0449
24461W        W40595  16.938  14.406   1.311 -0.1348 -0.1448  0.3218
24462W        W40596  10.840  16.805   5.483  0.0482 -0.2901 -0.2138
24463W        W40597  10.609   0.679  11.850 -0.1969 -0.0452  0.0146
24464W        W40598   0.304   4.440  10.924 -0.0949  0.0577  0.0269
24465W        W40599  17.595   6.776  14.473  0.1728  0.1570 -0.0427
24466W        W40600  15.314  15.853   5.847 -0.1229  0.1055  0.2006
24467W        W40601   7.958  12.992   2.552 -0.0559  0.0655 -0.1750
24468W        W40602   1.440   7.054   2.465  0.3398  0.3519 -0.1223
24469W        W40603   5.895  18.016   1.251  0.1041 -0.0818 -0.2033
24470W        W40604   6.973  17.817  12.454 -0.1732  0.0650 -0.1606
24471W        W40605  12.070   2.654  14.267 -0.1608 -0.0694 -0.1998
24472W        W40606  11.984  10.209   3.964  0.3894  0.0610  0.0571
24473W        W40607   1.767  10.452   1.435 -0.0764  0.2448 -0.1488
24474W        W40608  14.928   0.508   4.277  0.3007  0.2694 -0.0237
24475W        W40609  11.449   3.253  15.658 -0.2408  0.0185  0.0399
24476W        W40610   5.307  12.046  14.621 -0.0263  0.2235  0.1850
24477W        W40611   8.856   2.726   2.691  0.1579  0.0894  0.0207
24478W        W40612   0.931   6.570  13.089 -0.0776 -0.3706  0.1049
24479W        W40613  10.145  13.260   2.117  0.1754  0.1148  0.0981
24480W        W40614   8.897   1.877  11.958 -0.1444  0.3462  0.3986
24481W        W40615   7.442  12.167  13.943 -0.2897 -0.1509  0.5609
24482W        W40616   7.305  11.059  13.058 -0.3160  0.4202  0.1830
24483W        W40617   4.412   6.109   2.369 -0.1070  0.2861 -0.1994
24484W        W40618  15.696   5.097   1.437  0.1577 -0.0287  0.0268
24485W        W40619   0.526  13.491  14.973 -0.1386  0.0182  0.0542
24486W        W40620   7.809   8.895   4.501  0.0629  0.0793 -0.0385
24487W        W40621   2.797   2.013  16.193 -0.0346 -0.3189  0.1325
24488W        W40622  11.215   5.024  14.131  0.2371 -0.3446  0.2726
24489W        W40623   5.631   1.925   4.577  0.0324 -0.1924 -0.0304
24490W        W40624   2.954  16.747  11.510  0.1938  0.3196 -0.1240
24491W        W40625   9.319  10.660   1.141  0.0400  0.0175 -0.0038
24492W        W40626   6.700  11.322  10.721 -0.0328 -0.0764 -0.0837
24493W        W40627   1.357   6.374   4.023  0.1696  0.3594 -0.0158
24494W        W40628  13.678   1.276   4.996  0.0279  0.2054  0.1176
24495W        W40629  14.128   8.784  14.913 -0.2896  0.2393  0.0363
24496W        W40630   7.307   6.468   2.876  0.1812  0.1948 -0.0442
24497W        W40631   2.636   3.705   5.741 -0.2273  0.2931 -0.0397
24498W        W40632  15.362   9.339  12.550  0.0513 -0.0948  0.0975
24499W        W40633   3.070  12.647  11.837  0.1665 -0.1881 -0.3184
24500W        W40634  12.649   6.643  15.822 -0.1650 -0.0317 -0.0713
24501W        W40635   6.016  14.216  13.818 -0.0216  0.2071 -0.1192
24502W        W40636   5.635  13.988  11.177 -0.1441 -0.0502  0.0187
24503W        W40637   5.648   9.459  10.360  0.1480 -0.2679  0.1433
24504W        W40638   9.018   3.617  16.305  0.0788  0.1009 -0.1212
24505W        W40639  15.208   6.356  16.223  0.3862 -0.3674 -0.0024
24506W        W40640   3.580   1.251   2.092 -0.0871  0.2875 -0.2109
24507W        W40641  13.245   4.855  13.731  0.0591 -0.0723 -0.3828
24508W        W40642   4.737  10.228  14.905  0.1019  0.2234 -0.1684
24509W        W40643  17.781   4.792  16.489  0.0847  0.2766  0.1521
24510W        W40644  16.507   0.805  12.123 -0.0210  0.1060  0.1055
24511W        W40645   0.478  10.380  11.224  0.1180 -0.1695  0.1127
24512W        W40646  10.905  10.938   5.517  0.0809 -0.1083  0.2370
24513W        W40647  10.361   3.881   2.643 -0.0425  0.0904 -0.1153
24514W        W40648   1.231  10.200  15.102 -0.3087  0.1295  0.0374
24515W        W40649  11.151  12.156  15.015  0.2074  0.2185 -0.2772
24516W        W40650  11.454   8.881   3.208 -0.0530  0.0943 -0.0930
24517W        W40651   0.449  16.446  12.438  0.0865 -0.2596 -0.2513
24518W        W40652  17.656  15.516  13.947  0.1761 -0.1179  0.0718
24519W        W40653   1.497   8.395  16.388  0.0910 -0.1843  0.0410
24520W        W40654  15.523  17.196  15.423 -0.0116 -0.0767  0.0018
24521W        W40655   8.400  15.337  12.697 -0.0948 -0.2662 -0.0414
24522W        W40656   9.138   3.453   2.131  0.2481 -0.0886 -0.1490
24523W        W40657  15.353  11.305   2.192 -0.4776 -0.3207  0.0911
24524W        W40658   9.678  11.280  16.301  0.0477 -0.1583 -0.3314
24525W        W40659  13.343   1.686   3.553 -0.0819 -0.2726 -0.0519
24526W        W40660  10.416   4.398   2.318 -0.2945  0.0078  0.1121
24527W        W40661  10.713   6.588  12.149 -0.0594 -0.2345 -0.3393
24528W        W40662  12.279  14.379  12.548  0.3225  0.0899 -0.0971
24529W        W40663   0.931  17.584  12.038  0.0724  0.2255 -0.4019
24530W        W40664   2.543   2.140  13.420 -0.3289  0.1464 -0.1325
24531W        W40665   5.200  13.747   5.129 -0.0287  0.1516  0.0313
24532W        W40666  13.288   7.913   3.757  0.1255  0.1341  0.0245
24533W        W40667  16.000  11.397   2.957 -0.2224 -0.0645  0.0992
24534W        W40668  13.030  13.941   4.945  0.0560 -0.3031 -0.0934
24535W        W40669  16.794  14.510   4.883 -0.1676  0.3040  0.2413
24536W        W40670   9.782  12.509  13.748 -0.0097  0.0442  0.0913
24537W        W40671   1.465   9.123   3.425  0.0483  0.0992 -0.0938
24538W        W40672   0.495  15.015   2.380 -0.2675 -0.3694  0.1244
24539W        W40673   0.452  13.462   4.990  0.4309  0.1441 -0.0984
24540W        W40674   6.779   9.744   2.585 -0.1705  0.0817 -0.0930
24541W        W40675  12.987   9.162  14.272  0.2351  0.0161 -0.0174
24542W        W40676   2.617  16.563  13.067 -0.0149  0.1214  0.0020
24543W        W40677   2.601   5.456  15.066  0.1111 -0.0383 -0.2535
24544W        W40678  14.949  10.784  12.956  0.0947 -0.0957 -0.2393
24545W        W40679   9.274   6.811   2.587  0.3288 -0.1498 -0.3672
24546W        W40680   5.719   7.733  16.367 -0.2983 -0.0388  0.2521
24547W        W40681  10.911   4.251  15.329  0.0267 -0.0051  0.1408
24548W        W40682  12.257  16.144   6.202  0.4548  0.0897 -0.3693
24549W        W40683  14.083  15.353  14.358 -0.0722 -0.0772  0.1957
24550W        W40684  17.068   5.780   0.431 -0.0710 -0.0698 -0.1787
24551W        W40685  10.613   7.781  12.285 -0.1094  0.3340  0.0953
24552W        W40686  11.554   3.097  15.199  0.1288  0.0573 -0.0721
24553W        W40687  13.007   7.742   0.710  0.0851  0.1016 -0.3323
24554W        W40688   5.683  10.272   2.058 -0.2809  0.0139 -0.1406
24555W        W40689   0.791  10.478   3.032 -0.1623  0.0168 -0.1705
24556W        W40690   4.040  14.310   5.208  0.0796  0.2123  0.0842
24557W        W40691   8.840   0.117   0.375  0.1623  0.0006 -0.2714
24558W        W40692  13.479  14.230   0.989 -0.2150 -0.2146  0.0092
24559W        W40693   4.480  13.951  13.751 -0.0294  0.4452  0.1603
24560W        W40694   3.234   0.443  12.283 -0.1566 -0.2440 -0.0250
24561W        W40695  10.618  17.530  12.612 -0.0399 -0.1306  0.2232
24562W        W40696  15.599  10.636   5.261 -0.1554  0.1625  0.1736
24563W        W40697  12.846  17.464   4.315 -0.3128 -0.0227  0.0209
24564W        W40698   5.117   0.507   1.390 -0.0784  0.0016 -0.3184
24565W        W40699  14.602  15.540   6.219 -0.0481  0.0576 -0.0028
24566W        W40700   3.667   9.071  14.200  0.2376 -0.1536  0.0098
24567W        W40701  15.739  13.909   0.624 -0.2414 -0.0990 -0.0779
24568W        W40702  15.130  14.566   2.731 -0.0172  0.1369 -0.1248
24569W        W40703   8.044  11.233  16.052  0.2301  0.5621 -0.0408
24570W        W40704  12.501  13.747   2.553  0.0535 -0.1699  0.1038
24571W        W40705  10.098   7.846   4.383  0.0359  0.0587  0.2315
24572W        W40706  13.559   5.038   3.275 -0.1631 -0.4546  0.0526
24573W        W40707   3.502   7.917   2.891 -0.0484  0.3164  0.0544
24574W        W40708  17.903   7.375  12.306 -0.1738 -0.2093  0.1058
24575W        W40709  10.683   7.151  12.047 -0.0710 -0.1832  0.1403
24576W        W40710   1.195   8.767   5.704  0.1458  0.0004 -0.0895
24577W        W40711  16.191   7.094   1.062 -0.2361 -0.4355 -0.1645
24578W        W40712   6.575   4.670   1.471  0.5065 -0.2993  0.2160
24579W        W40713   6.846   7.765  16.192 -0.0084 -0.1435 -0.4107
24580W        W40714   3.164   2.277  15.947 -0.1092 -0.0294 -0.1503
24581W        W40715  10.941  13.352  11.599 -0.2504 -0.0718 -0.0884
24582W        W40716  14.140   7.110  14.017 -0.1450  0.1321 -0.1654
24583W        W40717  16.468  15.170   0.925 -0.1029 -0.1206  0.0281
24584W        W40718   8.097  16.638  14.318  0.0264  0.1304 -0.1131
24585W        W40719  16.829  14.922  13.044  0.0236 -0.3516  0.0548
24586W        W40720  11.738   6.652  16.007 -0.1427 -0.1204  0.1777
24587W        W40721  14.643  16.894  16.003  0.1395 -0.0034 -0.1416
24588W        W40722  13.685  11.026  15.672 -0.1401  0.0709  0.0420
24589W        W40723   1.298  11.761   3.951 -0.2026 -0.0601 -0.3443
24590W        W40724   4.643  16.595  12.394  0.2074  0.0893  0.0403
24591W        W40725   7.341   3.588   5.022  0.1235  0.0405  0.2807
24592W        W40726  14.267   6.062  15.892  0.0901  0.1160  0.0146
24593W        W40727  10.365   2.094   0.451 -0.0288  0.0587  0.0663
24594W        W40728  13.570  14.330  15.750  0.1942 -0.1665  0.4061
24595W        W40729  17.201  11.562  12.026  0.2961 -0.0483  0.0464
24596W        W40730  12.817   1.332   1.436  0.2267  0.0328 -0.1719
24597W        W40731   5.581   9.794   2.227  0.0240  0.1149 -0.1078
24598W        W40732   7.205  16.932  15.287 -0.2315  0.1813  0.1608
24599W        W40733  10.153  16.408   3.305  0.0774  0.0576 -0.2237
24600W        W40734   9.427   7.488   2.270  0.0655  0.0288  0.1827
24601W        W40735   3.223  14.813   0.592 -0.0365  0.1686 -0.4656
24602W        W40736   1.249  13.060  15.101  0.0432  0.2112 -0.0124
24603W        W40737  16.954  15.549   3.680 -0.0141  0.1654  0.1302
24604W        W40738  17.444  11.903   3.801  0.1193  0.1168  0.2030
24605W        W40739  17.833   5.440  11.920  0.2984  0.0208 -0.1905
24606W        W40740   8.383   4.062  13.602  0.1199  0.1227 -0.2804
24607W        W40741  10.867   4.740  16.175 -0.0440  0.1227 -0.2295
24608W        W40742   5.375  16.455  16.008 -0.0691 -0.1640 -0.1447
24609W        W40743   6.548   5.371   2.482 -0.0611  0.1455  0.4635
24610W        W40744   3.446  17.344  14.768 -0.0331 -0.1766 -0.1871
24611W        W40745   4.982   5.184  14.237 -0.0941  0.3092  0.1151
24612W        W40746  15.847   5.932  14.467 -0.4277  0.1373  0.1204
24613W        W40747  15.679   1.319  15.237  0.0072 -0.2544 -0.2233
24614W        W40748   2.992  13.560   1.040  0.2073 -0.0841 -0.2621
24615W        W40749  13.643  11.184  10.917 -0.2953 -0.1190 -0.2957
24616W        W40750  11.341   9.552  15.530  0.1840 -0.0413 -0.0385
24617W        W40751  16.820   8.829   2.866  0.0729 -0.0359 -0.1461
24618W        W40752   3.739   7.937   1.451 -0.1798  0.0209 -0.2579
24619W        W40753   7.251   0.781  13.626  0.0510  0.0327  0.3539
24620W        W40754   8.785   8.018  11.158  0.3420  0.1791 -0.0291
24621W        W40755  16.577  16.226   5.522  0.2681 -0.6166  0.0579
24622W        W40756   2.312  16.882  13.423 -0.2456  0.2105 -0.0872
24623W        W40757   3.991   2.582   3.755 -0.1581 -0.3258 -0.0070
24624W        W40758  10.804   2.439   5.836 -0.2790  0.1929 -0.1008
24625W        W40759   8.125   4.484  14.643 -0.0227 -0.0415 -0.1326
24626W        W40760   9.061  15.131   1.061  0.2236 -0.1461 -0.4208
24627W        W40761  10.395  12.808  13.919  0.1631  0.1125  0.1309
24628W        W40762   0.029   8.507   2.370 -0.1623  0.0902 -0.0588
24629W        W40763   5.562   8.118   4.673 -0.0392 -0.0489  0.0090
24630W        W40764   8.208   2.359   2.343  0.1108 -0.0841 -0.2055
24631W        W40765   3.898   6.443  14.248  0.0913 -0.0977 -0.0311
24632W        W40766   6.795   2.884   0.740 -0.0832  0.2436 -0.1342
24633W        W40767  15.922  15.362  11.879  0.0233  0.0609  0.0428
24634W        W40768  17.555  15.423   2.063  0.4355  0.1067  0.1088
24635W        W40769  12.046   9.119   3.034  0.2001  0.2201  0.0524
24636W        W40770  17.394  16.656   1.808 -0.0001  0.2185 -0.1896
24637W        W40771  15.116   8.775  12.525  0.4781  0.5775 -0.3269
24638W        W40772  16.321   3.434   0.658  0.3287  0.2164 -0.0240
24639W        W40773  10.662   4.988   4.809  0.3248  0.0023 -0.0932
24640W        W40774   1.551  12.807  13.426  0.0690  0.0627 -0.2140
24641W        W40775   7.959   7.062  13.846 -0.1163 -0.1986  0.1146
24642W        W40776   1.984   9.283   3.576  0.0793  0.2273  0.3278
24643W        W40777   0.126   0.396   6.086 -0.0005 -0.1777  0.3755
24644W        W40778  18.094   2.586  16.474  0.0812  0.1875  0.2041
24645W        W40779  15.167  15.575   2.530  0.2263 -0.0208  0.1603
24646W        W40780   6.940   9.534   3.854  0.1790 -0.0429  0.1841
24647W        W40781  17.356  16.701  14.431 -0.2085  0.1216 -0.1446
24648W        W40782  10.604  17.214  14.386  0.0206 -0.0254 -0.1411
24649W        W40783  16.384  18.160  16.071  0.3150 -0.1730 -0.2944
24650W        W40784   7.863   0.041  12.747 -0.1018  0.3372  0.0504
24651W        W40785  16.735   9.479  14.683  0.0822 -0.0918  0.2956
24652W        W40786  12.550   3.932   3.306  0.0187 -0.1022 -0.0627
24653W        W40787   1.210   3.698  13.395 -0.0109  0.0883  0.1969
24654W        W40788   5.708   7.761   2.008 -0.0672 -0.1032  0.1053
24655W        W40789   9.242  10.120  11.906 -0.0796  0.0621  0.0122
24656W        W40790   0.771  14.473   3.160  0.3099 -0.2641  0.0840
24657W        W40791  12.197  16.722  14.600  0.2626  0.1685  0.0924
24658W        W40792  11.577   7.910  12.169 -0.2240 -0.0358  0.2660
24659W        W40793   5.232   9.650  11.146 -0.0697  0.1039 -0.0746
24660W        W40794   4.068  10.202   0.702 -0.2487  0.1629 -0.1601
24661W        W40795  16.241   1.284   3.753  0.1763  0.0356  0.3427
24662W        W40796  16.277   6.841   1.680 -0.0060  0.0554 -0.0571
24663W        W40797  18.165   9.652  15.071  0.1804  0.0749 -0.1422
24664W        W40798   0.345  10.140   5.381 -0.3155  0.1779  0.0069
24665W        W40799   1.870  18.147  16.428  0.2735  0.1134 -0.1825
24666W        W40800   3.377  12.653   5.629  0.0276 -0.1193  0.1167
24667W        W40801   1.022  15.954   5.051 -0.0192  0.2037 -0.1352
24668W        W40802   0.124  17.957  14.311 -0.3371 -0.1193 -0.0583
24669W        W40803   6.643   4.400   3.379 -0.2627  0.2058 -0.0898
24670W        W40804   2.873   5.030  14.693  0.2610  0.1324 -0.3809
24671W        W40805  11.091  12.910   1.665 -0.3563 -0.1326 -0.5826
24672W        W40806  17.919   4.353   4.475  0.0567 -0.1044  0.0395
24673W        W40807  14.755  16.912   5.870 -0.1155 -0.1129 -0.0564
24674W        W40808   1.117  13.358   6.335  0.1301  0.0304 -0.0007
24675W        W40809   9.686  10.579  13.273 -0.0573 -0.0211  0.0637
24676W        W40810   0.330  14.583   0.255  0.5372 -0.1187  0.2837
24677W        W40811  14.841   4.813  11.718 -0.1136 -0.0592 -0.0094
24678W        W40812  16.731  17.999  14.789 -0.0022 -0.1269 -0.2156
24679W        W40813  15.953  14.456  16.375 -0.0841  0.0700  0.0477
24680W        W40814   2.658   4.041  13.544  0.1517 -0.1961  0.1278
24681W        W40815  12.263   8.395   1.546  0.2664 -0.2008 -0.1562
24682W        W40816   9.314   0.156   4.057 -0.2197  0.0849  0.1369
24683W        W40817   2.387  16.525   0.702  0.3203 -0.0492 -0.1649
24684W        W40818  12.900  15.093  14.882 -0.0719  0.0870 -0.0850
24685W        W40819   0.190   5.336   5.729  0.0215  0.0009  0.3148
24686W        W40820  16.243   6.910  15.729 -0.0987  0.3437 -0.0864
24687W        W40821  11.173  14.101   5.203 -0.2697 -0.2227 -0.1647
24688W        W40822  12.814  12.776   0.299  0.0715 -0.2661 -0.3160
24689W        W40823  16.774  13.181  15.816 -0.0635 -0.0854 -0.1371
24690W        W40824   8.058   0.697   2.135  0.2185 -0.0408 -0.1200
24691W        W40825  10.571   0.024   1.261 -0.1479 -0.1196 -0.0209
24692W        W40826  17.034  17.168   2.062 -0.1182  0.2262 -0.2051
24693W        W40827  13.963   5.596   2.237 -0.1541  0.0902  0.2213
24694W        W40828  10.892  17.760  12.987  0.1832  0.3762 -0.0410
24695W        W40829   7.975   6.819   0.813 -0.2094 -0.1323  0.1185
24696W        W40830   4.569   0.056   0.182  0.0703  0.1520 -0.2088
24697W        W40831   8.081   7.835  16.072 -0.2301 -0.0103 -0.1779
24698W        W40832  10.859   8.991  12.735  0.2585  0.0984  0.1800
24699W        W40833  16.502  17.236  13.628  0.1111 -0.1694 -0.2468
24700W        W40834  14.728  16.121  14.376  0.0512 -0.2197 -0.0388
24701W        W40835  13.337   9.984  14.711  0.1049 -0.1813  0.0095
24702W        W40836  11.489  14.646   3.798 -0.3851  0.3061  0.1362
24703W        W40837   5.488   2.842  15.975  0.2378  0.0172 -0.1784
24704W        W40838  18.117   9.619  12.731 -0.2986  0.2730  0.0828
24705W        W40839  16.987   2.917   0.482  0.0029 -0.4710  0.1238
24706W        W40840  11.631   1.558  13.459  0.0110 -0.0589 -0.3000
24707W        W40841  15.125   6.435  13.217  0.2860 -0.1780  0.0950
24708W        W40842  12.949   8.022   4.724  0.0636 -0.3014 -0.1884
24709W        W40843   6.081  12.236   5.437  0.0851  0.1991  0.4568
24710W        W40844   8.968  10.027   3.916  0.1035 -0.0176 -0.0316
24711W        W40845   4.836  17.292  13.387 -0.3563 -0.1996 -0.4079
24712W        W40846  11.272   4.064  15.722  0.3032  0.2411 -0.0432
24713W        W40847   5.124  14.072  12.708 -0.0157 -0.0360  0.2874
24714W        W40848  11.501  11.101  12.403  0.1302 -0.2100 -0.2060
24715W        W40849  10.630  15.545   5.093 -0.1042 -0.1473  0.0709
24716W        W40850  17.091   9.066   3.657  0.0059 -0.2678 -0.0372
24717W        W40851  15.711  14.166   6.038  0.0085  0.2684 -0.1610
24718W        W40852  10.849   1.554   1.139  0.1953 -0.3143  0.5734
24719W        W40853   8.835   9.516  12.744 -0.0946 -0.1505 -0.1075
24720W        W40854  11.099   9.074   4.353  0.2921  0.2083  0.2665
24721W        W40855  15.595   2.565   3.578  0.2780  0.2621 -0.2203
24722W        W40856   6.808   7.855  14.133  0.1464 -0.0337  0.2641
24723W        W40857   5.447  12.177  15.423 -0.1036 -0.2300  0.1221
24724W        W40858   2.449   2.449  12.560 -0.3393  0.2064  0.0447
24725W        W40859   5.543  16.099  15.289 -0.2886 -0.1390 -0.0800
24726W        W40860   8.934   8.075  11.932  0.2092  0.0462 -0.0829
24727W        W40861  13.350  14.258  13.950  0.1654 -0.1216 -0.3350
24728W        W40862  13.286   4.867  12.911  0.0719 -0.0982  0.4510
24729W        W40863  12.225   7.807   2.857  0.1725  0.3636 -0.0944
24730W        W40864   5.736   4.746  14.682  0.0949  0.0969 -0.3359
24731W        W40865   3.922  12.752  12.026  0.1336  0.0211  0.2877
24732W        W40866   8.516  15.295   4.240 -0.0638  0.0921 -0.1236
24733W        W40867   5.548  15.718   2.962  0.3844 -0.2100 -0.0749
24734W        W40868   4.403   1.127   1.093 -0.1564 -0.3218  0.0035
24735W        W40869  13.278   4.391  15.029 -0.0770  0.2907  0.0086
24736W        W40870   0.994   2.196   4.725  0.4166 -0.2693 -0.1005
24737W        W40871   5.727  14.692   2.218  0.0901 -0.2217 -0.2630
24738W        W40872   6.891   6.706   2.996  0.0214 -0.1177  0.2906
24739W        W40873   5.961  17.029   0.809  0.1232 -0.1401 -0.1392
24740W        W40874  14.054   6.726   2.751 -0.4487 -0.1239 -0.2261
24741W        W40875   8.845   4.803   0.988 -0.4173  0.3854  0.1051
24742W        W40876   1.294  10.451  10.956 -0.0769  0.1877  0.1234
24743W        W40877  13.938   8.483  15.375 -0.1575 -0.0454 -0.1208
24744W        W40878   7.905   1.133  13.223 -0.2195 -0.1577  0.0012
24745W        W40879   2.549  18.015  12.624  0.2635  0.0650  0.2888
24746W        W40880   1.148  14.366   5.334 -0.2182 -0.0904 -0.0351
24747W        W40881  17.973   4.849  14.084 -0.0242 -0.1143 -0.1236
24748W        W40882  11.149   4.783   1.977  0.0271 -0.1019  0.1750
24749W        W40883   3.524  11.275  13.798  0.0948  0.0971  0.2791
24750W        W40884   0.803   0.686  15.007 -0.0023  0.1491 -0.1746
24751W        W40885  14.630  17.673   1.097  0.0077  0.0243  0.1105
24752W        W40886   7.178   2.339   0.798 -0.0068 -0.0895 -0.2403
24753W        W40887  14.788  12.025  14.889  0.2051 -0.3715  0.0355
24754W        W40888  13.838   9.843  11.644 -0.0697 -0.0142  0.0559
24755W        W40889   2.939   5.239   3.036 -0.2531 -0.2512 -0.2110
24756W        W40890  11.791   7.542   4.488 -0.0709  0.0765  0.2706
24757W        W40891  17.211  12.644   0.177  0.1968 -0.0646 -0.0386
24758W        W40892  16.637  11.242   3.773 -0.2850  0.0381  0.0207
24759W        W40893  10.039   7.552  14.937 -0.2054 -0.0662  0.2103
24760W        W40894  12.532  16.496   5.822 -0.1495  0.2922  0.0132
24761W        W40895   1.190   1.851   1.731 -0.1510  0.0186 -0.0076
24762W        W40896   6.892   7.470   1.223  0.4472 -0.0504 -0.2877
24763W        W40897  10.425   9.661  14.108  0.0860  0.1551 -0.2725
24764W        W40898   1.504  13.417  15.343 -0.0358  0.1196  0.2887
24765W        W40899   2.765  13.843  13.484  0.2355 -0.2392 -0.0587
24766W        W40900   3.469   1.310   4.966 -0.1407  0.0408 -0.2014
24767W        W40901  13.833   1.330  12.946 -0.3719  0.3407  0.3509
24768W        W40902  16.682   1.076   5.829 -0.2667 -0.0039 -0.0924
24769W        W40903   4.963  11.370  15.107 -0.1280 -0.1074  0.2388
24770W        W40904  11.411   8.539  16.309 -0.2860  0.1828  0.0183
24771W        W40905  10.940  17.011   1.351  0.1851  0.1419  0.2939
24772W        W40906  13.309   8.403   0.893 -0.2253  0.1777  0.1948
24773W        W40907   1.913  17.016  11.691 -0.1151 -0.0187  0.0339
24774W        W40908   1.734   7.740   4.079 -0.1567  0.1643 -0.1759
24775W        W40909  13.925   0.266   5.255  0.0976 -0.1309  0.0231
24776W        W40910   1.171   3.588   2.830  0.0842  0.1251 -0.2924
24777W        W40911   0.105  10.709  11.487  0.0136 -0.1503  0.4289
24778W        W40912   4.510   0.138   0.735 -0.2340  0.0591  0.0979
24779W        W40913   6.619   1.276  13.537  0.0375  0.0334 -0.1019
24780W        W40914   2.892  15.694   4.548  0.2967 -0.0564 -0.0184
24781W        W40915   8.556  14.670   1.861 -0.0641  0.1945 -0.1493
24782W        W40916   1.747  17.489  11.697  0.2419  0.0948 -0.0978
24783W        W40917   8.317   2.367  15.112  0.0325 -0.2721 -0.2612
24784W        W40918  14.977   9.532  12.116  0.1082  0.1130 -0.2159
24785W        W40919   5.952   9.971  12.769  0.3007 -0.2984 -0.1023
24786W        W40920  11.782  11.845   2.278 -0.0613 -0.1956 -0.1792
24787W        W40921  14.345  15.546   5.784  0.2521  0.0045  0.0145
24788W        W40922   6.475  17.219  15.483 -0.2913 -0.1753 -0.0868
24789W        W40923  16.097   4.839  12.740 -0.0865  0.2785 -0.1485
24790W        W40924   0.539  15.755   5.029 -0.2979  0.0111  0.1308
24791W        W40925  12.377  16.507  10.849 -0.2773 -0.1400 -0.3049
24792W        W40926   7.575   5.510  15.693 -0.2132 -0.0855  0.0877
24793W        W40927  16.329   7.014  13.651  0.1207  0.0018 -0.0406
24794W        W40928   8.977  13.509   5.021 -0.1685  0.2207 -0.0551
24795W        W40929  15.025  11.011   1.961  0.0212 -0.3086 -0.0219
24796W        W40930   1.159   7.547  15.435  0.4554  0.1684 -0.0412
24797W        W40931  17.199  13.456  16.416 -0.0287 -0.0345  0.0086
24798W        W40932   9.724  17.896   1.707 -0.1732  0.0036 -0.1903
24799W        W40933   4.642   1.348  16.066 -0.0288 -0.1707  0.0105
24800W        W40934   7.672   4.940  13.326 -0.0199  0.2625 -0.0454
24801W        W40935  15.479   4.192   5.582  0.1394 -0.1622  0.3233
24802W        W40936   4.648  11.696   3.918  0.0929  0.0776 -0.2283
24803W        W40937  13.129   1.004  15.624 -0.1111 -0.0541  0.1029
24804W        W40938   2.212   6.503  12.350 -0.2119 -0.0140  0.2561
24805W        W40939  14.888   6.781  15.952  0.1123  0.1520 -0.0093
24806W        W40940   5.157   3.177  14.355 -0.2115  0.0525 -0.2215
24807W        W40941  17.727   1.756  13.986  0.0366  0.1056  0.0886
24808W        W40942   1.101   3.858  15.089 -0.0117 -0.0695 -0.1511
24809W        W40943  10.338  14.362  13.873  0.0482  0.2237 -0.2316
24810W        W40944   5.732   9.741  13.606 -0.0735  0.1659  0.0191
24811W        W40945  17.337   6.911  15.995  0.0534  0.0510 -0.3648
24812W        W40946   2.829   3.932   1.357  0.0367  0.1322  0.2321
24813W        W40947   4.290   6.571  14.477 -0.0321 -0.2157 -0.0607
24814W        W40948  10.749  10.976   0.328  0.1158  0.1070 -0.0340
24815W        W40949   6.377   4.857  16.388  0.1486 -0.0121  0.2168
24816W        W40950   0.391  11.470   1.559  0.0539 -0.2225  0.0465
24817W        W40951  12.966   2.619  14.770 -0.2814  0.3269  0.1566
24818W        W40952  14.329  12.332  11.971  0.0476  0.4118 -0.0120
24819W        W40953   4.428   3.098   4.984  0.2138 -0.1741 -0.1194
24820W        W40954  15.278   1.021   0.177  0.0596 -0.1774  0.2171
24821W        W40955   2.742   6.538  12.440 -0.0311  0.0190  0.1144
24822W        W40956   8.500   6.946  14.104  0.1106  0.1761 -0.0914
24823W        W40957   3.865  15.712   1.700 -0.0430  0.2117 -0.0844
24824W        W40958   0.136   8.034   2.032 -0.0223 -0.0503 -0.0957
24825W        W40959   7.895   9.200  11.110  0.0291  0.2148  0.0995
24826W        W40960   9.393  12.169  13.669  0.2147  0.3508 -0.2141
24827W        W40961  16.321   2.086   2.949 -0.0451 -0.1230 -0.0846
24828W        W40962  16.059  12.857   1.862 -0.2336  0.2380  0.0512
24829W        W40963   4.651   7.815   0.443 -0.0025 -0.2122  0.2344
24830W        W40964  12.946   4.867  16.491 -0.1076  0.3119  0.1458
24831W        W40965   0.950  15.404   5.062  0.2140 -0.1077 -0.0100
24832W        W40966   9.382  12.189   0.395 -0.2050  0.1450  0.1114
24833W        W40967  13.184   6.581   2.624  0.0905 -0.0744  0.3027
24834W        W40968   3.377  14.574  12.901 -0.0129 -0.0360 -0.3595
24835W        W40969  11.229  11.168  14.134  0.1500  0.0515 -0.1382
24836W        W40970   2.747  12.554   0.127 -0.3908 -0.2193  0.1323
24837W        W40971   4.842   6.674  15.131 -0.2779  0.0411  0.0966
24838W        W40972  17.098   8.776   1.888  0.1718 -0.1434  0.1532
24839W        W40973  11.236   0.555  15.559  0.1115  0.0376 -0.1090
24840W        W40974   7.298   8.654   1.154  0.0162 -0.1005  0.2393
24841W        W40975  10.595   8.608   0.252 -0.1672 -0.1421  0.0615
24842W        W40976  17.817   4.670   1.821 -0.2110 -0.0428  0.1114
24843W        W40977   5.768  12.149  12.068  0.0202 -0.0116  0.0300
24844W        W40978  15.451   2.313   4.622  0.2871 -0.0595 -0.2143
24845W        W40979   7.347  13.075  13.803  0.1439  0.1220  0.1804
24846W        W40980   7.101  16.017  15.386  0.2564 -0.2429  0.0226
24847W        W40981   9.777   2.429  15.090 -0.0919  0.0733  0.0162
24848W        W40982  15.061  13.427   0.488  0.1503  0.0146  0.0121
24849W        W40983   6.440   8.696   1.113  0.5056  0.0423  0.0633
24850W        W40984  13.610   4.350  12.508  0.2131  0.2627  0.0819
24851W        W40985  16.315  11.063  15.206 -0.0405  0.1376  0.1930
24852W        W40986   0.564   9.132   2.795  0.0624 -0.0454 -0.0703
24853W        W40987  10.830   2.505  15.840  0.2194  0.1541  0.1071
24854W        W40988  11.479   3.526   0.080 -0.1756 -0.0970 -0.2772
24855W        W40989   5.969   5.039   4.313  0.3381  0.0025  0.1514
24856W        W40990   3.875   8.518   2.727  0.0051  0.0487 -0.0017
24857W        W40991   3.924   1.309  13.754  0.0434 -0.3595  0.3479
24858W        W40992  15.659  12.179  13.754 -0.2744  0.0269  0.4480
24859W        W40993  16.494   5.950   1.694 -0.0932  0.1950 -0.2283
24860W        W40994  17.885   9.246  12.485  0.0504 -0.1158 -0.2621
24861W        W40995  10.698  17.326  15.341  0.0503 -0.0002 -0.0329
24862W        W40996   3.383  12.338  14.061  0.0386 -0.0231  0.2132
24863W        W40997   9.073  14.709   3.555 -0.3890 -0.1096 -0.0950
24864W        W40998  10.706   7.877   2.125 -0.1384 -0.1342 -0.1581
24865W        W40999   2.782  14.573   0.778  0.0192  0.2546 -0.0331
24866W        W41000   2.139   6.827  14.633 -0.1900  0.1750 -0.2197
24867W        W41001  18.130   7.301  13.240  0.3560  0.0696  0.0078
24868W        W41002  14.249   8.033  10.824  0.2126  0.1114 -0.0975
24869W        W41003  15.421  16.353   5.493 -0.1307  0.0432 -0.0791
24870W        W41004   3.070   5.708   1.905 -0.4091 -0.0099  0.1447
24871W        W41005   6.838   8.316   1.949  0.0562  0.0858  0.3534
24872W        W41006   8.340   0.384  11.855  0.2518  0.2320  0.0276
24873W        W41007   5.743   3.683   4.419  0.2496 -0.0116 -0.1069
24874W        W41008   0.391   3.971  12.171  0.2560  0.1632  0.3799
24875W        W41009   5.402  13.984   6.311 -0.0050 -0.0662  0.3255
24876W        W41010   2.181   5.632   4.251  0.0646 -0.2163 -0.0054
24877W        W41011  16.544   5.810   3.739 -0.2213  0.0374  0.2284
24878W        W41012   2.660  13.777   1.356  0.0238  0.4576  0.1867
24879W        W41013   8.100  12.863   5.061 -0.0485 -0.1129 -0.0683
24880W        W41014  17.491   6.185   4.695 -0.0273  0.1180  0.0655
24881W        W41015  10.188  18.058   2.554  0.1635 -0.0429 -0.1149
24882W        W41016  14.326  11.932   5.345 -0.2778  0.2360 -0.1883
24883W        W41017   1.472   5.374   4.110  0.0865 -0.0677  0.1354
24884W        W41018   7.869  10.042   2.918  0.3539  0.0757 -0.0038
24885W        W41019  16.672  14.913   5.801  0.3613  0.0240  0.2110
24886W        W41020   0.844  15.015  16.314 -0.2608 -0.1208  0.1090
24887W        W41021  15.238   0.438  14.200  0.0484  0.1681  0.1120
24888W        W41022  15.367  15.373   5.954  0.1323 -0.0896  0.2747
24889W        W41023  14.866  12.160   4.504 -0.0523 -0.0861  0.1237
24890W        W41024  13.234  10.912  15.921  0.0046 -0.3291  0.3043
24891W        W41025   1.087  13.459  12.493 -0.0351 -0.2756 -0.0042
24892W        W41026  11.921  15.383   0.632 -0.1958  0.1593  0.2591
24893W        W41027   3.585   8.945  16.399 -0.1782  0.1210  0.3400
24894W        W41028  12.070   1.470  14.268  0.0464  0.0892  0.3278
24895W        W41029   4.656   0.833   3.352 -0.0220  0.5029  0.3014
24896W        W41030  13.186   7.717   5.455 -0.2909  0.0688 -0.1118
24897W        W41031  11.513   5.697  14.960  0.1035  0.1079  0.0815
24898W        W41032  12.828  14.034  16.321 -0.0900 -0.0399 -0.0341
24899W        W41033  14.995  10.808   2.986 -0.1076  0.2635 -0.1344
24900W        W41034   5.734  13.197  16.119 -0.0408  0.1348  0.1591
24901W        W41035   9.904  16.226  13.926 -0.1290 -0.0182 -0.2415
24902W        W41036  14.109   6.285   1.756 -0.1378  0.1579  0.2268
24903W        W41037   3.492  12.712  13.118  0.5017 -0.0984 -0.0908
24904W        W41038   5.277   2.272  14.304  0.1558  0.2033  0.2262
24905W        W41039  13.538  17.892   3.230  0.0111 -0.0784  0.3291
24906W        W41040   5.411  15.265   5.995 -0.3205  0.2796  0.0045
24907W        W41041   2.102  17.130  15.861  0.0304  0.2000 -0.0606
24908W        W41042   4.149   6.596   2.232 -0.1226  0.0780 -0.1191
24909W        W41043  14.276  14.200  15.335 -0.0008  0.0041  0.2731
24910W        W41044  15.559   6.629   4.241  0.1176 -0.0543  0.0721
24911W        W41045   8.975   6.163   5.144  0.0101 -0.0214 -0.0008
24912W        W41046   0.762  15.881  15.009 -0.0693  0.0888 -0.0865
24913W        W41047  12.069  17.620  14.153  0.2165  0.2059  0.2425
24914W        W41048  13.338   3.634   3.058  0.1773  0.0669  0.1072
24915W        W41049   9.211  14.129   5.156 -0.0824 -0.1107 -0.1996
24916W        W41050   8.150  10.176   2.578 -0.0678 -0.3339 -0.1282
24917W        W41051   0.159  15.920   1.597  0.1444 -0.2568  0.0046
24918W        W41052   0.925  16.128  15.965  0.2812  0.2087 -0.1056
24919W        W41053   1.114   5.004   4.437 -0.3691  0.0651 -0.1765
24920W        W41054   2.504   6.885  12.817 -0.0101  0.2063  0.5477
24921W        W41055  12.191  11.520   4.067  0.1659 -0.1485 -0.1270
24922W        W41056  14.297   8.010   2.182  0.2428  0.0971 -0.0636
24923W        W41057  12.723   4.921   5.702 -0.2660  0.0951  0.1981
24924W        W41058   2.172   6.433   0.850 -0.1666  0.0126  0.0976
24925W        W41059   5.761   9.686  11.305  0.3272 -0.0059  0.0612
24926W        W41060   5.976   5.568  15.742  0.0471 -0.2141  0.3226
24927W        W41061   0.296  10.896  13.002 -0.1907  0.1713  0.0635
24928W        W41062   1.016  11.038  13.643  0.0382 -0.1008  0.0543
24929W        W41063   7.125  15.357  13.016  0.0369 -0.3499 -0.0545
24930W        W41064   3.454  15.560  13.470  0.0320  0.1738 -0.3592
24931W        W41065   1.305   5.587   0.980 -0.3973  0.1170  0.3087
24932W        W41066   8.992   6.956   3.012 -0.0817  0.1265 -0.2506
24933W        W41067   2.730   6.751   4.607  0.2532  0.0609  0.0126
24934W        W41068  13.203   3.479  13.044  0.1996  0.0133 -0.0429
24935W        W41069   4.990   2.898  12.233  0.0597  0.0957 -0.2554
24936W        W41070  14.524  11.051   1.682 -0.1175 -0.2827  0.1388
24937W        W41071  13.937  17.122   3.543 -0.4542  0.1341 -0.2322
24938W        W41072   3.905  10.290  15.291  0.1262 -0.0224 -0.2720
24939W        W41073   2.489   6.518  13.233 -0.0461 -0.3262 -0.0249
24940W        W41074  12.801  11.898  12.283 -0.0804  0.1325 -0.0728
24941W        W41075  10.946  14.436   3.873  0.0909  0.0291  0.1424
24942W        W41076  11.722  16.696   5.726  0.1422  0.0002  0.0793
24943W        W41077   5.314  13.862   2.245 -0.0932 -0.1216  0.0644
24944W        W41078   8.993  11.693   0.457 -0.1025 -0.2209  0.0007
24945W        W41079   5.762  12.705  16.240 -0.2909 -0.1750 -0.2459
24946W        W41080  11.134   7.009   2.084 -0.0142 -0.1785  0.0183
24947W        W41081  15.938   0.917  13.478 -0.0021 -0.0470  0.3268
24948W        W41082  14.628   5.667  13.104 -0.1709  0.1824  0.0224
24949W        W41083   1.689  13.728   2.763 -0.0001  0.0941 -0.0066
24950W        W41084   0.213  15.037   3.083 -0.0018  0.1609  0.1295
24951W        W41085   1.718   4.467  13.008  0.1272 -0.1793  0.1453
24952W        W41086   7.866   4.001  13.265 -0.1440  0.0113  0.1330
24953W        W41087   3.443  14.298   0.645 -0.2394 -0.2882 -0.2285
24954W        W41088   9.505   7.269   3.946  0.1290  0.1784  0.1099
24955W        W41089   5.387  15.583   4.986  0.0331  0.1059  0.0608
24956W        W41090   9.024  10.460  14.921 -0.0272 -0.3103 -0.1365
24957W        W41091  15.134   8.956   4.354  0.0570 -0.2982 -0.0478
24958W        W41092  16.224  15.396   0.051  0.2045  0.0511 -0.0791
24959W        W41093  12.099  12.726  16.520 -0.1803 -0.0727 -0.1476
24960W        W41094   1.739  12.490   2.425  0.1362  0.0104 -0.0719
24961W        W41095   3.671   4.342   1.608 -0.2691  0.3172  0.0370
24962W        W41096  13.943   6.154  14.954  0.5859 -0.0026  0.0915
24963W        W41097  16.404  14.918   6.249  0.3178  0.1387 -0.1673
24964W        W41098  15.532   6.586   5.188  0.1672 -0.0756  0.0458
24965W        W41099  10.152   7.930  13.478 -0.0687  0.2520  0.0196
24966W        W41100   5.369   3.708   5.679  0.0103  0.0035  0.2636
24967W        W41101   8.847  15.979  11.362 -0.1577 -0.1331 -0.1774
24968W        W41102  16.446   6.383   0.334  0.5023 -0.1894 -0.0451
24969W        W41103   2.101  13.333   2.652 -0.2054 -0.1308 -0.0556
24970W        W41104   7.052  15.592   0.608  0.0826  0.0434 -0.1408
24971W        W41105   5.074   9.079  14.201  0.3220 -0.1025 -0.2205
24972W        W41106   5.212  14.405   0.526  0.0937  0.3603  0.0179
24973W        W41107   9.998   1.989   2.515 -0.2172  0.0270 -0.0450
24974W        W41108   2.044   5.353  12.707 -0.2905  0.1029 -0.1147
24975W        W41109  12.334   9.043  11.032 -0.0050 -0.1421  0.0024
24976W        W41110  10.032   5.530  16.426  0.1362  0.1075 -0.1719
24977W        W41111  12.363  17.142   1.219  0.1436  0.1200  0.1164
24978W        W41112  17.474   6.556  13.075 -0.1373  0.0315  0.0492
24979W        W41113   7.621   4.425   4.409  0.2519 -0.0169  0.1194
24980W        W41114   2.570   7.663  16.273 -0.3646 -0.1627  0.0927
24981W        W41115  15.096  12.468   1.815 -0.1853 -0.0425  0.0650
24982W        W41116   6.469  12.645   1.309 -0.1876 -0.0114  0.2173
24983W        W41117   6.662   0.161   4.404  0.0765  0.0732  0.0481
24984W        W41118  15.159   5.257   2.885 -0.0320  0.1807  0.2435
24985W        W41119  11.652  15.056  15.365  0.0448  0.0498  0.2174
24986W        W41120   0.317  18.137   0.020  0.2755  0.2216  0.1327
24987W        W41121   3.658  10.871  14.283  0.4402  0.0968  0.1608
24988W        W41122   3.753   4.719   2.594 -0.1596  0.0657  0.2486
24989W        W41123  10.453  11.126   4.061  0.0501 -0.0062  0.3675
24990W        W41124   3.156  11.911   0.466 -0.2240 -0.0604  0.3269
24991W        W41125   3.412  10.192  16.386  0.1501  0.2086 -0.1843
24992W        W41126  17.024  17.367  11.633 -0.1434 -0.1168 -0.0199
24993W        W41127  11.937   3.132  15.709 -0.0240 -0.2252 -0.2283
24994W        W41128  10.529  17.479  13.130  0.1461 -0.1568 -0.1792
24995W        W41129   2.991   2.256  12.445 -0.0752  0.3692  0.0413
24996W        W41130  11.077   2.821   4.029  0.2000 -0.2353 -0.1156
24997W        W41131   8.883  11.068  16.039 -0.0321 -0.1932  0.2734
24998W        W41132  15.577   3.852  12.751  0.2250 -0.1193 -0.1950
24999W        W41133  15.322  15.511   0.068 -0.3396  0.0206  0.1538
25000W        W41134   2.183  12.478  12.213 -0.1290  0.0522 -0.1165
25001W        W41135  15.041  12.968  11.993  0.3114 -0.0584  0.2679
25002W        W41136   9.367   7.331  14.300  0.0848 -0.0123 -0.1170
25003W        W41137  13.029  16.391   1.455 -0.0140  0.1703 -0.1580
25004W        W41138   4.085  17.143   2.720  0.2152  0.0692 -0.2667
25005W        W41139   9.753   4.047   4.133  0.0673 -0.0828 -0.0484
25006W        W41140  13.705  15.696  13.583  0.2140  0.2063  0.1678
25007W        W41141  12.966   7.949   2.463 -0.1903 -0.3555 -0.1576
25008W        W41142   2.807   9.316   4.715  0.4816 -0.1058 -0.0393
25009W        W41143  17.609  17.582  12.766 -0.0828  0.4874  0.0448
25010W        W41144   9.980  11.163   3.216 -0.4324 -0.2210 -0.3451
25011W        W41145   5.319  12.328  16.009  0.1188  0.0219 -0.1281
25012W        W41146  16.173   3.960  11.778  0.1217  0.0598  0.4354
25013W        W41147   9.099  15.674  14.233 -0.0273  0.0607  0.3126
25014W        W41148  11.582  16.771   2.952  0.0317  0.1455  0.0227
25015W        W41149  11.268   1.683  14.513 -0.0340  0.0938  0.2735
25016W        W41150  12.669   0.112   0.475  0.4436  0.3567  0.0547
25017W        W41151   1.776  15.435   5.261 -0.0113  0.0703  0.0392
25018W        W41152  10.628   8.691  14.732  0.2225 -0.0481  0.0478
25019W        W41153  10.854   4.689   5.276  0.0224  0.0897 -0.3408
25020W        W41154   6.057   9.878  10.366 -0.0720  0.2102  0.2599
25021W        W41155   2.933   9.426  12.772 -0.1329 -0.2066 -0.3112
25022W        W41156  17.990  16.959   1.651  0.0842  0.0111  0.1555
25023W        W41157  17.387   5.819   3.081  0.1458 -0.0431 -0.0824
25024W        W41158  11.103   3.864   3.252 -0.0193  0.0754 -0.0237
25025W        W41159   8.229   9.424   1.095  0.0217 -0.2941  0.0665
25026W        W41160  11.277   4.891  14.786  0.0258  0.0254 -0.1455
25027W        W41161  15.432   7.271   1.852 -0.0343  0.1044 -0.1144
25028W        W41162  10.034  16.500   5.650 -0.0427  0.1575  0.1218
25029W        W41163  15.841  14.804   4.768  0.0804  0.0075  0.1551
25030W        W41164   8.215   5.017  13.454  0.2650  0.1231  0.2632
25031W        W41165  10.976  12.018   4.324 -0.1690 -0.0129  0.2093
25032W        W41166   7.481   4.988   4.114  0.1411 -0.1542  0.1405
25033W        W41167  12.928   5.018   2.573 -0.2306  0.0697 -0.1057
25034W        W41168  14.289   9.865  14.387 -0.1014  0.0619  0.1695
25035W        W41169   1.831  14.406  15.851  0.1225  0.1079  0.3414
25036W        W41170  17.097   9.710  15.678  0.2691 -0.1561  0.4358
25037W        W41171   3.442  17.297   0.735  0.3436  0.0415  0.0472
25038W        W41172  15.321   2.630   1.361 -0.2444 -0.0302 -0.0465
25039W        W41173   4.892   7.535   0.123 -0.1976 -0.1770  0.1936
25040W        W41174   6.819  10.873   4.498 -0.0488  0.2797 -0.0457
25041W        W41175  13.332   2.791   1.999 -0.0058  0.2096 -0.1465
25042W        W41176   7.717  10.694  11.223 -0.0679 -0.5102  0.0999
25043W        W41177  11.452   4.243   0.061  0.1420  0.1268 -0.1417
25044W        W41178   3.198   5.591   0.462 -0.0268 -0.4471 -0.0739
25045W        W41179  13.319  14.930  15.413 -0.0850 -0.1317  0.1365
25046W        W41180  15.035   6.773   2.790 -0.3250 -0.4712  0.0776
25047W        W41181  10.048   8.005  11.408 -0.1741  0.0585 -0.0207
25048W        W41182   1.048  11.747  14.276  0.1920  0.2371 -0.0423
25049W        W41183   8.149   1.002   1.603 -0.3032  0.0211 -0.0603
25050W        W41184  17.222   2.812  16.481 -0.0070  0.2529  0.0873
25051W        W41185  10.792   9.182   2.031 -0.2681 -0.0272  0.1683
25052W        W41186   4.513  10.370  11.514 -0.0876 -0.1710 -0.2923
25053W        W41187   9.863   0.541   0.335  0.1416  0.5042 -0.0698
25054W        W41188  15.701   6.917   3.503 -0.1215 -0.0076 -0.1087
25055W        W41189   4.665  15.140  12.959  0.1021  0.2062 -0.2731
25056W        W41190  10.183   8.804   4.296  0.3531 -0.0343 -0.2096
25057W        W41191   7.775   4.581   3.949  0.1482  0.1556  0.4302
25058W        W41192   7.232   3.976  11.772 -0.0819  0.0877  0.1290
25059W        W41193  10.732   9.115   3.606  0.2265 -0.1382 -0.0748
25060W        W41194   8.004   7.071   0.374 -0.0010  0.0236  0.2317
25061W        W41195  13.592   0.309  16.485 -0.1535  0.0510 -0.1299
25062W        W41196   6.499  13.386  13.345  0.1020  0.1679  0.2351
25063W        W41197  12.933  10.494   5.059 -0.1084  0.3263  0.0860
25064W        W41198   5.645   3.306  12.364 -0.1172 -0.3250 -0.0947
25065W        W41199   6.787   5.592  14.499  0.0504 -0.1974 -0.0627
25066W        W41200  15.591   1.179   3.289 -0.3895 -0.0557 -0.0264
25067W        W41201   6.393   5.153  13.277 -0.3090  0.2345  0.2619
25068W        W41202   3.581  12.226  13.243  0.0363  0.6002  0.0781
25069W        W41203   4.738   6.702  11.947  0.0053  0.0347 -0.0854
25070W        W41204   3.345  15.602  14.407 -0.0974  0.1346  0.0254
25071W        W41205  12.694  18.003   1.155  0.1655  0.2529 -0.0065
25072W        W41206  17.231  11.950  15.440  0.1735  0.2129  0.1068
25073W        W41207  15.726   1.258   0.971 -0.0764 -0.2222 -0.0116
25074W        W41208   2.694  16.911   3.656  0.0306  0.4525 -0.2060
25075W        W41209  14.829   5.814   1.865  0.2199 -0.1549  0.3963
25076W        W41210   3.025   3.373  13.639  0.1512 -0.2013 -0.3354
25077W        W41211  13.457   0.800   4.890  0.0791 -0.2678 -0.1733
25078W        W41212  14.602  13.740   0.638  0.2463 -0.1009  0.0428
25079W        W41213  12.166  15.375  14.694 -0.0489  0.1120 -0.3323
25080W        W41214   0.657  12.926   5.048 -0.1348 -0.0035  0.3282
25081W        W41215  12.204   5.265   6.188  0.4815  0.0729  0.1908
25082W        W41216  12.858   1.391   5.334  0.0424 -0.0500 -0.2496
25083W        W41217   0.141   7.963  15.106  0.1910 -0.1242 -0.3647
25084W        W41218   8.255   3.680  14.444  0.4177 -0.2914 -0.1317
25085W        W41219   8.571  13.131  15.776  0.0415 -0.0699  0.1397
25086W        W41220  10.290  12.778  11.379 -0.0146 -0.3823 -0.1289
25087W        W41221  11.605  13.090  12.832 -0.0083  0.0744  0.1934
25088W        W41222  16.402  15.630   4.059 -0.2542  0.1109  0.0321
25089W        W41223   2.385  14.500   4.439  0.0843  0.0150 -0.2828
25090W        W41224   1.819  12.620  11.677  0.0984  0.0547 -0.1776
25091W        W41225  16.355  17.652   5.236 -0.1013 -0.1315  0.2611
25092W        W41226  14.412   1.179   3.510 -0.0141  0.0415 -0.0023
25093W        W41227   3.559   9.772   3.610 -0.3993  0.0826 -0.0266
25094W        W41228  14.765   5.145  13.500 -0.2343  0.0393  0.1423
25095W        W41229  16.240  11.245  13.701  0.2096 -0.2989  0.0108
25096W        W41230  11.261  10.874   3.355 -0.0243 -0.1600  0.1163
25097W        W41231   5.992  10.598   2.932  0.2460 -0.2763 -0.1469
25098W        W41232  12.896   8.942   4.291  0.1791 -0.2622  0.3024
25099W        W41233  14.968  11.063   1.428 -0.4976 -0.4039 -0.1287
25100W        W41234   5.260   4.870   3.056 -0.0387 -0.0698  0.0100
25101W        W41235   4.513  10.896  11.626 -0.3505 -0.2847  0.1177
25102W        W41236   3.549  16.475  13.013  0.0753 -0.0372  0.2148
25103W        W41237   4.724  17.806  11.545  0.1501  0.2518 -0.2797
25104W        W41238  16.590  16.142   1.891 -0.0769  0.1473 -0.0091
25105W        W41239   3.132   1.782  12.463 -0.0642  0.0934 -0.1528
25106W        W41240  15.396   4.306   1.665  0.2737 -0.2168 -0.0511
25107W        W41241   8.628   6.671   3.758  0.2201  0.2299  0.1888
25108W        W41242  15.443   1.799   4.761 -0.1480  0.2242 -0.0241
25109W        W41243  15.101  15.731   4.143  0.0736  0.1788 -0.0662
25110W        W41244  16.948   7.985  15.552 -0.2875 -0.1064  0.0097
25111W        W41245  15.876  18.119   5.209  0.2005 -0.4338 -0.0095
25112W        W41246   4.084   8.373  11.886 -0.0849 -0.2025  0.0887
25113W        W41247   4.419   5.926  15.763  0.0411  0.1278  0.0770
25114W        W41248  11.029  13.146  15.444  0.1411 -0.3891  0.0602
25115W        W41249  13.651   8.730   0.611 -0.1475 -0.1354  0.0805
25116W        W41250  13.381   8.177   4.535  0.2341  0.1883  0.0055
25117W        W41251   5.644  15.256   0.512 -0.2190  0.0785 -0.0428
25118W        W41252  17.474   4.505   4.747  0.3421 -0.0770 -0.0574
25119W        W41253   8.041   4.666   4.384 -0.1900  0.2518 -0.1490
25120W        W41254   4.525  15.236  13.804  0.0463 -0.0812 -0.1559
25121W        W41255  15.718   8.620  13.129 -0.0565  0.2050 -0.0837
25122W        W41256   0.768   3.669   3.164 -0.2424  0.2075 -0.1406
25123W        W41257  18.072  15.809   5.423  0.2129 -0.0545  0.3798
25124W        W41258   9.997   1.741  13.566  0.1497  0.3404 -0.0050
25125W        W41259  16.217   2.674   0.007 -0.1314  0.2289 -0.0774
25126W        W41260  16.516   9.261   0.150 -0.3611  0.0798 -0.0806
25127W        W41261  10.675   3.260   4.350  0.1815 -0.1170 -0.0864
25128W        W41262   3.556   9.011   0.491 -0.0331  0.1724 -0.0591
25129W        W41263   7.072  12.489   4.397  0.2591 -0.1599  0.1809
25130W        W41264   6.881   4.151  16.130 -0.0408 -0.0931 -0.1897
25131W        W41265   9.787  10.825   2.279  0.1485  0.0955  0.0578
25132W        W41266  14.639   7.704   1.266  0.0000 -0.0191 -0.0189
25133W        W41267  16.720  11.835  15.519  0.0017  0.1670 -0.0373
25134W        W41268  15.915  17.426  14.680 -0.2779  0.2162  0.0055
25135W        W41269  17.766  11.118   1.430  0.0895 -0.2170  0.2269
25136W        W41270   6.107  14.333  13.328  0.0493  0.0151  0.1509
25137W        W41271  15.461   3.363   2.582 -0.1667 -0.1564  0.0561
25138W        W41272  16.064   6.442  15.919 -0.1025  0.0921  0.1385
25139W        W41273   2.016   6.737   3.599 -0.0728  0.0566 -0.1860
25140W        W41274   4.803   0.736  13.308 -0.0226  0.1066  0.0118
25141W        W41275   8.103  15.797   0.354  0.2288  0.1456 -0.0899
25142W        W41276   6.305  15.565  12.468 -0.2281  0.1175  0.4890
25143W        W41277  16.395  11.270   4.249  0.2515 -0.1600 -0.0382
25144W        W41278   3.454  12.778   2.896 -0.0983  0.0823 -0.0150
25145W        W41279   8.042   7.412   2.167 -0.2346  0.2623 -0.2251
25146W        W41280   2.065   3.360   3.086 -0.3423 -0.2651  0.1324
25147W        W41281  17.754  16.791   4.342 -0.2896 -0.2446  0.2268
25148W        W41282  10.996  15.786  12.651 -0.1144 -0.0699  0.1006
25149W        W41283   1.315  16.762   1.392 -0.0412  0.0935  0.1752
25150W        W41284  15.987   7.376   1.547  0.3893  0.0354  0.3804
25151W        W41285  10.994   5.175   5.098  0.1037 -0.3994  0.0985
25152W        W41286   6.486  13.508  16.364 -0.0342 -0.0360  0.2030
25153W        W41287   1.474  12.583   1.051 -0.1965  0.2727  0.0040
25154W        W41288   3.300   0.267   4.586  0.2201 -0.4127 -0.0755
25155W        W41289   2.351   1.838   3.695  0.0507  0.1767 -0.0263
25156W        W41290  12.944   0.281   0.818 -0.0547  0.4664  0.0389
25157W        W41291   6.398  10.782  14.794 -0.1107 -0.2812  0.3687
25158W        W41292   9.443  13.703   3.951  0.0754 -0.3829 -0.0546
25159W        W41293   3.931   8.245  14.119 -0.2268 -0.1596  0.0047
25160W        W41294   1.820  14.514  14.493  0.0754 -0.2822  0.1362
25161W        W41295   3.928   6.164   5.906 -0.1006 -0.1894 -0.1153
25162W        W41296  16.802   6.288   5.249 -0.5152 -0.0719 -0.0922
25163W        W41297   2.636  10.145   3.710 -0.0667  0.0361 -0.1933
25164W        W41298  15.621  14.565  14.266 -0.0893 -0.0664 -0.4868
25165W        W41299   1.751  11.080   3.562 -0.0792 -0.4505 -0.1760
25166W        W41300   2.577   8.618  13.464  0.0404  0.0895  0.1300
25167W        W41301  12.246   8.710   4.210  0.2218 -0.1004 -0.2592
25168W        W41302   8.749  16.471  11.978  0.3092 -0.1700 -0.2427
25169W        W41303  13.300  11.302  16.270  0.0346  0.0033 -0.0171
25170W        W41304   9.151  10.424  16.392 -0.0565  0.1867 -0.2393
25171W        W41305   2.816   7.913  15.548 -0.0588 -0.5132  0.0625
25172W        W41306  16.958  10.574  13.998  0.0743  0.2599  0.1490
25173W        W41307   5.939   6.599   2.405  0.2258  0.3350 -0.2398
25174W        W41308   2.223  12.613  10.941 -0.4762  0.1631  0.0055
25175W        W41309   2.306   2.873  14.259 -0.2032  0.0366 -0.1343
25176W        W41310   0.126   1.887   1.380  0.1431  0.0505  0.0360
25177W        W41311  10.219   4.198  14.082  0.2026 -0.0592 -0.2868
25178W        W41312   2.754   9.804   4.172  0.0887  0.0304  0.0728
25179W        W41313   7.010  11.342   5.863 -0.1024 -0.2236 -0.1929
25180W        W41314   3.115  17.024   4.391 -0.0191 -0.0199 -0.0204
25181W        W41315  18.147   3.111  16.474  0.2186  0.1766 -0.0100
25182W        W41316  10.365  13.444  11.462 -0.1458  0.0074  0.2926
25183W        W41317   3.551   7.564  16.307 -0.2074 -0.0019 -0.1957
25184W        W41318  11.444  13.624   0.532  0.0175 -0.1462  0.1680
25185W        W41319  16.357   1.823  15.519 -0.0567 -0.2692  0.0298
25186W        W41320   9.066  17.885   4.031  0.1325 -0.0682 -0.1818
25187W        W41321   9.112   1.013  15.028  0.0962  0.0969 -0.1236
25188W        W41322  16.939  10.409  11.498 -0.1325  0.0545 -0.0319
25189W        W41323   4.235  10.580  12.563 -0.1074  0.0768 -0.0359
25190W        W41324   7.950   8.038  13.544  0.1421  0.1086  0.0364
25191W        W41325  11.268   7.659   4.352  0.2429  0.0040 -0.0116
25192W        W41326  14.345   3.270  13.690  0.1009  0.0251  0.0814
25193W        W41327  17.072   7.556   5.777 -0.0493  0.2964 -0.0515
25194W        W41328   5.342  13.064   0.490  0.0833  0.0519 -0.0876
25195W        W41329   9.027   3.750   5.677  0.2391  0.0020 -0.0714
25196W        W41330  10.330  15.968  13.885  0.2489 -0.1938 -0.0294
25197W        W41331   1.319   5.065   0.118  0.1412  0.0427  0.1033
25198W        W41332  17.397   4.275  14.261  0.1226 -0.2576 -0.0069
25199W        W41333  10.303   3.150   1.506 -0.1739 -0.0974  0.0134
25200W        W41334   4.849  15.679   1.073 -0.2099 -0.1121 -0.2590
25201W        W41335  10.741   8.647  15.890 -0.4421 -0.4005  0.0229
25202W        W41336  10.010   7.106   4.080 -0.1108  0.0531 -0.0651
25203W        W41337   3.445  11.320   5.989 -0.1229  0.2510  0.0392
25204W        W41338   4.056   2.352  15.166  0.1924  0.1023 -0.0652
25205W        W41339   9.681   6.547  12.496  0.2264 -0.1662  0.1677
25206W        W41340   1.439   1.691   3.925 -0.1625 -0.0100  0.0604
25207W        W41341  12.694   6.408  15.366  0.2240 -0.0158  0.1308
25208W        W41342   3.584   7.107   4.337 -0.1395 -0.1249  0.3681
25209W        W41343   1.545   4.830   3.059 -0.1970 -0.0556  0.3073
25210W        W41344   4.468   0.671   1.943  0.1073 -0.0358  0.4325
25211W        W41345   8.648   4.394  15.194  0.3606  0.0898  0.1644
25212W        W41346   8.503   4.891  15.387 -0.0906 -0.1515 -0.1323
25213W        W41347  10.729   2.197   4.578  0.1329  0.1728  0.0513
25214W        W41348   0.883   6.013  12.573 -0.0723 -0.0071  0.1301
25215W        W41349   7.982   9.545   1.499  0.1773  0.0487  0.0990
25216W        W41350   2.366  18.128  16.092  0.0163 -0.2549 -0.2280
25217W        W41351  10.616   5.265   3.605 -0.1934  0.0061  0.0429
25218W        W41352  12.866   6.412  13.843 -0.1920 -0.0884 -0.2352
25219W        W41353  12.823   8.523  15.553  0.1888  0.0483 -0.1724
25220W        W41354  14.284  17.042   0.314 -0.2252  0.0760  0.3418
25221W        W41355  13.649   5.901   4.815 -0.3859  0.0217  0.1738
25222W        W41356  11.500  17.330   4.586  0.0327 -0.2047 -0.0127
25223W        W41357   2.859  12.907  14.601  0.0282 -0.0106 -0.2101
25224W        W41358   3.584   1.477  14.881  0.1058 -0.2152 -0.1447
25225W        W41359   5.517   1.771   5.521  0.1709 -0.0685  0.2518
25226W        W41360   6.336   7.710  11.048  0.1547 -0.1531  0.2211
25227W        W41361   2.500  12.256   1.024  0.1588  0.0936 -0.0612
25228W        W41362   8.727  16.442   5.614 -0.0472 -0.5599 -0.0172
25229W        W41363  13.774   9.712  16.011  0.1282  0.1600  0.2381
25230W        W41364  10.373   0.941   1.175 -0.0087  0.1440 -0.1065
25231W        W41365   5.878  16.182   0.269 -0.0151  0.1373 -0.2305
25232W        W41366  13.043  13.543  14.957 -0.0566 -0.1837 -0.1460
25233W        W41367  15.716   1.545   3.629 -0.3838  0.0376 -0.3210
25234W        W41368  16.410   7.210   3.730 -0.0222  0.0813 -0.2859
25235W        W41369   1.512   9.368  12.021 -0.0680  0.1506  0.1215
25236W        W41370  12.682   7.117  11.746  0.0816  0.1164  0.1506
25237W        W41371   6.123   1.090  12.811 -0.0070 -0.1387 -0.3165
25238W        W41372   4.027   6.166  12.879  0.0469 -0.2137 -0.0363
25239W        W41373   7.025  14.065  15.135 -0.1014  0.1233  0.0916
25240W        W41374   7.699  13.737   1.653  0.4686  0.1673  0.1227
25241W        W41375  17.862   0.467   2.323  0.0333 -0.3267  0.0281
25242W        W41376   8.079   7.967  11.670 -0.0946 -0.0384 -0.2399
25243W        W41377  10.698  15.179   1.116 -0.0056 -0.1004  0.1700
25244W        W41378   4.256   2.394  11.767  0.1681  0.1647 -0.0725
25245W        W41379  13.822   0.549  14.325  0.0195 -0.0492 -0.2846
25246W        W41380  14.361  13.002  14.707  0.1696 -0.1018  0.4678
25247W        W41381   9.617   7.773  16.046  0.3905 -0.0011 -0.0614
25248W        W41382  16.184   9.995   0.921  0.0858 -0.2953 -0.4969
25249W        W41383   5.384  15.525   3.394 -0.1497  0.0374  0.1235
25250W        W41384  14.797   7.019   2.437  0.3310  0.0867  0.0743
25251W        W41385   7.031   4.001  11.305  0.0737  0.0349 -0.0480
25252W        W41386   1.275   9.119   2.027  0.0206  0.3526  0.3388
25253W        W41387  17.082   4.659  14.553 -0.0598  0.1555  0.0112
25254W        W41388   0.756   4.195   5.108 -0.0206 -0.0515  0.1303
25255W        W41389  17.550  10.994  11.481 -0.1962  0.1541 -0.2653
25256W        W41390  16.723  11.644  14.806  0.0789 -0.1072  0.2645
25257W        W41391   3.626  11.418   3.677  0.0607  0.0221 -0.3342
25258W        W41392   9.172   4.840  14.596  0.0860  0.0366 -0.0741
25259W        W41393   9.955   4.604   3.793  0.2047 -0.0831 -0.1043
25260W        W41394  11.939  13.324  13.106 -0.1268 -0.0031  0.2223
25261W        W41395   3.262   6.944   2.697 -0.1672  0.1596  0.0732
25262W        W41396   2.207   6.801  16.484 -0.1537  0.3470 -0.0294
25263W        W41397   7.518   6.120   3.372 -0.0327 -0.0856 -0.2017
25264W        W41398   1.614   9.825  15.274  0.2117 -0.0981 -0.0258
25265W        W41399  17.870   2.285  13.783  0.0294  0.0486 -0.0365
25266W        W41400   2.652   6.873  14.762  0.0180 -0.0625 -0.0068
25267W        W41401  13.891  16.056   3.712 -0.0839  0.2417  0.1327
25268W        W41402   6.214  11.561   1.649  0.1055  0.3510  0.4112
25269W        W41403  15.847   0.557   1.746 -0.2016 -0.2026 -0.1236
25270W        W41404   6.663   4.782   4.742 -0.0905 -0.0815  0.0675
25271W        W41405   9.592   4.848   2.618  0.0861 -0.0116  0.0205
25272W        W41406   6.217  10.334  14.207  0.0087 -0.1638  0.2275
25273W        W41407   3.854  14.895  12.603 -0.6002 -0.0036 -0.0088
25274W        W41408  18.008   0.935  12.965  0.1150 -0.2351  0.1075
25275W        W41409  14.215  11.888   3.944  0.0543  0.1376 -0.1179
25276W        W41410   4.411  11.889   0.240  0.0467 -0.0105  0.0173
25277W        W41411  12.021   6.067  12.564 -0.0418  0.2454 -0.0285
25278W        W41412   7.690  10.365   2.450 -0.0675 -0.0825 -0.0228
25279W        W41413  13.377   8.657   4.211 -0.0080  0.0948  0.0499
25280W        W41414  12.416   9.040  14.963 -0.0421 -0.1577  0.0562
25281W        W41415  16.397  13.906   0.933 -0.1597  0.1146 -0.0483
25282W        W41416   0.019   9.489   1.979  0.0635  0.1014  0.2623
25283W        W41417  16.559   7.775   4.882  0.0735  0.0049  0.0373
25284W        W41418   9.201  13.519  10.952  0.0219 -0.0762 -0.3013
25285W        W41419   1.232  13.905  14.729  0.2643  0.2739 -0.0446
25286W        W41420  17.297  15.197   3.830 -0.1997  0.1707 -0.2003
25287W        W41421   6.620  16.959  12.355  0.3758  0.3503 -0.0061
25288W        W41422   2.676  13.291   3.001  0.0550  0.2669 -0.0938
25289W        W41423  15.549  13.664   3.619  0.2214 -0.0353  0.0494
25290W        W41424  11.189  11.488   1.610 -0.0672  0.0733  0.1444
25291W        W41425   1.538   5.843  15.540  0.0806  0.0819  0.0092
25292W        W41426   5.544  16.528  12.458  0.3497 -0.1811 -0.1453
25293W        W41427  16.245   2.339  11.677 -0.2050 -0.1616 -0.0433
25294W        W41428   6.261  15.740   4.517  0.0798 -0.0293 -0.1106
25295W        W41429   0.425   8.960  12.990 -0.1686  0.0406  0.1402
25296W        W41430  11.341   3.673  11.546  0.1738  0.0862 -0.0411
25297W        W41431   7.573   3.807   1.267  0.2569  0.0460 -0.0518
25298W        W41432  15.915  12.812   3.910 -0.1340 -0.0111  0.0826
25299W        W41433   3.858  12.330   4.124  0.0403  0.0670  0.2249
25300W        W41434  13.804   8.967  15.358 -0.1518  0.1509  0.0097
25301W        W41435  18.164   4.087   5.531 -0.1037  0.0618 -0.0407
25302W        W41436   6.437   6.207   5.111 -0.0042 -0.4617  0.2052
25303W        W41437  16.551   5.209   1.721  0.3315 -0.2578  0.1707
25304W        W41438   7.596   7.231   0.016  0.0580 -0.1763 -0.2221
25305W        W41439  12.715  12.384  15.406  0.3908 -0.2480  0.1324
25306W        W41440  11.357   5.974   4.774 -0.0667 -0.1685 -0.0564
25307W        W41441   8.204  14.645  12.226  0.1429  0.2018 -0.2375
25308W        W41442   6.389   8.482   3.664 -0.0426  0.0714 -0.1329
25309W        W41443   2.866  12.732   2.104  0.1059 -0.0327 -0.0538
25310W        W41444   4.890   9.431   4.267  0.3601  0.2219  0.4278
25311W        W41445   0.086  14.931   1.481  0.1167 -0.0502  0.0786
25312W        W41446   1.476  17.967  15.941  0.0492 -0.2996 -0.0813
25313W        W41447   6.671  15.384   4.577  0.1738 -0.1210 -0.2284
25314W        W41448   2.339   1.949   2.598  0.2314  0.0559 -0.0523
25315W        W41449   1.299   4.206   3.727 -0.2806  0.1818  0.0204
25316W        W41450   1.407  10.565   4.251 -0.2002  0.0872 -0.1426
25317W        W41451  12.599  14.510  12.194  0.2100  0.3949 -0.3148
25318W        W41452   4.826  14.004  15.617  0.0326  0.0742 -0.0448
25319W        W41453   7.762   2.907   0.986  0.0949 -0.1961  0.0409
25320W        W41454   1.805   9.687  14.760 -0.2004  0.1330 -0.2027
25321W        W41455   6.108  14.878   3.454 -0.2399  0.2650 -0.0441
25322W        W41456   9.331   7.234   5.243  0.0309  0.1080  0.2110
25323W        W41457  13.678  12.747   6.093  0.0191  0.1483  0.2157
25324W        W41458  14.595  11.507   5.205 -0.0515 -0.2346  0.1759
25325W        W41459  17.483   2.570   5.746  0.2146 -0.0313  0.0409
25326W        W41460  11.357   0.541   2.958  0.0717  0.0436 -0.3595
25327W        W41461   8.327   3.211  14.615 -0.0147 -0.1654 -0.2956
25328W        W41462   1.853   2.942   3.597  0.1728  0.4388 -0.2429
25329W        W41463   4.494   6.180  12.022 -0.1387 -0.1537  0.2616
25330W        W41464  15.934   7.955   2.387  0.3631  0.1665  0.2338
25331W        W41465   7.030   8.418   2.817 -0.2620 -0.1482 -0.0433
25332W        W41466   8.765  16.067  13.565  0.1331  0.1880 -0.1397
25333W        W41467  13.221   6.631  16.484  0.1956 -0.1780  0.0824
25334W        W41468   7.255   9.599  12.606 -0.2938 -0.0225 -0.0200
25335W        W41469   4.738  16.417  11.922 -0.1435  0.1605 -0.3013
25336W        W41470   8.903  12.361   3.458 -0.0539 -0.1575 -0.1412
25337W        W41471  12.238  10.547   2.977 -0.0205  0.1110 -0.2901
25338W        W41472   5.552   3.240   4.462  0.0129 -0.3008  0.0491
25339W        W41473   0.816   7.648   4.385 -0.2784  0.0914 -0.0073
25340W        W41474   8.678   4.945  11.961  0.2543  0.0945 -0.2290
25341W        W41475  17.417   8.074   3.409  0.1582  0.0798  0.0474
25342W        W41476   0.534  11.409   4.520  0.1260  0.3087 -0.1894
25343W        W41477  10.407   5.607   1.866 -0.4510 -0.1524 -0.0534
25344W        W41478   5.076   6.229   2.691 -0.2194  0.2138  0.0770
25345W        W41479   5.803  15.279   3.556  0.3075 -0.0948  0.0599
25346W        W41480   7.093  11.097   2.434  0.0520 -0.2272  0.1390
25347W        W41481   3.838  11.690   4.093  0.1289 -0.3584 -0.0080
25348W        W41482   8.180  15.211  13.593  0.0706  0.0601 -0.0107
25349W        W41483  10.146  14.380   1.025  0.0781 -0.3135 -0.0933
25350W        W41484  13.977   7.036   4.183 -0.2315  0.0154 -0.1973
25351W        W41485  15.694   8.131  13.132 -0.2333  0.0947 -0.0873
25352W        W41486   5.733  12.353  15.827 -0.6170  0.2750  0.3161
25353W        W41487   2.490  10.705  12.669  0.2511  0.0767  0.0443
25354W        W41488   3.887   9.691  14.547 -0.2913 -0.2564  0.1867
25355W        W41489   0.755   8.228   3.000 -0.2285 -0.1907  0.1198
25356W        W41490   0.027   3.565   0.387  0.2157  0.0441 -0.1394
25357W        W41491  15.748   4.803   4.343  0.1357 -0.0002 -0.0216
25358W        W41492  14.782  10.130   1.994  0.0997  0.1077 -0.1232
25359W        W41493   4.234   4.347   4.440  0.2147  0.0238  0.4223
25360W        W41494   7.444   9.079  10.952 -0.0083  0.1002 -0.0637
25361W        W41495  12.883   3.057   4.359 -0.0743 -0.0669  0.0549
25362W        W41496   1.279   4.711   3.528 -0.1301 -0.0260 -0.0183
25363W        W41497  13.959  10.713  11.846 -0.1520  0.2131  0.0673
25364W        W41498   7.928   0.053   1.518 -0.0436 -0.1979 -0.0027
25365W        W41499  14.940   1.520   0.828  0.3973 -0.0653  0.4691
25366W        W41500   2.789  13.725  12.858  0.0027 -0.1802  0.2720
25367W        W41501  12.361   2.352   3.873 -0.0627 -0.4090  0.0185
25368W        W41502   4.794   1.686   1.592  0.0162 -0.2481 -0.0675
25369W        W41503   4.576   1.622  14.458 -0.0616 -0.1583 -0.1246
25370W        W41504  15.877  10.063   3.879 -0.0571  0.2640 -0.2137
25371W        W41505   9.941   0.843   5.622  0.2645 -0.1717 -0.4285
25372W        W41506   3.600   1.840   0.950 -0.0869 -0.2908  0.0520
25373W        W41507   9.729   2.085  13.283 -0.2072  0.2613 -0.0203
25374W        W41508   3.564   1.692  11.968  0.0843 -0.0635 -0.1130
25375W        W41509  15.813  15.896   5.331  0.0455  0.1316  0.0254
25376W        W41510  15.014  17.399  14.512  0.0827  0.2921 -0.0907
25377W        W41511   9.902   0.235   0.733  0.2901 -0.2715 -0.0736
25378W        W41512  14.337  10.215  15.775  0.1686  0.0829  0.0671
25379W        W41513  11.145   0.180  13.962 -0.1066  0.2570  0.0970
25380W        W41514   8.488  12.290  15.222  0.1402  0.2435 -0.2489
25381W        W41515  17.906  12.611  15.353  0.0581  0.0662  0.0880
25382W        W41516  10.697  11.060  14.172  0.0195 -0.4363 -0.1022
25383W        W41517   6.111   3.906   2.733 -0.1914 -0.3356  0.2246
25384W        W41518   6.032  14.892   4.877 -0.2406 -0.0476  0.0612
25385W        W41519   3.700  13.105   4.787  0.1360 -0.3323  0.1135
25386W        W41520   7.600  12.281   0.591  0.3437  0.0109  0.1445
25387W        W41521  14.432   8.589  11.610  0.1384  0.1259  0.1098
25388W        W41522   5.342  16.919   1.773  0.0541  0.1815 -0.0298
25389W        W41523  17.577  16.185   1.613 -0.3446  0.0946 -0.1121
25390W        W41524  13.672  17.933   1.084 -0.2350  0.0430  0.0857
25391W        W41525   5.676  14.834  12.358  0.0735  0.2733 -0.1309
25392W        W41526   6.570  10.391   5.162 -0.1103  0.1954  0.1993
25393W        W41527  14.781   8.219   0.457 -0.4059 -0.0637  0.0386
25394W        W41528   4.761  11.335  11.664  0.2111 -0.0496 -0.0925
25395W        W41529   1.055   1.971   5.170 -0.0796  0.0381 -0.0813
25396W        W41530  12.059  13.045   5.117 -0.0029  0.3498 -0.4461
25397W        W41531   4.389  15.463   4.529 -0.1293 -0.0082  0.0410
25398W        W41532  15.361  10.233   2.793  0.2500  0.3548 -0.1157
25399W        W41533   5.221   0.687   5.500 -0.0724  0.0952 -0.1372
25400W        W41534  10.785  11.082  12.270  0.0947 -0.0083  0.0838
25401W        W41535   1.762  15.279   0.484  0.1015 -0.0149 -0.0329
25402W        W41536  13.703   7.915   2.704  0.0505  0.4275 -0.0597
25403W        W41537   3.929  10.816   2.134  0.0481 -0.2628 -0.2786
25404W        W41538   5.551  16.016   2.573  0.0160  0.0598 -0.0278
25405W        W41539   0.078   3.781   3.576  0.0835  0.3207 -0.3448
25406W        W41540   3.993   7.242   0.353  0.0899  0.0368 -0.3670
25407W        W41541  17.241   8.770  15.116 -0.0150 -0.1479 -0.1275
25408W        W41542  17.935   3.042  12.000  0.2699  0.0897  0.2528
25409W        W41543   2.171  10.864  12.251  0.1407  0.0553 -0.0151
25410W        W41544   6.971   3.755  15.807 -0.0261 -0.3168 -0.2442
25411W        W41545  14.883  11.940  13.494  0.1295  0.0042 -0.2044
25412W        W41546  10.210   4.883   0.319 -0.0643 -0.2875 -0.2137
25413W        W41547  13.172   0.218  13.257  0.0380 -0.1411 -0.2534
25414W        W41548   8.704  16.402   4.994  0.0957  0.1429 -0.2739
25415W        W41549   2.107  10.973   0.249 -0.0487  0.1880 -0.2640
25416W        W41550   0.175   2.607   4.025  0.1400  0.0260  0.1650
25417W        W41551  14.243   3.394   0.834 -0.3526 -0.0352 -0.0113
25418W        W41552   6.338   6.847  11.739 -0.1408  0.0746 -0.0737
25419W        W41553   2.391   8.312   0.476  0.1868  0.2082  0.2220
25420W        W41554   8.352   6.536  12.662  0.0303 -0.0332 -0.1796
25421W        W41555  12.591  15.562   5.198 -0.0030  0.0047 -0.1141
25422W        W41556  13.014  15.558   1.072 -0.0831 -0.0402 -0.2562
25423W        W41557   5.198  17.074   5.123  0.3622  0.1757 -0.2131
25424W        W41558  14.280  14.583   1.231 -0.1286  0.1218  0.0102
25425W        W41559   5.915  16.120   3.810  0.1469 -0.1062 -0.0997
25426W        W41560   3.395  12.010   1.704 -0.3254 -0.3582  0.4665
25427W        W41561  14.812   0.093  13.267 -0.0073  0.1376 -0.0446
25428W        W41562  11.417   3.649   4.679  0.2317 -0.2713  0.2781
25429W        W41563  13.526   1.791  15.588  0.0155 -0.2097 -0.2601
25430W        W41564   2.219   0.439   1.007  0.2470 -0.1872  0.0774
25431W        W41565  10.369   8.567  13.335  0.1284 -0.4239 -0.0894
25432W        W41566   2.542   5.304   4.337 -0.1573 -0.1972 -0.1889
25433W        W41567  12.506  10.909  11.059  0.0729  0.0032  0.0633
25434W        W41568   1.975  12.984   0.190 -0.2723  0.0358  0.1669
25435W        W41569   9.281  10.232   0.320  0.1414 -0.1105 -0.0810
25436W        W41570  15.592  10.631   3.794 -0.3140  0.1356 -0.0058
25437W        W41571  10.059  11.414   0.061 -0.2345  0.2698 -0.0793
25438W        W41572   5.174   7.531   4.267 -0.2814 -0.2473  0.1824
25439W        W41573  14.925   5.507  13.840 -0.0818 -0.0004  0.0382
25440W        W41574   8.722   9.892  11.226 -0.0986  0.1878 -0.0342
25441W        W41575   8.123   6.392   1.662 -0.0092 -0.1232 -0.0661
25442W        W41576   0.118   0.713  12.621 -0.3293 -0.0085 -0.0747
25443W        W41577  16.173   0.655   2.678  0.3044 -0.0653  0.0189
25444W        W41578   2.503  17.780  11.935  0.2471 -0.0639  0.1439
25445W        W41579  14.252   7.492   0.980 -0.2295  0.0671  0.2021
25446W        W41580  12.207   5.579   1.403 -0.1779 -0.2240  0.0595
25447W        W41581   5.185   7.053   2.494  0.2133 -0.0930 -0.0511
25448W        W41582  15.348   7.145   0.099 -0.2919  0.2507 -0.0238
25449W        W41583  13.207   2.730   0.836  0.0398 -0.0284  0.0846
25450W        W41584  17.761  10.811   2.348  0.1938  0.1568 -0.3748
25451W        W41585   8.748  13.913   5.253 -0.0223  0.1488 -0.2924
25452W        W41586   6.334   6.530   5.647  0.0616  0.0571 -0.0531
25453W        W41587   3.839  12.297  14.713  0.5263  0.0405  0.0452
25454W        W41588   7.502  14.674   1.612 -0.2122  0.1818  0.3884
25455W        W41589   7.923   8.874   5.517  0.0034 -0.0988 -0.0975
25456W        W41590   5.973   4.220  13.807  0.0335  0.3625  0.0530
25457W        W41591  10.885  10.943   3.768  0.0112  0.1254 -0.2065
25458W        W41592   3.860  17.598  14.306  0.0163 -0.0795  0.0693
25459W        W41593   4.917   3.998  16.151  0.1564 -0.1977  0.1358
25460W        W41594  10.708  16.604  11.772  0.3058 -0.1313 -0.1953
25461W        W41595   9.847  17.967  14.059 -0.2263  0.1461  0.1793
25462W        W41596  10.439  11.191   2.783 -0.1168 -0.0271 -0.0190
25463W        W41597   8.010  11.791  14.588 -0.1313 -0.1203  0.2398
25464W        W41598   4.036   7.332   4.535 -0.0206 -0.1354 -0.1754
25465W        W41599   7.851  14.285   1.395 -0.0944 -0.0190 -0.1934
25466W        W41600  10.730  16.890   2.984 -0.0720 -0.1757  0.1946
25467W        W41601   9.752  16.489   3.657  0.1261  0.1348 -0.1320
25468W        W41602   3.688   5.159  14.242  0.1358  0.0213  0.1747
25469W        W41603  12.382   7.232  13.932  0.1946 -0.0215 -0.1006
25470W        W41604  16.920   5.867  11.327  0.2729  0.1084  0.1839
25471W        W41605   8.524   6.453   2.375 -0.0409 -0.2285  0.2606
25472W        W41606   9.753  11.375  11.677  0.2236 -0.0822 -0.0949
25473W        W41607   9.843   1.320   4.717  0.0146  0.1134  0.0801
25474W        W41608   9.413  17.640  16.526  0.0319 -0.1425  0.0862
25475W        W41609   1.436   1.994  10.731 -0.0704  0.0877 -0.2487
25476W        W41610  15.216  16.774  15.937 -0.1411  0.1578 -0.0413
25477W        W41611   1.646  13.693   2.210 -0.0605 -0.0772 -0.1268
25478W        W41612   7.052   0.780  11.797  0.2036  0.2134 -0.1977
25479W        W41613   6.793   9.098  12.130  0.1167  0.2351  0.1136
25480W        W41614   5.167  11.577  14.667 -0.4220  0.0024 -0.1566
25481W        W41615  16.719   6.313   2.466 -0.0711 -0.1075 -0.1502
25482W        W41616  13.803   7.150  13.214 -0.0588  0.2228 -0.0789
25483W        W41617   6.705   1.328  12.509  0.2347 -0.2154 -0.1504
25484W        W41618   9.370  15.653  16.338  0.0812 -0.1467 -0.2282
25485W        W41619  11.407   8.990  10.986 -0.1476 -0.0056 -0.0693
25486W        W41620   9.225   4.642   3.604  0.0226 -0.2420 -0.1307
25487W        W41621   0.917  10.737   0.481  0.1577  0.3150 -0.0628
25488W        W41622  17.137   0.669  12.966 -0.1155  0.0974 -0.1282
25489W        W41623   9.005  14.565   2.650 -0.0930 -0.2172 -0.1481
25490W        W41624   5.887  12.701   2.483  0.2171 -0.0829 -0.3104
25491W        W41625   0.393   7.893   3.140  0.1641  0.1023  0.0505
25492W        W41626  10.062   7.031   2.757  0.1475  0.1467 -0.0543
25493W        W41627   6.140  16.873   2.332 -0.0062  0.1137  0.0535
25494W        W41628   3.653   4.419   0.140 -0.0019 -0.2490 -0.1645
25495W        W41629   7.028  14.012   6.121 -0.0185  0.1244  0.2149
25496W        W41630   8.582   3.943  15.783  0.0014 -0.2567 -0.2753
25497W        W41631   7.320  15.960  14.672  0.2772 -0.0233 -0.0176
25498W        W41632   9.624  14.564   0.448  0.3479 -0.1844 -0.2211
25499W        W41633   9.837  13.102  12.553 -0.2230  0.1137  0.3334
25500W        W41634  13.834  17.639  15.012  0.2724  0.1941  0.0632
25501W        W41635  16.337  14.028  12.536 -0.1325  0.3412  0.1900
25502W        W41636  12.301   8.416  12.639  0.0352  0.1214 -0.1924
25503W        W41637  14.566  15.673  15.139  0.1546 -0.1661  0.1702
25504W        W41638   7.469  17.625  16.094  0.1082 -0.2870 -0.3057
25505W        W41639  16.000  17.247   1.600  0.2261 -0.2152  0.3175
25506W        W41640   4.128  17.471   3.350  0.3689 -0.3854  0.1811
25507W        W41641   6.514  16.799   2.906 -0.0753  0.1268 -0.2039
25508W        W41642  13.289   9.423  13.159 -0.0947 -0.0353 -0.1920
25509W        W41643  17.344   8.853  13.581  0.1244  0.2857 -0.1790
25510W        W41644  11.745   0.703  13.289  0.0657  0.1551  0.0130
25511W        W41645  17.008  10.417   3.634  0.0975  0.0555 -0.2850
25512W        W41646   0.532  13.879  13.545 -0.0789  0.0696  0.3019
25513W        W41647   9.495   3.066   5.233 -0.0165  0.2409  0.4817
25514W        W41648  17.998  16.293  11.927 -0.0469  0.2932 -0.1561
25515W        W41649   5.682   4.388   1.899  0.1468  0.0087 -0.1008
25516W        W41650   6.523   0.070   1.298 -0.3726  0.0454  0.1706
25517W        W41651  12.202   5.355   3.105  0.0802  0.0383  0.1290
25518W        W41652  13.087  16.807   4.429  0.1155  0.3469 -0.2629
25519W        W41653   7.847  14.061   4.667  0.0062 -0.2594 -0.1797
25520W        W41654  12.221   4.923  11.069 -0.2136 -0.1788  0.3394
25521W        W41655  14.002   3.416  14.645  0.0538 -0.0476 -0.0366
25522W        W41656   8.123   4.777  16.197 -0.0263 -0.0791 -0.2411
25523W        W41657   7.878  13.418   2.326  0.1419  0.0692 -0.0205
25524W        W41658  14.406   3.740  13.936 -0.3736 -0.0871  0.2072
25525W        W41659   9.860   9.688  14.133 -0.0022 -0.1908 -0.3009
25526W        W41660   5.136  14.735   4.650 -0.1052 -0.0123  0.1771
25527W        W41661   4.992   0.606  16.102 -0.5729  0.1034 -0.1702
25528W        W41662  17.571   1.103  12.101 -0.2069  0.5498  0.0353
25529W        W41663   1.887   4.456  12.561 -0.1535  0.3578  0.1770
25530W        W41664   4.376  17.983   1.102  0.0510  0.3353 -0.0230
25531W        W41665  16.991  10.899  11.617  0.2212  0.0983 -0.2505
25532W        W41666   5.970   8.843   4.903 -0.0176 -0.2286 -0.1346
25533W        W41667   8.705   3.720  12.708  0.0284 -0.0838 -0.0931
25534W        W41668  10.183  17.922  13.167 -0.0643  0.1104  0.2139
25535W        W41669   9.520   5.178   0.689  0.1248  0.0157  0.3016
25536W        W41670  14.501  18.054   3.342 -0.0397  0.2060  0.0094
25537W        W41671   5.711  11.036  15.492  0.2297  0.3290 -0.0309
25538W        W41672  10.435   7.255   3.660  0.1974 -0.1247  0.1097
25539W        W41673   8.847  12.059  12.580  0.0649 -0.4504  0.0747
25540W        W41674   6.291   1.113  13.938  0.0299 -0.1767  0.0241
25541W        W41675   8.375  11.675  11.470 -0.0704 -0.0423 -0.0132
25542W        W41676   9.113  14.269  12.395 -0.0042  0.0885  0.2522
25543W        W41677   6.185   7.842  13.780 -0.1790  0.0795  0.1404
25544W        W41678   8.981  10.765  14.470 -0.0802 -0.0374 -0.0193
25545W        W41679   6.376  12.876   3.757 -0.0226  0.1071 -0.4372
25546W        W41680   9.482  15.516   1.278 -0.0347 -0.1666 -0.0565
25547W        W41681   3.872  11.918   1.874 -0.2049  0.2538  0.2902
25548W        W41682  16.192  12.428   2.687  0.0102  0.1991 -0.0498
25549W        W41683  10.190  16.586  11.836  0.0081  0.0271  0.0562
25550W        W41684   0.164   2.484  12.345 -0.2633  0.2932 -0.0139
25551W        W41685   8.625  10.052   2.278 -0.0574 -0.0570 -0.2518
25552W        W41686   9.655   7.157  11.350 -0.1012  0.0418  0.5025
25553W        W41687   5.216  11.947   2.510 -0.2736 -0.1000 -0.1540
25554W        W41688  14.750  12.391   1.108  0.1568 -0.1340 -0.2765
25555W        W41689  17.211   2.925   4.719  0.1073 -0.1778 -0.2212
25556W        W41690   0.905  15.890   3.557 -0.3354 -0.0693 -0.2714
25557W        W41691  14.007   4.259   1.987  0.0415  0.2431  0.3935
25558W        W41692   8.926   0.341   1.317 -0.1006 -0.0845  0.0318
25559W        W41693   6.296  17.983   2.513 -0.2464  0.1731  0.1646
25560W        W41694   1.999   7.299   4.665 -0.0466 -0.0787  0.1040
25561W        W41695  11.291  15.777  14.449  0.0187  0.0675 -0.2371
25562W        W41696  13.168  15.077  14.449  0.1590  0.2349 -0.1127
25563W        W41697   6.507   5.745   3.673 -0.1586  0.3053 -0.1268
25564W        W41698   6.139   2.199   4.700  0.2210  0.0446  0.2711
25565W        W41699   9.640  15.023   4.051 -0.0371  0.1344  0.0815
25566W        W41700  17.746  13.602   5.505  0.1159 -0.2519 -0.1128
25567W        W41701   0.721   4.288   2.907  0.1899 -0.0879  0.3259
25568W        W41702  16.356  12.181   4.483 -0.0511  0.4009  0.2447
25569W        W41703  10.767   2.614  14.941 -0.4039 -0.0056 -0.0357
25570W        W41704   5.298   0.276  11.888  0.0499  0.3178 -0.1190
25571W        W41705   2.394   2.679  15.463 -0.0971 -0.1143 -0.1643
25572W        W41706  15.887   2.218  13.634 -0.0820 -0.1254 -0.2595
25573W        W41707   8.619   0.720   1.506 -0.0633 -0.0450 -0.2043
25574W        W41708   0.451  17.654   6.397 -0.4098 -0.1162 -0.0163
25575W        W41709   0.814  15.030  14.475 -0.1722  0.0389  0.2730
25576W        W41710  10.017  14.312  12.199 -0.0578  0.0591 -0.1242
25577W        W41711   3.924  13.134   2.676  0.2412  0.0782  0.1839
25578W        W41712  10.119   9.260  11.138 -0.1118 -0.0522 -0.0235
25579W        W41713   6.984  14.198   4.776 -0.0688 -0.0943  0.0003
25580W        W41714   4.098   0.700  15.743  0.0500 -0.0310 -0.2202
25581W        W41715   8.101   8.985  15.723 -0.0081  0.3661  0.0560
25582W        W41716   5.062  15.927   3.317 -0.1308  0.3288  0.0813
25583W        W41717  16.745   0.660   3.836  0.1387  0.0679  0.0017
25584W        W41718   6.601  13.358  11.410  0.1594 -0.0714 -0.0057
25585W        W41719   3.221   7.772   4.288 -0.3178  0.1176  0.0254
25586W        W41720   1.964  12.674   4.234 -0.0731 -0.0168 -0.3074
25587W        W41721   7.735   2.032  13.746  0.0445 -0.2929 -0.3385
25588W        W41722   8.967   0.949   4.864 -0.0174  0.2000  0.0036
25589W        W41723   9.919  12.414  15.083  0.0261 -0.2954 -0.1890
25590W        W41724   0.844   3.327   0.773  0.2004 -0.0930  0.1634
25591W        W41725  18.002  10.296  11.479 -0.1037 -0.1930  0.2454
25592W        W41726  13.933  18.105  13.819  0.3412 -0.1283  0.2260
25593W        W41727   4.458   1.218   3.904  0.2601 -0.1859 -0.0489
25594W        W41728   3.159  11.184   2.041  0.0046  0.4013  0.0641
25595W        W41729   2.546  12.336   4.133 -0.0718 -0.0504  0.2814
25596W        W41730  13.292   9.703   4.232 -0.0977  0.0239  0.0798
25597W        W41731  13.667   1.282  16.525 -0.2023 -0.0179 -0.0575
25598W        W41732  16.022  10.911  16.420  0.0630  0.1405 -0.1119
25599W        W41733   7.672   4.738  11.115 -0.2512 -0.2089 -0.0534
25600W        W41734   4.297   4.478   1.600  0.2706 -0.3342 -0.1879
25601W        W41735   3.564  16.778   5.274 -0.0362  0.0865  0.4688
25602W        W41736   5.439   1.291   2.535  0.0408  0.3513  0.1341
25603W        W41737  11.351   9.470   5.428 -0.5002 -0.0222  0.0127
25604W        W41738   3.011   6.437  14.829  0.0395  0.0241  0.1024
25605W        W41739  13.558  11.432   4.460  0.0101 -0.1661  0.0750
25606W        W41740   5.511  11.609  13.198  0.0050 -0.1388  0.0856
25607W        W41741   9.898  10.696  11.192 -0.0880  0.3767 -0.2125
25608W        W41742   6.537  10.208   1.158  0.1630  0.3424 -0.3418
25609W        W41743  11.895   5.958   3.641 -0.3347  0.1067 -0.0873
25610W        W41744  12.052   0.306   3.968  0.0842 -0.0301  0.1192
25611W        W41745   2.949   2.837  13.726  0.1706 -0.0529 -0.2084
25612W        W41746   0.617   5.103   0.147  0.1829  0.3216 -0.3178
25613W        W41747  16.725  13.103   0.824  0.0688 -0.2714 -0.1500
25614W        W41748  17.524  12.308  15.681 -0.1747 -0.1313  0.2755
25615W        W41749  11.299   0.330  13.122  0.0215  0.0959  0.0281
25616W        W41750   8.309   6.027  16.245  0.0438  0.4245  0.2052
25617W        W41751   6.647   3.705   0.362  0.1004 -0.0986  0.0572
25618W        W41752  14.483   0.538   3.578  0.1615  0.0313 -0.0586
25619W        W41753  15.617  10.033   0.151  0.2270 -0.1996 -0.3693
25620W        W41754  12.944   2.638   5.537  0.0714  0.0379 -0.1319
25621W        W41755  13.806  13.418   1.129 -0.2094 -0.2492  0.0999
25622W        W41756  10.731   6.763   1.750 -0.0897 -0.0542 -0.2717
25623W        W41757   1.404   3.044   3.441 -0.3353 -0.1283 -0.0990
25624W        W41758  17.800  14.613   6.209  0.0213  0.0183 -0.0269
25625W        W41759  17.547   1.992   5.513  0.0158 -0.1722  0.2262
25626W        W41760   5.346  10.649  13.295  0.2395 -0.1649  0.1807
25627W        W41761   7.723   8.678   1.471  0.0480  0.1393 -0.0145
25628W        W41762  11.689   5.237  12.317 -0.1666  0.0995  0.1609
25629W        W41763  10.226  13.027  13.367  0.0375  0.0066 -0.1885
25630W        W41764   9.823  11.784   1.138 -0.0277  0.0456 -0.1002
25631W        W41765  10.387  12.468  12.391 -0.3515  0.3463  0.1958
25632W        W41766   6.894   6.188  11.337 -0.1347  0.0643 -0.1306
25633W        W41767   5.736  11.400  12.168  0.3320 -0.0006 -0.0562
25634W        W41768   1.434  13.837  12.695  0.2090  0.0243  0.2378
25635W        W41769   5.947   9.934   1.170 -0.0537  0.1017  0.1136
25636W        W41770   6.277   4.787  14.255 -0.3184  0.1177  0.0156
25637W        W41771   3.207  13.423   4.631 -0.1786 -0.2575 -0.0363
25638W        W41772   5.050  11.783   2.005 -0.0288  0.2928  0.0813
25639W        W41773   1.013  12.112  14.613 -0.3163  0.0178 -0.1541
25640W        W41774   2.251  10.448  13.529  0.1565 -0.2491  0.2808
25641W        W41775   4.148  16.705  12.261  0.3292  0.4381 -0.3154
25642W        W41776  13.952  11.950  15.780  0.4429 -0.1256  0.2775
25643W        W41777  10.596   6.077  14.909  0.1228  0.3018 -0.0354
25644W        W41778   3.579  13.805   1.717 -0.0542  0.0133 -0.0102
25645W        W41779   5.034  10.764   1.657 -0.1026  0.1024 -0.3585
25646W        W41780   8.838  14.363  11.293 -0.0078  0.1017  0.0262
25647W        W41781   0.973  15.434  14.161  0.1607 -0.3621  0.3148
25648W        W41782   7.820   6.315  10.959 -0.2450  0.3030  0.1802
25649W        W41783   3.816   8.833  12.771  0.0121  0.0225 -0.0852
25650W        W41784  12.265   8.896   0.184  0.0903  0.0485 -0.1142
25651W        W41785  10.447  13.213  16.015  0.2269 -0.0685  0.1903
25652W        W41786   2.236  13.762   4.903 -0.0661 -0.1051  0.2265
25653W        W41787   2.472   5.117   3.269 -0.0631  0.2397 -0.0420
25654W        W41788   7.136  17.807   0.424 -0.0701  0.3361 -0.1061
25655W        W41789   4.818   0.984   5.305 -0.0448  0.0667 -0.1698
25656W        W41790   9.805  12.760  13.223  0.0276 -0.1379 -0.2751
25657W        W41791  16.409  12.281   2.094  0.4286 -0.2314  0.2514
25658W        W41792  16.021  15.632   2.898 -0.2040 -0.1938 -0.1213
25659W        W41793   5.910   8.374   3.555 -0.1883  0.0355  0.2242
25660W        W41794   3.900  15.787  12.677 -0.1933 -0.1565 -0.0048
25661W        W41795   9.208  18.155  15.337  0.1492  0.2301 -0.0173
25662W        W41796   0.456   9.431   2.392  0.2765 -0.0498  0.2402
25663W        W41797   2.570  17.438  15.059  0.1773  0.2285 -0.1049
25664W        W41798   8.903   8.624   2.760  0.0637  0.0549 -0.4015
25665W        W41799  13.003  13.239  16.323  0.1320 -0.1357  0.0788
25666W        W41800  17.108   1.269   1.234  0.1055 -0.0358 -0.2993
25667W        W41801  14.717  17.970  12.070 -0.5993 -0.1089  0.0896
25668W        W41802   9.691  16.052  15.729 -0.1799 -0.1640 -0.4249
25669W        W41803   8.660   3.442   5.599 -0.3026 -0.3044  0.1171
25670W        W41804   4.707  11.454  13.671  0.1678 -0.0828 -0.2116
25671W        W41805  17.536   0.496  14.708 -0.3112  0.2141  0.0371
25672W        W41806   7.238  16.502   1.100  0.0166  0.2677  0.0032
25673W        W41807  14.935  14.060  14.664 -0.0897  0.2745 -0.1282
25674W        W41808  17.321  17.104   2.937 -0.1049 -0.1931  0.0671
25675W        W41809  15.503   4.909   2.639  0.1522  0.0507  0.0995
25676W        W41810   3.321  14.318   1.845 -0.1866  0.0687 -0.0100
25677W        W41811   1.722  13.656   3.719 -0.1131 -0.0890 -0.0335
25678W        W41812  17.566  17.797   0.033 -0.1301 -0.1005  0.0754
25679W        W41813   7.925  14.004   0.023  0.1611  0.0276  0.2347
25680W        W41814   8.628   7.242  11.437  0.2064 -0.0564 -0.0405
25681W        W41815   2.617   8.910   4.364 -0.0441 -0.2888 -0.0569
25682W        W41816   3.355   5.100   2.786 -0.3905 -0.0634  0.0160
25683W        W41817  17.656  17.970   5.622 -0.1190  0.0479 -0.0625
25684W        W41818   3.493   0.358   5.027 -0.3125 -0.0645  0.0393
25685W        W41819  17.794  16.281   3.371  0.1980  0.2234 -0.0064
25686W        W41820   5.636   1.826   5.045  0.0147  0.0245  0.1663
25687W        W41821  14.235   2.455  12.734 -0.3208 -0.1338 -0.0659
25688W        W41822   8.439   5.827   1.747 -0.1652  0.1160  0.2663
25689W        W41823  16.381   1.108   2.963 -0.0518  0.0255  0.0383
25690W        W41824  12.848  14.596   1.504 -0.2319 -0.1113 -0.1201
25691W        W41825   8.864  13.984   4.746  0.0365  0.1335  0.0995
25692W        W41826   5.655   3.351  11.653  0.0410 -0.3306 -0.0512
25693W        W41827   6.850   2.258   5.495 -0.1025  0.4013 -0.2396
25694W        W41828  12.012  15.502   4.996 -0.1587 -0.1676  0.1831
25695W        W41829   2.965   1.541  16.483  0.1056  0.2409  0.0665
25696W        W41830   4.672   6.627  12.868  0.2211  0.2697  0.0285
25697W        W41831  13.328   9.130  12.070  0.1286  0.1751 -0.0250
25698W        W41832   5.188  10.522   0.703 -0.1119 -0.1463 -0.1342
25699W        W41833  14.514  17.012   4.111 -0.0512  0.2245 -0.0403
25700W        W41834  15.141   9.871  15.870  0.3211 -0.2893 -0.1708
25701W        W41835  15.339  14.683   4.785 -0.0661  0.2966  0.3040
25702W        W41836  16.054   0.134  15.067  0.2388  0.0905 -0.2242
25703W        W41837  13.134   7.002   0.237 -0.0856 -0.2338  0.2216
25704W        W41838   0.914   2.163   2.078 -0.2072 -0.2361 -0.0336
25705W        W41839   7.519  17.934  13.212 -0.0636 -0.3865  0.1628
25706W        W41840   2.080   6.946   5.582 -0.0598  0.0719 -0.1618
25707W        W41841   7.163  11.958  16.354  0.0434 -0.0397  0.1384
25708W        W41842   4.442   9.037   1.448  0.1408 -0.2756  0.1053
25709W        W41843   5.159  12.904   4.391 -0.0907 -0.0611 -0.1365
25710W        W41844   4.942  11.935  12.380  0.3280 -0.2979 -0.0612
25711W        W41845  12.115   8.088  11.381 -0.0920  0.0838  0.3859
25712W        W41846  17.771   8.410   3.272 -0.1167  0.1961 -0.1222
25713W        W41847  10.294   6.839  15.408  0.1360  0.1196  0.0098
25714W        W41848  10.661   7.396   4.930 -0.3810  0.1990  0.0261
25715W        W41849   5.661  11.071   4.693 -0.2580  0.1817 -0.1482
25716W        W41850   1.007  12.578   4.080  0.2054 -0.2049 -0.0306
25717W        W41851   8.239  17.188  11.743 -0.0095 -0.2286  0.0206
25718W        W41852   4.758   8.835  14.446  0.2211  0.2290 -0.0449
25719W        W41853  16.557   5.439   5.043 -0.1568 -0.0308  0.2555
25720W        W41854  15.058  13.609   3.876 -0.0784 -0.1499 -0.3791
25721W        W41855  17.336  17.670   4.857 -0.0274 -0.2461  0.1707
25722W        W41856   7.706   3.508  13.121  0.1883  0.0924  0.1144
25723W        W41857  14.785  11.089   5.002  0.2037 -0.0593  0.0412
25724W        W41858   1.241   9.480  15.287 -0.3465  0.0273  0.2543
25725W        W41859  15.499   7.660  11.923  0.0846 -0.0319 -0.3376
25726W        W41860  14.497   9.570  13.133 -0.1579 -0.0230 -0.3335
25727W        W41861  10.398  13.356  12.899  0.0635  0.1167 -0.3128
25728W        W41862   6.248  18.119   0.888  0.3064 -0.1605  0.1288
25729W        W41863   9.058  11.912  15.987  0.2093  0.1340 -0.1068
25730W        W41864   3.080   7.840   4.753  0.0510 -0.0499  0.1981
25731W        W41865  15.875   9.855   2.980 -0.5851 -0.3330 -0.2278
25732W        W41866  15.621   9.318  15.684  0.0416 -0.2806  0.1892
25733W        W41867  16.476  17.769  14.462  0.3383 -0.0855 -0.2914
25734W        W41868   6.519  17.468   5.965 -0.3585  0.0132 -0.1333
25735W        W41869   9.001  17.799   0.381  0.2448  0.0381  0.1269
25736W        W41870   4.905   6.149  12.825  0.3271 -0.1992  0.0200
25737W        W41871   8.576   3.904   3.855  0.0386 -0.1167 -0.3140
25738W        W41872   4.325  18.029  11.706 -0.0730 -0.0510  0.2991
25739W        W41873   0.567   0.693   5.661  0.0508  0.0506 -0.0556
25740W        W41874   0.538   5.791   5.825 -0.0771  0.0801  0.0153
25741W        W41875   5.246  16.953   3.049 -0.3873  0.1927 -0.0992
25742W        W41876  16.243   5.623  14.299 -0.2540 -0.3919  0.0052
25743W        W41877  11.593  10.720   2.762 -0.0035  0.0370 -0.0992
25744W        W41878   1.945  17.666  13.579  0.2709  0.1619 -0.2291
25745W        W41879   6.535   9.195  14.512 -0.1531 -0.1441 -0.1163
25746W        W41880  16.984  16.248  11.017 -0.1958  0.2444  0.0271
25747W        W41881   8.347  16.913   1.507  0.1945  0.2193 -0.1232
25748W        W41882   1.349  11.617   4.406 -0.1990  0.1208  0.0902
25749W        W41883  12.583   7.535  15.620  0.4001  0.2727  0.1558
25750W        W41884  17.579  12.600  12.606  0.1004  0.0099  0.2447
25751W        W41885   2.980  16.719  14.078 -0.0537  0.0932  0.0062
25752W        W41886   2.555   6.395  13.960 -0.1749 -0.0386 -0.2374
25753W        W41887  12.796  13.419   1.140 -0.2406  0.0977 -0.2701
25754W        W41888  15.707   7.043   0.431  0.3282  0.0556 -0.0138
25755W        W41889   0.424   9.340  15.575  0.0381 -0.1403 -0.0424
25756W        W41890   3.939  15.691  15.425  0.0107  0.2643  0.2252
25757W        W41891   7.871  13.044  15.216  0.0981 -0.1654  0.2413
25758W        W41892   8.339   7.147   3.481  0.0067 -0.3564 -0.0611
25759W        W41893   7.438   5.361  11.067 -0.4342  0.1361  0.0336
25760W        W41894   1.522  15.722  16.101 -0.2222  0.1433 -0.1677
25761W        W41895   3.759  11.257  14.801 -0.1669 -0.0061 -0.2523
25762W        W41896   2.158   8.190  12.598  0.2078  0.1688 -0.0802
25763W        W41897   1.325  16.415  15.651 -0.0012 -0.1066  0.0195
25764W        W41898   1.928   9.638   0.410 -0.0351  0.3223  0.1173
25765W        W41899  17.517  15.538  11.825  0.2674  0.0565  0.0170
25766W        W41900   1.659   2.764  15.968  0.1249 -0.4262 -0.2124
25767W        W41901  13.430   1.058  13.070 -0.0731  0.1192  0.0482
25768W        W41902   2.773   8.863  13.903 -0.3659  0.1582  0.1854
25769W        W41903   9.088   6.616   1.452 -0.0946  0.3206 -0.0728
25770W        W41904  17.121   8.079  10.830 -0.1506 -0.3693 -0.3595
25771W        W41905   1.475   0.991  15.705 -0.0847  0.0340  0.0297
25772W        W41906  11.901  13.447  15.291  0.1751  0.0797 -0.0307
25773W        W41907   7.440   5.842  14.948  0.1389 -0.1935  0.0958
25774W        W41908  17.872  12.086  10.606  0.2894 -0.0492 -0.1098
25775W        W41909  11.415  14.909   6.067 -0.2872  0.0341 -0.1251
25776W        W41910   9.692   6.119  15.816  0.1453  0.3569 -0.1802
25777W        W41911   5.814  14.336  12.581 -0.0696 -0.1389 -0.3003
25778W        W41912   4.809  15.784   3.788  0.0022 -0.2752  0.0960
25779W        W41913   1.287   8.200  13.640 -0.0730 -0.2042  0.0773
25780W        W41914  10.684   0.595  12.610 -0.1032  0.2213 -0.0067
25781W        W41915  15.156   6.000  15.387  0.3686  0.1473 -0.0036
25782W        W41916  15.078   3.949   5.592 -0.1919 -0.0975  0.0864
25783W        W41917  17.867  10.568   4.515 -0.0750  0.1513 -0.5312
25784W        W41918  11.046   6.134  16.327  0.2209 -0.2018  0.1790
25785W        W41919  15.604   0.187  13.932  0.0247  0.3469  0.4656
25786W        W41920  13.025  15.650  14.397  0.0597 -0.2244  0.1694
25787W        W41921   2.549   0.104   4.065 -0.1437 -0.3229  0.1687
25788W        W41922   5.865   8.433  10.606  0.3227  0.4415  0.2964
25789W        W41923  12.880  12.213   0.226  0.0529 -0.3056 -0.0704
25790W        W41924   9.200   5.111   1.041  0.1867 -0.1688 -0.4978
25791W        W41925   9.308   0.921   5.283 -0.0001  0.2360 -0.4198
25792W        W41926  14.233  15.489   3.106 -0.0230  0.0451 -0.3002
25793W        W41927   1.986  18.124   0.829 -0.0903 -0.2268  0.1348
25794W        W41928  17.464  14.282   1.965 -0.1234 -0.2130 -0.3056
25795W        W41929   2.972   3.213   2.966  0.1550 -0.5554  0.1905
25796W        W41930   3.511   7.368   5.896  0.2674  0.0115 -0.0762
25797W        W41931  11.484   0.234  11.868 -0.0042  0.0847 -0.0030
25798W        W41932   3.472  12.863   1.919  0.0503  0.1490 -0.1193
25799W        W41933  10.633  16.567   3.363  0.2024 -0.2160 -0.2497
25800W        W41934  13.499   6.468  16.098 -0.0485  0.1668 -0.4631
25801W        W41935   1.838  13.962   3.261 -0.1767  0.3484 -0.2517
25802W        W41936   0.904   7.119  16.127  0.1364 -0.1971  0.1224
25803W        W41937  16.956   1.562   1.568  0.2828 -0.0312  0.1309
25804W        W41938   9.477  17.246  15.315  0.2133 -0.2381 -0.0546
25805W        W41939  17.390  15.103   1.389  0.2140  0.0206 -0.0404
25806W        W41940   8.447   5.372   0.500  0.1768  0.0633 -0.3488
25807W        W41941  10.815  16.777  16.517  0.0284 -0.2500  0.0674
25808W        W41942   3.836   4.930   0.887 -0.1941 -0.0511 -0.2017
25809W        W41943  14.939  16.765  12.470  0.2863 -0.2555  0.1129
25810W        W41944   8.871   7.811  12.372 -0.0929  0.0345  0.0158
25811W        W41945   2.154   3.011  11.575 -0.0723  0.0464 -0.2215
25812W        W41946   1.478  13.157   4.739 -0.0181 -0.0828 -0.2353
25813W        W41947   1.835  14.983   2.163  0.0900 -0.1220  0.1544
25814W        W41948   2.513   6.118   3.584  0.0682  0.0535  0.1377
25815W        W41949  15.886   1.841   2.132 -0.4849 -0.0712  0.2179
25816W        W41950   0.674  10.122  15.733 -0.1448  0.1069 -0.1198
25817W        W41951  15.899  11.572  11.368 -0.2955  0.0789 -0.0040
25818W        W41952   8.506  10.653  14.803  0.2486  0.1406  0.2393
25819W        W41953   2.898   9.977   2.761  0.4102 -0.2414  0.1308
25820W        W41954   4.077   4.536  15.395 -0.2046  0.1970 -0.0967
25821W        W41955   0.445  11.705   0.155  0.3073  0.0399  0.3778
25822W        W41956   2.877   8.841   3.683 -0.1552  0.1967 -0.0796
25823W        W41957  12.384   0.729  11.737 -0.2361  0.0876  0.1287
25824W        W41958   0.621  11.817   1.978 -0.0328 -0.0177  0.1497
25825W        W41959   4.193  12.728   2.428 -0.3645  0.0987  0.1042
25826W        W41960  13.014   4.038  16.137 -0.2129  0.3084 -0.2673
25827W        W41961   7.038  12.655  14.121 -0.1166  0.0445 -0.0945
25828W        W41962  17.571   2.412   3.009  0.0133 -0.1549  0.2759
25829W        W41963   9.361   1.756  12.699 -0.0613 -0.1187 -0.0426
25830W        W41964  15.290  11.301  12.153  0.2210  0.0360 -0.0766
25831W        W41965   3.191  15.922  13.792 -0.1322  0.1021 -0.1395
25832W        W41966   8.098   2.316  14.123 -0.3586  0.1139  0.3313
25833W        W41967  12.034   2.068  14.474  0.0940  0.3363 -0.0141
25834W        W41968  17.926   4.980   0.887  0.0080  0.1151 -0.0868
25835W        W41969  16.238   0.547   1.345 -0.0471 -0.2430  0.0572
25836W        W41970  11.452   2.748  15.587 -0.2367 -0.1758  0.0199
25837W        W41971   4.677  14.172   1.284  0.0469 -0.0780  0.0025
25838W        W41972  14.668  16.682  12.894 -0.0059  0.0132  0.1041
25839W        W41973  13.140  18.160   4.498  0.3382  0.0025  0.0777
25840W        W41974   3.006  14.245  15.009 -0.3061 -0.0463  0.0728
25841W        W41975  13.486   1.674  11.902 -0.1556 -0.1217  0.1671
25842W        W41976  11.810   2.278  14.059  0.1278 -0.3154 -0.0535
25843W        W41977   4.956  10.538  13.608 -0.1196  0.1922 -0.0278
25844W        W41978  14.145   1.122   0.139  0.0663  0.1726  0.1354
25845W        W41979   9.178   4.875   2.361 -0.0852  0.1741 -0.0495
25846W        W41980   6.147   6.225  16.202 -0.3169 -0.1629 -0.0273
25847W        W41981  14.413  16.064  14.765  0.0862 -0.1420  0.2917
25848W        W41982  14.517   7.271  12.864 -0.1398 -0.0496 -0.2908
25849W        W41983  16.499  11.734  13.844  0.1353  0.3159 -0.1306
25850W        W41984   7.415   1.588  12.144 -0.1258 -0.0939 -0.2448
25851W        W41985  10.710  10.707   5.068 -0.1284  0.0946 -0.2083
25852W        W41986   6.336   4.505   2.529 -0.1355  0.1836 -0.0843
25853W        W41987   7.785  12.992   1.128 -0.0916  0.0989 -0.1813
25854W        W41988   4.226   9.885  13.891 -0.0117  0.1805 -0.1825
25855W        W41989   9.382   0.444   5.374  0.0057 -0.1216  0.2376
25856W        W41990   4.659  17.971  15.756 -0.2371 -0.0898  0.1930
25857W        W41991   8.800   4.656   4.637 -0.2926  0.3580  0.0209
25858W        W41992  16.026  16.001   2.497  0.0573 -0.3961 -0.1718
25859W        W41993  14.830   0.326  15.109 -0.3169 -0.0671  0.3492
25860W        W41994  17.895  11.098   4.405 -0.1315 -0.1685 -0.1317
25861W        W41995   0.784  10.295  11.766  0.0065  0.1454  0.0219
25862W        W41996   4.722   3.506   3.151  0.1171  0.3218 -0.0731
25863W        W41997   5.152   3.961   3.847 -0.0748  0.2358  0.8176
25864W        W41998   7.334  16.860   3.494 -0.1633  0.2034 -0.0134
25865W        W41999   6.709  12.211   5.415  0.2507  0.2461 -0.2042
25866W        W42000  16.893   5.451   4.574  0.0998 -0.0910  0.0365
25867W        W42001  13.601  10.601   0.534  0.1555  0.1057 -0.2862
25868W        W42002   3.062   7.686  16.318  0.2336  0.0157  0.0037
25869W        W42003   8.573  16.742   2.081  0.0390  0.0496 -0.0490
25870W        W42004  13.231  17.662   3.887  0.0697 -0.1424 -0.1021
25871W        W42005  14.752  10.558   2.462 -0.3835 -0.0726  0.0557
25872W        W42006   8.325   0.644   0.047 -0.1418  0.0308  0.0804
25873W        W42007  14.528  10.015  13.436  0.1144 -0.1024  0.0367
25874W        W42008  13.545   4.746   1.607 -0.2171 -0.0623 -0.0450
25875W        W42009  16.756   8.000   4.487  0.0342  0.0648 -0.2693
25876W        W42010   5.597  10.514  11.929  0.3775 -0.0935  0.2586
25877W        W42011   1.448  11.903  13.055 -0.3633 -0.3340 -0.0426
25878W        W42012  13.526  15.733  15.054  0.1097  0.3194  0.1013
25879W        W42013  15.877  12.806   2.850  0.1634 -0.2440 -0.0104
25880W        W42014   3.274  17.489   4.327  0.1420  0.0788 -0.0719
25881W        W42015   6.183  10.632  11.170 -0.1383  0.0370 -0.0148
25882W        W42016   1.195   0.998  15.224  0.0624  0.2224 -0.2195
25883W        W42017   3.392   1.061  13.601 -0.0285  0.1259  0.1242
25884W        W42018   1.829   3.354   0.606 -0.1518 -0.2308 -0.0485
25885W        W42019  18.160   3.444  13.418 -0.0036 -0.2123  0.0699
25886W        W42020   8.296  16.529  12.342  0.2034  0.1680 -0.0051
25887W        W42021   1.577   5.340   2.929  0.0310 -0.0926  0.2749
25888W        W42022  13.410   9.348   1.131  0.1298 -0.2795 -0.1225
25889W        W42023  14.833   7.289   5.876 -0.0413  0.0683 -0.4484
25890W        W42024   0.977   7.940   1.509 -0.0343  0.1375  0.1815
25891W        W42025  17.663   8.644  14.426 -0.1087  0.0025 -0.0190
25892W        W42026  16.125   9.106   1.019  0.1450  0.0920 -0.1543
25893W        W42027  16.927   4.674   5.171  0.0898  0.1358  0.0249
25894W        W42028   2.946  12.226  15.347 -0.2444 -0.0315 -0.1169
25895W        W42029   4.306   9.590   0.854 -0.0234  0.2177 -0.1245
25896W        W42030  17.219   3.277   4.374 -0.1580  0.1866 -0.0652
25897W        W42031  10.303   1.324   4.373  0.2233 -0.0159  0.0863
25898W        W42032   6.099  14.846   6.041 -0.0376 -0.2573  0.0869
25899W        W42033   8.782   9.956  15.505  0.1386 -0.0430 -0.0227
25900W        W42034   5.019   7.292   5.487  0.1018  0.1765 -0.3652
25901W        W42035   2.069   4.404   1.621 -0.0830  0.0935  0.0694
25902W        W42036   9.103  13.406   1.334  0.1882 -0.3173 -0.2446
25903W        W42037   3.095   8.207   4.395 -0.0241 -0.0167 -0.0890
25904W        W42038  16.430  12.958  14.993 -0.2834 -0.1687  0.6766
25905W        W42039   6.650  16.299   1.168 -0.1116 -0.0994  0.2450
25906W        W42040  11.536  17.400   5.930 -0.3290 -0.2655 -0.0778
25907W        W42041   4.008  10.735   0.413 -0.2634 -0.1590  0.0737
25908W        W42042   7.087   2.078   1.366  0.0088 -0.1159  0.0948
25909W        W42043  17.006  17.166  13.826  0.2533 -0.2403 -0.0744
25910W        W42044   8.917   2.948   6.283  0.1275  0.0883 -0.0398
25911W        W42045  17.141   8.290   0.761  0.1745 -0.2199  0.3063
25912W        W42046  17.116   7.037   2.253 -0.0089  0.0782 -0.3183
25913W        W42047   9.891  16.560  12.546  0.0245 -0.1741  0.2317
25914W        W42048  14.309   0.328  15.113  0.1522  0.2429 -0.1187
25915W        W42049   8.095  11.247   2.928  0.1209  0.0463 -0.2677
25916W        W42050  12.028   7.956  14.908 -0.0866 -0.0936  0.1190
25917W        W42051   1.071  13.583  14.384 -0.1142  0.1936  0.0773
25918W        W42052   0.179   7.862   4.917  0.0309  0.1448 -0.0519
25919W        W42053   1.878  14.858   0.144 -0.0532 -0.0221 -0.1336
25920W        W42054   6.265  12.329  12.290  0.2527  0.3173 -0.1003
25921W        W42055   9.872   4.892   4.877  0.0836 -0.0159 -0.1498
25922W        W42056   0.762   3.419  12.856  0.0000  0.2036  0.1144
25923W        W42057  18.122   2.000  12.273  0.2854  0.3301 -0.1677
25924W        W42058  11.471  13.674   1.975 -0.1667  0.0642  0.1810
25925W        W42059   3.884   4.605  12.236 -0.3438 -0.1850  0.0086
25926W        W42060   4.799   7.340   0.581 -0.0044  0.0461  0.0133
25927W        W42061   3.450   6.858   0.495  0.1375 -0.0243 -0.0088
25928W        W42062   7.899  15.400  12.249 -0.2303 -0.1340  0.0808
25929W        W42063  14.859   0.313  12.258  0.0208  0.1691 -0.0818
25930W        W42064   8.113   6.552  14.732 -0.0853  0.0907  0.1484
25931W        W42065  12.923   3.992  15.145 -0.0880 -0.2088  0.0906
25932W        W42066   6.861   0.470  12.730 -0.3209 -0.0820  0.2813
25933W        W42067   2.396   0.731   0.597  0.1307  0.0967  0.0774
25934W        W42068  11.208   6.204   2.980 -0.0221  0.1695  0.1172
25935W        W42069  13.367   6.441   3.044  0.2004 -0.0116  0.1199
25936W        W42070   9.237   3.763  13.812 -0.0163 -0.0922 -0.0778
25937W        W42071   1.718  13.757  15.006 -0.3340  0.2074  0.0368
25938W        W42072  11.648   5.194  14.982 -0.1897 -0.1619  0.0874
25939W        W42073   6.529  13.665   5.376 -0.2787 -0.3370  0.2119
25940W        W42074   0.128   2.075  11.165 -0.2075 -0.3066 -0.1256
25941W        W42075  15.890   1.797  14.854 -0.2088 -0.0616  0.1422
25942W        W42076  11.387  13.962  12.923 -0.1423  0.1283 -0.4278
25943W        W42077  15.189  11.512  11.392  0.2703 -0.0005  0.1472
25944W        W42078  12.012   6.883   5.541 -0.1860  0.3333 -0.0225
25945W        W42079  16.114  12.853   5.162 -0.2307  0.3316  0.1127
25946W        W42080  14.036   5.732  14.517  0.1030  0.0076 -0.1792
25947W        W42081   4.417   1.507  12.165  0.0370 -0.0836  0.0838
25948W        W42082   2.608   0.495  15.412  0.2064 -0.1042 -0.0322
25949W        W42083  15.210   4.901   4.256 -0.0239 -0.0670 -0.0698
25950W        W42084   8.963  14.418   1.561  0.2104 -0.1380 -0.0123
25951W        W42085  14.344   8.745  12.993  0.1046 -0.0305  0.0678
25952W        W42086   2.695   6.084  15.321 -0.1844  0.3145 -0.0807
25953W        W42087  16.460  13.166  14.389 -0.0040  0.2757  0.2955
25954W        W42088  15.201  17.604  11.868  0.0352 -0.0019 -0.1373
25955W        W42089   7.687  15.287  14.764  0.2782 -0.0987 -0.1169
25956W        W42090  16.757  17.836   1.225  0.1353 -0.1229  0.1639
25957W        W42091   0.330   7.291   0.629 -0.2486  0.0031  0.1530
25958W        W42092  12.622   2.205   1.260  0.0330  0.0930 -0.1501
25959W        W42093   0.758   0.507  13.965  0.0456  0.1289 -0.0752
25960W        W42094   0.942  16.931  14.914  0.1783 -0.1216 -0.0392
25961W        W42095   7.775  14.920  15.813 -0.1518 -0.1257 -0.2329
25962W        W42096   5.944   4.874  11.461 -0.0239 -0.0417  0.0541
25963W        W42097   8.584  11.804  11.946 -0.2245  0.0676  0.2409
25964W        W42098  14.989   2.329   4.202  0.1515  0.0602  0.0160
25965W        W42099  12.150  13.714   4.533 -0.0634  0.2420 -0.1092
25966W        W42100  11.035  17.319   5.445  0.1853 -0.3707  0.0534
25967W        W42101   7.028  15.029  10.263  0.3314 -0.0250 -0.1467
25968W        W42102   9.731  12.520  12.826  0.0366  0.1855  0.0660
25969W        W42103   7.771   7.517   0.363  0.0420  0.2122 -0.1252
25970W        W42104   5.345  12.912  11.933  0.2668 -0.1067  0.1503
25971W        W42105   5.581  12.613   4.775 -0.2461  0.0317 -0.0359
25972W        W42106   4.957   9.994  16.177 -0.0799 -0.0722 -0.0840
25973W        W42107   5.111   6.359  14.733  0.2081  0.0100 -0.4849
25974W        W42108   1.227  17.900   1.001  0.0916 -0.4714 -0.1992
25975W        W42109   3.484   6.682   3.432 -0.0696 -0.1887 -0.0263
25976W        W42110  13.132  15.867   4.372 -0.1704 -0.0379  0.0996
25977W        W42111  17.406   5.400   1.660  0.0157 -0.0057 -0.1080
25978W        W42112  18.039   0.703  15.863 -0.1155 -0.4190 -0.0431
25979W        W42113   5.915  15.744   3.372 -0.1376 -0.2530 -0.3637
25980W        W42114   8.903   7.806   1.675  0.1634 -0.0199  0.2991
25981W        W42115   2.104  12.378  14.228 -0.1387  0.1469  0.0270
25982W        W42116  15.449  10.722  14.067  0.0757  0.1622  0.0721
25983W        W42117  18.138   4.419   5.969 -0.0670  0.0601  0.0127
25984W        W42118   2.956   9.162   2.081 -0.1179  0.2790  0.0094
25985W        W42119   7.805   6.314  13.556  0.0110 -0.0817  0.1537
25986W        W42120   9.874   8.333   1.616 -0.0172  0.2651 -0.0694
25987W        W42121   3.083   5.863   4.338  0.0042  0.2204 -0.0699
25988W        W42122   5.237  10.578   1.239 -0.1068  0.0274  0.0220
25989W        W42123   6.299   1.790   5.291 -0.1995 -0.1048 -0.1217
25990W        W42124   5.839   9.280  15.497  0.0510  0.3635  0.2447
25991W        W42125  11.502  13.716   3.951 -0.1722  0.0558 -0.0563
25992W        W42126   4.290  11.296   1.245  0.0511 -0.1363 -0.0264
25993W        W42127  14.999   1.413   4.085  0.0243  0.0054 -0.2749
25994W        W42128  15.321   5.865  14.559 -0.0955 -0.0400  0.1299
25995W        W42129  16.409  16.237  14.611 -0.0282 -0.0779 -0.0855
25996W        W42130  13.897   6.875  14.378 -0.0076  0.1389 -0.3440
25997W        W42131   6.232  13.762  14.020 -0.0243 -0.1733  0.1058
25998W        W42132  13.501   2.256  11.764  0.7535 -0.0235 -0.0415
25999W        W42133   8.008   4.173   4.064 -0.1452 -0.1738 -0.1962
26000W        W42134   8.193   7.349  14.633  0.0056  0.0525 -0.0027
26001W        W42135  12.244  15.211  12.667  0.4301 -0.1087  0.2514
26002W        W42136  14.959  11.881   5.281 -0.3272 -0.1947  0.0173
26003W        W42137  10.302  12.143  14.712  0.4036  0.2857  0.0749
26004W        W42138   5.958   8.905  11.361 -0.0216 -0.1814 -0.0457
26005W        W42139  13.081   2.147  15.503 -0.0616  0.0052 -0.3040
26006W        W42140  16.744  17.866   1.819  0.2865  0.0582  0.1162
26007W        W42141  10.154   7.931   1.329  0.0183  0.2337 -0.1505
26008W        W42142  10.453   5.954  13.590 -0.0168  0.1569  0.0775
26009W        W42143   3.743   2.717  14.268  0.2716 -0.3060  0.0595
26010W        W42144   5.664   0.259  13.802 -0.0661 -0.2559 -0.0353
26011W        W42145   9.230  13.190  13.785  0.1284  0.2123 -0.1229
26012W        W42146  11.168   0.596  16.032  0.1468  0.0949 -0.0113
26013W        W42147  15.572   1.327   1.482  0.2559 -0.0574  0.0173
26014W        W42148  14.632  15.462   3.935 -0.2457 -0.0736 -0.1396
26015W        W42149  12.864  14.557  15.134 -0.1949 -0.2335  0.1444
26016W        W42150  15.921   7.901  11.938  0.2023  0.2877  0.0073
26017W        W42151   0.401  13.367  14.514 -0.1459  0.0918  0.2123
26018W        W42152   6.979   4.329  14.091 -0.0396  0.3211  0.1615
26019W        W42153   2.335   5.585   0.507 -0.2115  0.0779 -0.0466
26020W        W42154   0.052   0.182  12.472 -0.1708 -0.1418 -0.0784
26021W        W42155   9.238  16.125   4.495 -0.0373 -0.1944 -0.2271
26022W        W42156  11.720   1.889   0.893  0.2860  0.1566 -0.0059
26023W        W42157   3.775  12.838  15.523 -0.0458  0.1998  0.1261
26024W        W42158  14.906   5.959  14.103  0.3194  0.0472 -0.0125
26025W        W42159  11.209  10.626   5.179  0.0929  0.1530  0.1999
26026W        W42160  14.653  17.519  14.248  0.3572 -0.1593 -0.0016
26027W        W42161   5.273   1.917   1.530 -0.2783 -0.1628  0.1274
26028W        W42162  12.878  10.267   1.545 -0.1151 -0.2780  0.0966
26029W        W42163   3.621  16.162   1.678  0.0874  0.0790  0.0874
26030W        W42164  10.834   3.053   2.547  0.1651  0.0314 -0.0261
26031W        W42165  10.952  10.530   0.181  0.1494 -0.0617  0.4126
26032W        W42166  15.362   1.549  13.972  0.0588 -0.3667  0.2359
26033W        W42167   4.730  11.508   0.392 -0.1595  0.2243 -0.0623
26034W        W42168   0.300   8.649   2.815 -0.0105 -0.0894 -0.0087
26035W        W42169  14.584   0.340  15.575  0.0868  0.2211 -0.0825
26036W        W42170  10.731   4.790  10.914 -0.0015  0.0739 -0.0661
26037W        W42171  14.853  12.927  15.045  0.2211 -0.0031  0.0683
26038W        W42172   0.919   8.626  15.641 -0.2622 -0.1645 -0.0094
26039W        W42173   5.657   4.197  12.467  0.0947 -0.0785 -0.3590
26040W        W42174   0.240   3.334  12.578 -0.0235 -0.1251 -0.1105
26041W        W42175   1.028   3.204  12.030  0.0299 -0.0691 -0.0460
26042W        W42176   1.400   8.596  14.660 -0.0559  0.1295  0.1531
26043W        W42177   7.936   3.471   1.019  0.0643  0.1189  0.0213
26044W        W42178   7.004  16.503  16.510  0.1462  0.1233  0.0392
26045W        W42179  11.010  13.383   1.451 -0.1290  0.0333  0.0803
26046W        W42180   5.797  16.573   2.044  0.1333  0.1870 -0.0065
26047W        W42181  10.307  18.096   0.825  0.0592 -0.0785  0.1008
26048W        W42182  15.433  13.443  13.296  0.1867 -0.0257 -0.3818
26049W        W42183   8.707  16.053   3.600  0.0264 -0.0293 -0.2532
26050W        W42184  17.131   8.666   4.553 -0.2043 -0.2025 -0.0422
26051W        W42185  12.348  11.159   0.169  0.0546  0.1252  0.4213
26052W        W42186  12.151  14.544  13.083 -0.2140 -0.1193  0.2210
26053W        W42187   5.715   0.538   4.359  0.1430  0.2461 -0.0982
26054W        W42188  10.412   5.378   5.760 -0.0001 -0.4489  0.1687
26055W        W42189  14.833  10.825  11.822 -0.0639 -0.1871 -0.0495
26056W        W42190  12.942   7.920  10.904 -0.2029  0.2741  0.4684
26057W        W42191   2.227  11.489   4.316 -0.3930  0.0516 -0.1899
26058W        W42192  10.240  13.717  14.369  0.2665  0.1642  0.2226
26059W        W42193  14.075   4.267  12.744 -0.4022  0.0801  0.1349
26060W        W42194  16.319  12.764   0.708  0.3134  0.1946 -0.0680
26061W        W42195   6.259   3.523   5.271  0.0026 -0.2345  0.0456
26062W        W42196   3.044  18.042  14.239 -0.2333 -0.0345 -0.2263
26063W        W42197   9.717  14.937   1.968 -0.0011  0.2760 -0.3846
26064W        W42198  16.417   0.286  15.490 -0.2111 -0.1270 -0.0818
26065W        W42199  16.897  14.174  15.902 -0.1957  0.1958  0.2257
26066W        W42200  12.233   6.134  14.431  0.0857 -0.3417  0.0129
26067W        W42201  11.344   0.304   1.697  0.2169  0.1282  0.0517
26068W        W42202  17.215   1.704  13.845  0.0279  0.1935  0.1299
26069W        W42203  17.382  11.412  14.290 -0.2669  0.2436  0.5362
26070W        W42204   6.770   3.907  14.083 -0.3511  0.1008  0.1402
26071W        W42205   7.116   4.479   4.862  0.2089  0.2732  0.2662
26072W        W42206   1.393   7.768  14.743 -0.1995 -0.3534  0.1893
26073W        W42207  17.868   4.407   0.238  0.0641 -0.0976 -0.0475
26074W        W42208   2.002  11.992  15.058 -0.0549 -0.1564  0.0359
26075W        W42209   9.719   3.713  12.117 -0.1598 -0.1701  0.0403
26076W        W42210   2.188  14.754   4.045  0.2788 -0.0820  0.0752
26077W        W42211  15.254   4.857   1.305 -0.2022  0.1286 -0.2156
26078W        W42212  13.680  11.638  12.833  0.0988  0.1143  0.1035
26079W        W42213  10.843   2.396   4.096  0.1746 -0.1600  0.0358
26080W        W42214  11.378  14.778   2.914  0.1639  0.0602  0.1699
26081W        W42215  17.508  17.510  13.221  0.2170  0.1081  0.0768
26082W        W42216  13.345   0.175  11.949  0.0367  0.2578  0.2109
26083W        W42217   3.668  13.284  14.245 -0.2951  0.1290 -0.0916
26084W        W42218   3.274  17.871  15.348  0.1302 -0.0024 -0.0663
26085W        W42219  11.956  10.480  12.229 -0.1328 -0.1997 -0.0137
26086W        W42220   8.026  12.943  13.218 -0.0262 -0.1605 -0.2909
26087W        W42221  14.504  10.733  12.205 -0.2874  0.0181 -0.0329
26088W        W42222   1.361  10.967   5.320  0.2321  0.1029 -0.1656
26089W        W42223   4.799   1.760  12.533 -0.1295  0.3429  0.2028
26090W        W42224  16.238   9.484   0.663  0.0500 -0.3270  0.1801
26091W        W42225  11.001  12.645   4.661  0.0848  0.3301 -0.1396
26092W        W42226  10.647  13.137   5.419  0.1218 -0.1566  0.0028
26093W        W42227   7.556   2.348   4.445  0.1487 -0.0711  0.0176
26094W        W42228   8.536   6.416  11.995 -0.0104  0.1403 -0.1065
26095W        W42229   5.078   8.788   3.634  0.3232 -0.0280 -0.1850
26096W        W42230  16.737  13.363  16.296  0.0181  0.1535 -0.1053
26097W        W42231   2.118   6.068   3.271  0.1835 -0.0582  0.0022
26098W        W42232  11.396   0.002   4.143 -0.1889 -0.0139 -0.1846
26099W        W42233   5.243   2.912  13.432  0.3407  0.1298  0.0858
26100W        W42234   8.924  10.407   1.688 -0.0096 -0.1544  0.0853
26101W        W42235  17.528   5.834   1.746 -0.1583 -0.0920  0.0128
26102W        W42236   3.856   5.098   1.758 -0.0236 -0.0449  0.0934
26103W        W42237   5.330  14.998  14.255 -0.2785 -0.1445 -0.1287
26104W        W42238  15.401  14.847   3.065  0.1319 -0.2177  0.0895
26105W        W42239   0.941   1.121   0.656  0.0799 -0.2570  0.1148
26106W        W42240   5.834  14.110   3.003  0.2073  0.0335  0.0550
26107W        W42241   2.666   8.249  13.964  0.1720 -0.1240  0.0298
26108W        W42242   2.943   7.171   5.889 -0.3410  0.1467 -0.0208
26109W        W42243   4.343   4.512  12.392 -0.1179  0.2353  0.1527
26110W        W42244   0.388  17.580  12.932 -0.3425 -0.0998  0.1424
26111W        W42245   6.815   4.547  16.349  0.0640 -0.0764 -0.0650
26112W        W42246  11.397  18.042   3.063 -0.3500 -0.0934 -0.0097
26113W        W42247  17.340  13.373  14.019  0.2676 -0.1225  0.3345
26114W        W42248   5.500   0.991   2.060  0.2055  0.0207  0.1499
26115W        W42249   7.481   3.142  13.471 -0.1325  0.1592 -0.0176
26116W        W42250   2.085   4.123  12.920  0.4801 -0.1524  0.2709
26117W        W42251   0.581  16.190   0.952  0.2448 -0.0750 -0.0402
26118W        W42252  16.575  15.113  15.736  0.0192 -0.1350  0.1300
26119W        W42253   6.041   4.438  16.420  0.2157  0.2499 -0.5191
26120W        W42254   6.316   9.671   0.920  0.2159  0.2093  0.3653
26121W        W42255  14.920   7.173  13.590 -0.0081  0.0155  0.3024
26122W        W42256  14.840   5.657   4.748 -0.1006 -0.0706  0.0066
26123W        W42257  16.319  17.172  14.951  0.1447  0.0038 -0.0360
26124W        W42258  14.960  10.298   3.134  0.0529  0.1140  0.0325
26125W        W42259  16.843   2.883   4.339 -0.1152  0.1247 -0.0873
26126W        W42260   3.281  11.272  14.269 -0.2140  0.1523 -0.1548
26127W        W42261  17.300   2.086   1.379 -0.2039 -0.1166 -0.2964
26128W        W42262  16.647   0.877   1.185  0.3247 -0.0676 -0.0787
26129W        W42263  14.283   9.572  16.029 -0.0659 -0.1414 -0.0426
26130W        W42264   8.495  11.566   4.669 -0.1193  0.1667  0.1589
26131W        W42265   1.266  10.420   0.496 -0.1509  0.0336  0.0468
26132W        W42266   4.196  11.447   0.081  0.1757 -0.1362  0.2394
26133W        W42267  10.630  11.134  15.977 -0.0594 -0.1138 -0.1279
26134W        W42268  10.639  16.241  11.408 -0.1969 -0.1882  0.0498
26135W        W42269   5.703   3.913  15.215 -0.0766 -0.0171 -0.2604
26136W        W42270   0.078  16.892  16.226 -0.0502  0.0187  0.2010
26137W        W42271   7.226   7.319  14.969  0.0311 -0.1501 -0.0063
26138W        W42272   8.997   7.863  13.759 -0.3821 -0.1189  0.0244
26139W        W42273   8.705  16.464   2.781 -0.0998  0.0531 -0.0141
26140W        W42274   5.314  16.253   2.167  0.0655  0.0190 -0.4137
26141W        W42275   5.319   9.324  15.806  0.0120  0.1187  0.2146
26142W        W42276  13.053  13.637   1.550  0.3894 -0.0669 -0.1999
26143W        W42277   0.033   5.261   2.958 -0.1763 -0.1707 -0.0246
26144W        W42278   9.118  15.983   0.023  0.2787 -0.1960  0.4888
26145W        W42279  13.515   1.773  14.330 -0.1060  0.1924 -0.6416
26146W        W42280  15.899  17.061  13.574  0.0194 -0.1195 -0.0344
26147W        W42281   9.161  13.776  10.485 -0.3352  0.1398 -0.1464
26148W        W42282  11.466   8.610   1.876  0.0279  0.2255  0.0324
26149W        W42283   6.696   9.205   2.618 -0.2486  0.1367 -0.0317
26150W        W42284   1.095  16.073  14.538 -0.0224 -0.1652  0.0258
26151W        W42285  12.217   2.479   3.361 -0.0653  0.0902  0.1404
26152W        W42286   8.504   7.043   5.296  0.2946  0.2437  0.0208
26153W        W42287  14.226  17.906   2.411  0.2714 -0.2115  0.1990
26154W        W42288   8.007   1.796   2.217 -0.0643 -0.0843  0.3421
26155W        W42289   6.377   6.649   1.456  0.4010 -0.2117  0.1998
26156W        W42290  14.320   8.482  12.199 -0.4111  0.0456  0.0391
26157W        W42291  13.900  13.983  14.580 -0.3348 -0.2347  0.1413
26158W        W42292  13.331   7.933   0.363 -0.0180 -0.1232  0.0142
26159W        W42293   1.645  14.781  16.120 -0.0863 -0.2060  0.1824
26160W        W42294   0.635   4.381   6.334 -0.0094  0.2100  0.1831
26161W        W42295   3.812  16.911   2.278 -0.0856 -0.0610  0.0265
26162W        W42296   6.506   8.518   5.835 -0.1660  0.0224  0.2325
26163W        W42297   3.468  11.397  15.548  0.0054 -0.0943  0.1484
26164W        W42298   7.558  11.265   5.805  0.1583  0.0367  0.0381
26165W        W42299  12.834   7.686   5.864 -0.2145  0.0132 -0.0131
26166W        W42300   5.926   1.995   3.506 -0.0944  0.2398  0.1375
26167W        W42301   0.350   9.623   2.825  0.0549  0.1086 -0.1625
26168W        W42302   9.925   8.933   4.738 -0.1669  0.0434  0.0344
26169W        W42303   8.892   5.626   5.736 -0.1316 -0.1748 -0.3736
26170W        W42304   4.918  13.987  13.235 -0.0251  0.3668 -0.2266
26171W        W42305   0.125  16.860   3.143  0.2883  0.0586  0.0152
26172W        W42306  17.886  10.819  11.744 -0.3201 -0.0905 -0.1033
26173W        W42307   2.741  10.937  14.963 -0.1224 -0.2500  0.0595
26174W        W42308  17.748   1.919  12.970  0.0225  0.0119 -0.2555
26175W        W42309   7.206   3.625   4.500  0.1364 -0.1920  0.0305
26176W        W42310   4.335   9.440  13.262 -0.5306 -0.3350 -0.1412
26177W        W42311  10.300  17.752  14.942  0.2182 -0.0231 -0.1373
26178W        W42312   9.183  12.941  11.621 -0.4312  0.1736 -0.2438
26179W        W42313   1.904   6.428   2.095  0.3974  0.1357 -0.0862
26180W        W42314  17.746   3.970   2.072 -0.0208  0.3504 -0.0106
26181W        W42315  12.336   3.438  15.010 -0.0104  0.1072 -0.2354
26182W        W42316   3.399   7.928   0.583  0.2162  0.1169 -0.1841
26183W        W42317   9.335   3.734   4.591 -0.1539  0.1512  0.1553
26184W        W42318  13.090   2.001   2.122 -0.0765 -0.0725  0.0189
26185W        W42319  12.192   9.854  15.275  0.0369 -0.1259  0.0243
26186W        W42320   0.272  13.244   4.103  0.2835 -0.0607  0.0773
26187W        W42321   4.455  13.034  15.886  0.1749 -0.2907  0.0250
26188W        W42322   9.203  16.426   0.896  0.1129 -0.0635  0.1405
26189W        W42323  10.006  13.904  14.780 -0.1224 -0.2350  0.3335
26190W        W42324   3.284   2.203  15.510 -0.2784  0.2132 -0.1077
26191W        W42325   4.415  17.486  15.642 -0.1292  0.0946  0.0804
26192W        W42326   8.417   9.210   1.604 -0.1782 -0.1594 -0.1255
26193W        W42327  14.284   0.837   4.397 -0.1287 -0.1490 -0.0906
26194W        W42328  15.007  11.737  11.003 -0.3689  0.2450  0.0397
26195W        W42329  13.144   9.900  11.268  0.1508 -0.0832 -0.1144
26196W        W42330   7.012  10.541   4.949 -0.0179  0.0554 -0.1425
26197W        W42331   7.692   9.777  15.482  0.2064  0.1567  0.0127
26198W        W42332  18.085   6.955   4.390 -0.0754 -0.3960 -0.0164
26199W        W42333  13.424  12.037   1.510  0.4092 -0.2235 -0.1963
26200W        W42334  18.017   3.100   0.484  0.0392  0.0641  0.0159
26201W        W42335   0.141  15.821  16.359 -0.0051 -0.0452 -0.1688
26202W        W42336   5.760  17.578   0.066  0.2603  0.0009  0.0993
26203W        W42337  15.874  14.573  13.317 -0.2105  0.0135 -0.0486
26204W        W42338   7.736  13.249  13.505 -0.2804 -0.2863 -0.1305
26205W        W42339  11.794   4.830   3.081 -0.0430  0.2518  0.1787
26206W        W42340  16.964  16.529  14.009  0.0274 -0.0704  0.2955
26207W        W42341   4.541  11.943  15.017  0.2483  0.0102 -0.1429
26208W        W42342  14.440  17.279   4.580 -0.4022 -0.3638  0.2239
26209W        W42343   4.771   4.828   4.612 -0.1341 -0.0347 -0.0465
26210W        W42344   1.031   3.314   5.824 -0.0647 -0.0093  0.2318
26211W        W42345  15.033   1.069   4.951  0.1216 -0.0491 -0.2023
26212W        W42346  10.687   4.708   1.568  0.0998  0.1921  0.1077
26213W        W42347   6.994   7.561  11.623  0.0657  0.0756 -0.0564
26214W        W42348  14.775  13.005  13.442  0.1280  0.0043 -0.0466
26215W        W42349   9.615   5.993  15.355 -0.3639 -0.1932 -0.4292
26216W        W42350   0.250   4.396  11.867 -0.0775 -0.1095  0.2766
26217W        W42351   7.995  12.081   3.993  0.1507 -0.4248  0.0543
26218W        W42352  15.930   2.834   2.091 -0.1562  0.0789 -0.0207
26219W        W42353  12.382   0.892   4.847  0.0528  0.4205  0.2232
26220W        W42354  12.822  11.646   0.785  0.0861  0.0930 -0.0143
26221W        W42355   9.759   5.645  14.721  0.2673  0.1704 -0.1753
26222W        W42356   6.326   5.276   4.040  0.2205  0.1196 -0.0463
26223W        W42357  12.724   3.013   5.797 -0.3421  0.2594  0.0813
26224W        W42358   9.392   2.401   4.855 -0.2289  0.3291  0.1740
26225W        W42359  13.215   1.016   0.090 -0.0706 -0.3570 -0.0880
26226W        W42360   2.755   1.804   4.540  0.0064  0.0970 -0.1708
26227W        W42361  13.873  12.881   3.346 -0.3001  0.2681 -0.2868
26228W        W42362   3.089   5.376  15.693  0.4922  0.1824  0.0699
26229W        W42363   1.703  16.902   2.800 -0.1394 -0.3509  0.0314
26230W        W42364   2.185  12.908  14.842  0.1489 -0.5631 -0.1745
26231W        W42365   1.773   0.767  13.099  0.2191 -0.0942  0.2294
26232W        W42366   8.858   1.361  12.826  0.0894  0.0739 -0.1229
26233W        W42367   5.668   4.045   2.356 -0.1535 -0.0280 -0.0118
26234W        W42368  16.699   7.141   5.574 -0.1838  0.3139  0.1342
26235W        W42369  14.638   7.761   0.780 -0.0788  0.1083 -0.0513
26236W        W42370   5.048   1.346  14.986  0.1429 -0.1590  0.1069
26237W        W42371  17.570   8.208   3.849  0.1354  0.0823  0.1458
26238W        W42372  14.209  16.132   5.165  0.0608 -0.0658  0.0993
26239W        W42373  11.147   4.475   1.609 -0.0903 -0.0189 -0.2852
26240W        W42374  12.974   5.330  15.849 -0.0293  0.0163  0.1194
26241W        W42375  17.520  12.311   1.579  0.0235 -0.1953 -0.1094
26242W        W42376  10.498   4.228   4.805  0.0969 -0.1383 -0.2345
26243W        W42377  11.235   5.341  13.701  0.0526  0.0301  0.0359
26244W        W42378   5.524   1.619  14.108 -0.0463 -0.0300  0.0014
26245W        W42379   8.144   5.846   5.423 -0.1961 -0.2913  0.1149
26246W        W42380  11.188  17.558   4.985  0.0297  0.1852 -0.1413
26247W        W42381   3.452   3.399   0.184  0.0030  0.0575 -0.0676
26248W        W42382   1.138   5.774  15.299 -0.0130  0.1212 -0.2239
26249W        W42383  10.601  14.067  14.174  0.0970 -0.0101  0.0900
26250W        W42384   9.452  13.303   2.834 -0.4718 -0.1294  0.0092
26251W        W42385   9.679  16.101  16.255  0.2353  0.2698 -0.0084
26252W        W42386  15.930   8.103   1.012 -0.0717  0.1721  0.2458
26253W        W42387   3.304   0.792   3.938 -0.1955  0.1679 -0.3813
26254W        W42388   9.348  18.088   1.394 -0.1057 -0.0632  0.3022
26255W        W42389  17.082   2.835  12.107 -0.0414  0.0341 -0.4666
26256W        W42390   8.266  17.058  15.413  0.2164  0.4240  0.0288
26257W        W42391   0.641   8.015   4.931  0.1071 -0.0720  0.0522
26258W        W42392   0.783  13.480   4.047  0.1081 -0.0704 -0.0712
26259W        W42393  10.825   3.824  15.506  0.2813  0.0826 -0.0303
26260W        W42394   9.172   1.854   4.914  0.2724  0.1886  0.0530
26261W        W42395  12.005   1.602   3.518 -0.0079  0.1007  0.1216
26262W        W42396  18.067  11.548   1.613  0.1097  0.0127 -0.0083
26263W        W42397  12.183  11.539   1.433  0.1499 -0.1920 -0.1786
26264W        W42398  11.707  17.928   5.973  0.1801  0.0149  0.2819
26265W        W42399   8.035  13.917  11.184 -0.0005 -0.1081 -0.0009
26266W        W42400  10.975  16.559   0.890  0.1534  0.0606 -0.1793
26267W        W42401   9.467   0.497  13.051 -0.0611 -0.0245  0.0892
26268W        W42402   0.307  10.262  11.685  0.2961  0.0581  0.1892
26269W        W42403   2.951   5.225  16.398  0.2118 -0.1964 -0.1355
26270W        W42404  16.639  16.666   4.238 -0.1635  0.0817 -0.1146
26271W        W42405  10.523   9.754   2.876 -0.1610 -0.1958 -0.0424
26272W        W42406   9.998   7.042   0.175 -0.0491 -0.1489  0.1260
26273W        W42407   5.712   8.820   3.622  0.1408 -0.2394 -0.2038
26274W        W42408   1.471   6.899   3.857  0.0154 -0.2149 -0.1768
26275W        W42409   2.187  13.052   3.929 -0.3412  0.1095  0.0935
26276W        W42410   3.105  13.987  16.021  0.2165  0.0027  0.2668
26277W        W42411   5.120   3.162   3.263 -0.0518 -0.1788  0.0386
26278W        W42412  14.448  16.591  12.399  0.1601  0.0686  0.0085
26279W        W42413   6.624  10.703  13.131 -0.0895 -0.4169 -0.1835
26280W        W42414  15.433  15.915  16.283  0.2387  0.2535  0.1625
26281W        W42415   0.716  14.326  12.383  0.2635  0.0379 -0.1278
26282W        W42416   9.793   1.265   5.380  0.0406  0.1643 -0.2782
26283W        W42417   8.041   4.485   2.832  0.2052 -0.1535 -0.2853
26284W        W42418   3.752   0.093  16.415  0.1912  0.1917 -0.2855
26285W        W42419  15.164   4.765   3.098  0.1267 -0.1183  0.2977
26286W        W42420   5.864   0.806   0.563 -0.1529 -0.3286  0.1518
26287W        W42421  13.100  11.616  13.555 -0.3311  0.0907 -0.1253
26288W        W42422   7.243  13.743   3.046 -0.1261 -0.0520 -0.1147
26289W        W42423   8.001  11.991   1.644  0.1822  0.1538  0.3895
26290W        W42424   5.348   7.398  13.175  0.0762 -0.0532 -0.2958
26291W        W42425  10.504  16.401  14.736 -0.0944  0.0242  0.1004
26292W        W42426  11.695   6.544  11.430  0.0802  0.1924 -0.1439
26293W        W42427  13.025   8.153   5.283  0.0744 -0.2399  0.0170
26294W        W42428  13.341  11.893   3.669 -0.0422  0.1916 -0.2375
26295W        W42429  16.009   8.348  11.699 -0.0596  0.1660 -0.2088
26296W        W42430  12.941  10.034  14.380 -0.0859  0.0173  0.0477
26297W        W42431  12.907  10.622  13.742 -0.0588  0.0338  0.0208
26298W        W42432   1.007  10.598  13.922  0.0040  0.2801 -0.0237
26299W        W42433  14.851  10.005   5.289 -0.3436  0.2662 -0.0220
26300W        W42434   0.104  13.465   2.779  0.1075 -0.3251 -0.1394
26301W        W42435  14.274  14.132  12.978 -0.1741  0.1802 -0.3965
26302W        W42436   2.770   0.322   3.554 -0.2108 -0.0477  0.2978
26303W        W42437  15.918   9.620   0.222 -0.3500 -0.0321 -0.0112
26304W        W42438  16.985   3.092  14.950  0.0856  0.1714  0.0593
26305W        W42439   0.716  12.874  13.261 -0.0113 -0.4941  0.1416
26306W        W42440  10.280  16.455  13.680  0.1409 -0.1143  0.0646
26307W        W42441  17.094   1.217  16.427  0.4500 -0.1773  0.3027
26308W        W42442  10.734  11.067   2.167 -0.0935  0.1031 -0.1357
26309W        W42443  11.876  17.796   1.121 -0.2076  0.1220 -0.2251
26310W        W42444   0.867  17.575   5.551 -0.0298  0.0374 -0.2018
26311W        W42445  14.819   4.713   2.242  0.0128 -0.1249  0.1657
26312W        W42446   0.597  10.240  13.910 -0.3571 -0.4574 -0.0651
26313W        W42447   1.733  11.570   2.101  0.0158  0.1006 -0.0773
26314W        W42448  12.530  13.715   4.186  0.3897  0.2141  0.2516
26315W        W42449   4.239   2.937  15.785 -0.0012 -0.0189 -0.2181
26316W        W42450   4.792   1.238   0.780  0.1132 -0.0866 -0.2799
26317W        W42451  14.836  13.413   4.295  0.0625  0.1396 -0.1637
26318W        W42452   7.942   8.093  10.684 -0.1595 -0.1155  0.1977
26319W        W42453   3.203   7.640   1.003 -0.1193  0.1216 -0.4017
26320W        W42454   4.832   9.916  10.957  0.2244 -0.2122 -0.1691
26321W        W42455  10.713   4.828  11.652  0.2550 -0.3585 -0.4728
26322W        W42456   3.517   2.680   0.808  0.0239 -0.2949 -0.1122
26323W        W42457  17.247  10.142  11.894  0.0293 -0.0546  0.1736
26324W        W42458  14.690   4.330   0.482  0.5433  0.1252 -0.0438
26325W        W42459   8.301  16.577   0.769 -0.2342  0.2180 -0.0404
26326W        W42460  16.711  15.591   4.745  0.0943 -0.0184 -0.0960
26327W        W42461   6.726   1.106   4.359 -0.0216 -0.1851 -0.0451
26328W        W42462  12.189  13.412  12.323  0.1638 -0.1025  0.0343
26329W        W42463  12.546  13.900  12.416  0.0311  0.3403  0.0726
26330W        W42464  17.169  10.924   4.827 -0.1362 -0.0720 -0.2382
26331W        W42465   7.142  11.443  15.642  0.2924 -0.3590 -0.1243
26332W        W42466  17.035   9.121  13.833 -0.1022 -0.0448 -0.1458
26333W        W42467  11.437  14.556   2.408 -0.0634  0.2994  0.3193
26334W        W42468   1.238   8.619  13.399  0.0137  0.1828  0.2423
26335W        W42469  14.875   7.213  11.288 -0.1861 -0.0826 -0.1015
26336W        W42470  13.764   1.567   4.127 -0.0951 -0.3007  0.1349
26337W        W42471   2.971   6.484   3.683  0.0371 -0.0972  0.0739
26338W        W42472   6.624  14.881  14.746  0.4247 -0.1909  0.0751
26339W        W42473   8.037   1.458   0.170 -0.0469  0.0519 -0.3878
26340W        W42474   9.003  13.413   6.039  0.1981 -0.0262 -0.0419
26341W        W42475  15.861   1.581   4.656  0.0473 -0.4078  0.1012
26342W        W42476   1.157   5.751  13.315  0.0179  0.0102 -0.1002
26343W        W42477   9.606   9.750  15.858 -0.3756  0.2590 -0.3471
26344W        W42478  16.316  13.215  13.139  0.0388 -0.0639 -0.0250
26345W        W42479  11.600  10.263  12.817 -0.0283  0.2011  0.2674
26346W        W42480  16.063  12.137   0.166 -0.1227 -0.4637  0.2800
26347W        W42481  16.771  11.267   0.717  0.1914  0.2755 -0.2326
26348W        W42482   2.699   4.729  12.992 -0.0001  0.0202  0.1525
26349W        W42483   5.239   0.987  13.294  0.0259  0.0605 -0.3380
26350W        W42484   8.112   3.307   5.695  0.0529 -0.1237 -0.0721
26351W        W42485   7.523  11.870   0.817  0.1286  0.1514  0.2330
26352W        W42486   5.458  17.447   1.809 -0.1342  0.3013 -0.1066
26353W        W42487   8.564   6.889   2.726  0.2404 -0.1694  0.2804
26354W        W42488   6.491  11.505  11.727  0.1465 -0.1035  0.0645
26355W        W42489   4.487   0.548   0.407  0.1863  0.1242 -0.1042
26356W        W42490   2.075  15.322  15.552  0.0432  0.1654  0.0997
26357W        W42491  16.361   8.853   4.351 -0.1903 -0.0853  0.1426
26358W        W42492   1.397   6.475  13.003  0.1177 -0.1172  0.2849
26359W        W42493   3.713  15.374  14.957 -0.0142 -0.4444  0.0504
26360W        W42494   7.962   1.423  15.659  0.4634 -0.3614  0.2457
26361W        W42495  15.162   5.301   0.588 -0.2508  0.0082  0.1217
26362W        W42496   0.654   9.296  11.011  0.0874 -0.1789  0.0975
26363W        W42497   1.345   6.182   2.048  0.1425 -0.0393  0.2687
26364W        W42498   3.604  12.415   3.205 -0.2309 -0.4033  0.2615
26365W        W42499  14.571  14.618   1.922 -0.1766 -0.0890 -0.1660
26366W        W42500  12.881  16.849  13.356 -0.1831  0.2900  0.1123
26367W        W42501  16.933   8.315  11.278  0.2703  0.1521 -0.0457
26368W        W42502   8.157   3.387   5.171  0.0027 -0.0762 -0.1298
26369W        W42503   0.865  12.671   2.389 -0.1570  0.0808 -0.1789
26370W        W42504  17.535   9.743   4.761  0.0355 -0.1291 -0.3712
26371W        W42505  17.877   0.527   5.732 -0.2398 -0.0015  0.1638
26372W        W42506  16.275   8.160   4.856 -0.1676 -0.0547 -0.1469
26373W        W42507   4.585   6.068  13.962  0.1420  0.0087 -0.1179
26374W        W42508   6.796   2.699  13.699 -0.0902  0.1316  0.1133
26375W        W42509  15.145   3.726   2.441  0.1158  0.3302 -0.0711
26376W        W42510   0.071   7.275   1.128  0.0522  0.2223  0.0326
26377W        W42511  15.718  13.041  13.478 -0.1468  0.0519 -0.4677
26378W        W42512   7.256   9.950  14.584  0.1251  0.1375 -0.0386
26379W        W42513   7.926   4.378  16.419 -0.2809  0.0379  0.3094
26380W        W42514   6.087   5.297   2.671 -0.0600 -0.1859 -0.0845
26381W        W42515   0.352  10.329   0.615 -0.2156  0.0173  0.1438
26382W        W42516  11.123  16.734   3.750 -0.2968  0.2402 -0.0447
26383W        W42517   5.984  15.099   2.076  0.0193  0.4088 -0.2370
26384W        W42518   2.437   8.843   3.322 -0.1160 -0.1666 -0.1824
26385W        W42519  11.346  13.178   5.905  0.1003  0.2445  0.0547
26386W        W42520  17.549   1.670   0.003  0.0986 -0.0288 -0.4993
26387W        W42521   4.613  12.353   0.249  0.4969  0.1058  0.1709
26388W        W42522  11.360  12.848  12.485 -0.1376  0.0438 -0.1489
26389W        W42523   1.506  15.812   5.097  0.2106 -0.2091 -0.0346
26390W        W42524   8.126   6.732   5.436  0.0937 -0.2508 -0.0959
26391W        W42525   5.093  17.534   5.688  0.0465 -0.0716 -0.1759
26392W        W42526  14.375  13.387  12.585 -0.0196  0.0241 -0.0499
26393W        W42527   9.931   3.590   5.758 -0.3661 -0.1518 -0.5081
26394W        W42528  16.256   2.594  14.948 -0.1227  0.0078 -0.0733
26395W        W42529   0.158   0.522  12.059 -0.1551  0.6287 -0.0739
26396W        W42530   8.823   4.576  14.116 -0.1405  0.1228  0.0941
26397W        W42531  10.179   7.596   2.034  0.1211  0.0408  0.1169
26398W        W42532  11.983   1.247  13.217 -0.0091 -0.2404 -0.1816
26399W        W42533   4.578   0.527   4.381  0.2155 -0.1963 -0.1771
26400W        W42534  15.817  18.110  15.930  0.0619  0.2253 -0.1336
26401W        W42535  10.072  11.295  13.150 -0.2962  0.1171 -0.1957
26402W        W42536   1.409   1.193   5.614 -0.3116 -0.1588  0.2849
26403W        W42537   9.053  11.200   1.264  0.2560  0.1377 -0.1868
26404W        W42538   9.784   2.793   2.142  0.0123 -0.2767 -0.0160
26405W        W42539   1.309   6.677  10.915 -0.2649 -0.1585  0.2334
26406W        W42540   2.937   1.038   0.160 -0.0032 -0.1660  0.0803
26407W        W42541   3.452   7.269   3.581 -0.2287 -0.1813 -0.1031
26408W        W42542   5.445  10.411   3.010 -0.0037  0.2969 -0.1385
26409W        W42543   0.991   2.757   3.555  0.0319 -0.1293 -0.2842
26410W        W42544  10.842  10.536  14.628 -0.0831 -0.0822 -0.0176
26411W        W42545  14.415  10.028   0.595 -0.1912  0.3093  0.0403
26412W        W42546  16.663  16.367   0.874  0.0191 -0.0517 -0.1262
26413W        W42547   9.492  10.494  12.085 -0.1285  0.0022  0.1228
26414W        W42548   6.957   4.478   1.654 -0.3557  0.2958 -0.0974
26415W        W42549   5.969   0.465  15.176  0.1430 -0.1308 -0.1774
26416W        W42550  10.687  17.474   3.070  0.0090  0.0474  0.1115
26417W        W42551  16.175  16.876  13.937  0.0375 -0.1648 -0.0099
26418W        W42552   7.360   8.253  16.185 -0.1514  0.0246  0.2549
26419W        W42553  12.802  13.370   2.203  0.1784 -0.2339 -0.0570
26420W        W42554   7.421   0.327   0.468 -0.0723 -0.0139 -0.1486
26421W        W42555   8.884   7.119  14.430 -0.0648  0.1615  0.3986
26422W        W42556   9.496   7.992  14.474 -0.2049 -0.2676 -0.1847
26423W        W42557   1.353  12.386   4.674 -0.0871  0.2134 -0.4245
26424W        W42558  10.002  16.645  15.752 -0.0613  0.0893  0.1190
26425W        W42559  10.448  15.411  14.111  0.2479  0.3358 -0.2004
26426W        W42560   1.849  13.779  13.504  0.1537 -0.2965 -0.1359
26427W        W42561   1.341  11.259   2.098 -0.0067 -0.0493  0.1465
26428W        W42562   5.110   7.904   4.595 -0.3329 -0.1157  0.0055
26429W        W42563  14.788   3.527  15.968 -0.0813 -0.0471 -0.0239
26430W        W42564  11.029   4.718   6.486  0.5348  0.1918 -0.0440
26431W        W42565  12.022   0.010  14.027  0.3127 -0.1947 -0.0261
26432W        W42566  17.796   5.201  13.585 -0.0784 -0.0645 -0.1175
26433W        W42567   9.492  14.584   4.295  0.0297  0.1033 -0.1297
26434W        W42568   3.242   3.550   3.216  0.0632 -0.0782 -0.2023
26435W        W42569  12.187   5.346  16.467  0.0660 -0.1488 -0.0355
26436W        W42570  10.645   2.379   5.025  0.0102  0.3835  0.0347
26437W        W42571  18.076   7.737   0.468 -0.3409  0.4647 -0.1437
26438W        W42572   3.706   6.463   1.987  0.2521 -0.0748 -0.1543
26439W        W42573  15.964   4.066   4.102 -0.3883 -0.2282  0.1114
26440W        W42574   3.003   2.032  14.212  0.1999  0.0331 -0.4442
26441W        W42575  17.299  11.440  11.073 -0.3199 -0.0608  0.2972
26442W        W42576   2.261   8.746  11.798  0.0602  0.2313 -0.0049
26443W        W42577  10.602   7.121   4.482  0.0301 -0.0908  0.3022
26444W        W42578  14.076  10.782   4.574 -0.1089  0.1999  0.0625
26445W        W42579  14.898  11.966  12.459  0.0246  0.1783  0.1884
26446W        W42580   7.266   6.919   1.766  0.0685 -0.0529 -0.0321
26447W        W42581   7.539   5.043  12.417 -0.3023  0.4400 -0.0581
26448W        W42582  12.501   4.769  14.727  0.5550 -0.3532  0.0787
26449W        W42583   6.509   0.384   0.242 -0.3342  0.0987 -0.0514
26450W        W42584  12.485   9.417   2.678  0.0890  0.0689  0.0195
26451W        W42585   8.933  11.989   1.904  0.0254 -0.1593 -0.3653
26452W        W42586  10.926   4.207  12.433 -0.0315  0.1570  0.0121
26453W        W42587  13.697   6.109   0.930  0.3653  0.1151  0.1008
26454W        W42588  16.549   0.296   3.483 -0.0113  0.1281 -0.1487
26455W        W42589   0.054   1.267   0.386  0.2590  0.1837 -0.0002
26456W        W42590   9.377   8.286   3.470 -0.1499  0.0143 -0.2051
26457W        W42591   1.810   0.748   4.324  0.3571  0.3120 -0.1347
26458W        W42592  16.132  14.232   2.978 -0.0809  0.3070  0.0854
26459W        W42593  17.278  11.359   0.533  0.0138 -0.1358  0.1636
26460W        W42594  15.823   6.815  13.946 -0.0799 -0.0432  0.2215
26461W        W42595   9.232   2.692  13.061 -0.2023  0.1545  0.2816
26462W        W42596   8.814  18.089   4.428  0.0219 -0.1183 -0.0084
26463W        W42597  17.187  15.759   3.206 -0.0225  0.2554  0.0261
26464W        W42598  11.411  14.137  15.207 -0.2301  0.3007 -0.0639
26465W        W42599  10.638  17.836  13.911 -0.0861 -0.2908  0.0602
26466W        W42600  12.209  12.142   4.236  0.1135 -0.0219  0.1875
26467W        W42601   2.862  16.633   0.860  0.3237  0.1910 -0.0237
26468W        W42602   4.106   5.908  15.318 -0.5084 -0.0360 -0.1977
26469W        W42603   1.039   2.710  11.672 -0.0354 -0.1988 -0.1209
26470W        W42604  12.148   3.545   3.112  0.3366 -0.1701 -0.4035
26471W        W42605   2.764   5.918  14.887 -0.2204  0.1506  0.1803
26472W        W42606  12.012   0.934  15.833 -0.1872 -0.0647  0.0116
26473W        W42607  13.941  11.717   4.422  0.0500  0.0785  0.3184
26474W        W42608   2.283   3.778   0.009  0.2764  0.2737  0.0136
26475W        W42609   2.180   8.835  14.568 -0.0169 -0.1170 -0.1589
26476W        W42610   7.279   6.544   0.833 -0.1983  0.0207 -0.1949
26477W        W42611  14.774   0.614  14.401 -0.3221 -0.3797  0.0479
26478W        W42612  15.847   5.347   5.532 -0.1376  0.0392  0.0675
26479W        W42613   0.425  16.311   5.930  0.1542 -0.0144  0.1165
26480W        W42614   9.128   9.135  13.002  0.1597 -0.2961  0.0183
26481W        W42615   5.108  13.997   0.210 -0.1551  0.1141  0.0709
26482W        W42616   6.796   1.689   4.379  0.0230 -0.2409 -0.1284
26483W        W42617   2.145  10.033   3.569 -0.2149 -0.2414 -0.1972
26484W        W42618  13.401  15.680  15.601  0.0695  0.0732 -0.0371
26485W        W42619  12.514   9.818   2.352  0.0995 -0.0136 -0.0432
26486W        W42620  12.561   7.993   4.139  0.1168  0.1860  0.1005
26487W        W42621   2.323  11.570  14.429 -0.1226  0.1312 -0.2252
26488W        W42622   3.487  13.899   0.900 -0.2667  0.1543 -0.0831
26489W        W42623   9.267   6.022   0.662  0.2260 -0.1569 -0.0343
26490W        W42624  17.056   5.764   4.904 -0.2226 -0.0267  0.1715
26491W        W42625  12.403  12.735   0.830 -0.3933  0.0732 -0.3018
26492W        W42626   7.427   6.101  15.399  0.0980  0.0571 -0.2982
26493W        W42627   0.464   4.374   5.485 -0.3239 -0.0935 -0.1348
26494W        W42628  14.656   9.578  14.585  0.2127 -0.2781  0.1829
26495W        W42629   0.400  17.373   5.388 -0.2853  0.1752  0.0029
26496W        W42630  10.859  17.306   2.622 -0.1868 -0.2812 -0.1406
26497W        W42631   7.718   5.491   4.599  0.0674  0.4191 -0.2330
26498W        W42632  17.021  10.910   3.974 -0.1195  0.4226  0.1838
26499W        W42633   0.133   5.232  12.730  0.2564 -0.0753 -0.0006
26500W        W42634   2.222   6.281   1.747  0.2199 -0.0686 -0.2835
26501W        W42635   4.382  15.896   0.037  0.0289 -0.1822  0.0690
26502W        W42636   3.340  15.470   4.284 -0.0537  0.0667  0.0953
26503W        W42637  10.074   7.941   2.875  0.2867  0.2316  0.2133
26504W        W42638   5.533  17.245   3.359  0.1131 -0.0373  0.1666
26505W        W42639   9.150  11.440  16.306  0.0468 -0.1646  0.0919
26506W        W42640  10.591   4.061   0.390  0.1774 -0.0241 -0.1859
26507W        W42641   9.375  13.004  15.560 -0.1486 -0.0381 -0.0315
26508W        W42642  13.831   5.989   3.936 -0.3211 -0.2862 -0.1380
26509W        W42643  12.331  12.752  15.996  0.1264 -0.0816  0.0510
26510W        W42644   9.922   5.757  12.158  0.1877 -0.0806 -0.2951
26511W        W42645   5.993   6.987   3.975  0.1310  0.0984  0.1162
26512W        W42646   5.793  18.063  12.534 -0.0518  0.0408  0.2943
26513W        W42647  10.135  11.577   2.814 -0.1495 -0.0698  0.1431
26514W        W42648   4.364  17.266   0.497 -0.1209  0.0757  0.3448
26515W        W42649   5.416  14.484   1.843  0.2235 -0.3088 -0.1035
26516W        W42650   1.595  14.076   1.391  0.0399  0.1743 -0.0880
26517W        W42651   1.837  12.294   4.589  0.0664  0.0667  0.0036
26518W        W42652   5.573   4.917  13.229 -0.0333  0.2083  0.0967
26519W        W42653  11.471  11.788  15.421  0.1863  0.3094  0.0304
26520W        W42654   5.632   3.321   3.468 -0.1370  0.1283 -0.2416
26521W        W42655   3.720  15.970   2.279 -0.1759 -0.1679  0.2102
26522W        W42656   5.716  14.588  14.063 -0.0547 -0.0906  0.4492
26523W        W42657  15.999   0.829  14.006 -0.1866  0.1292 -0.0369
26524W        W42658  17.738   5.222   1.943  0.0585  0.2019 -0.0780
26525W        W42659   7.015  14.318   0.170 -0.3306 -0.1465  0.0397
26526W        W42660   2.357  12.795  16.419  0.2191  0.0943  0.0436
26527W        W42661   5.416   8.307  11.947  0.1908  0.2596  0.0317
26528W        W42662   9.870   7.156   4.913 -0.0736  0.2165  0.0959
26529W        W42663   4.699   5.849   2.759  0.1690 -0.1166  0.1971
26530W        W42664  12.689  17.576  16.070  0.2392  0.2749  0.1009
26531W        W42665  15.199  12.416   5.310  0.1785 -0.0464  0.1839
26532W        W42666   2.754  16.718   4.169 -0.0159 -0.1811  0.0605
26533W        W42667   9.565   0.778  16.005  0.0276 -0.0280 -0.1357
26534W        W42668  17.920   2.672   1.857  0.4717 -0.4461 -0.1946
26535W        W42669   3.442   3.239   5.435 -0.2462 -0.0709  0.3602
26536W        W42670  17.295   1.551  12.676 -0.1991  0.0666 -0.2050
26537W        W42671  17.799  17.791   0.796 -0.2506  0.2542 -0.2731
26538W        W42672   4.297   0.123   2.602  0.0818  0.0721 -0.0079
26539W        W42673   6.452   5.159  11.408 -0.1953 -0.0389 -0.0716
26540W        W42674  13.178  16.313   3.196  0.1216  0.2066  0.0136
26541W        W42675  11.485  10.817  14.433 -0.0578 -0.3044  0.0314
26542W        W42676  13.100  17.384   0.606 -0.0382 -0.0278  0.2895
26543W        W42677   7.621   2.122   3.732 -0.2999 -0.0771  0.4046
26544W        W42678   0.144   7.426   0.012  0.0499  0.1712 -0.1014
26545W        W42679  15.751  15.971   1.101 -0.2205  0.4289  0.1770
26546W        W42680   3.609   9.573  10.811 -0.0413 -0.0331 -0.2519
26547W        W42681  13.377  14.357  16.242 -0.4038  0.2129 -0.1270
26548W        W42682   0.190  16.837   5.597 -0.1827 -0.0050 -0.3135
26549W        W42683  10.665   9.341   4.625 -0.0900 -0.1632  0.3367
26550W        W42684   5.046  14.868   1.665 -0.1673 -0.1385 -0.0765
26551W        W42685  10.947   4.589   0.812 -0.0399 -0.4145  0.0722
26552W        W42686  12.150  10.443  14.078  0.0025 -0.0500  0.0112
26553W        W42687   1.651   0.261  15.796 -0.1303 -0.2635  0.0066
26554W        W42688  11.702   3.921   0.363 -0.2071 -0.0091 -0.1719
26555W        W42689   8.521   1.293   3.945 -0.1206 -0.1231  0.0598
26556W        W42690   6.136  17.618  16.104  0.1004 -0.0028 -0.1799
26557W        W42691  10.439  10.600  11.169 -0.2960 -0.2960  0.1430
26558W        W42692  12.664  15.396   1.418  0.1892  0.2087  0.2749
26559W        W42693   2.125  14.808   4.769  0.2669 -0.3292 -0.2270
26560W        W42694  13.515  11.491  14.484  0.0380 -0.0413  0.2962
26561W        W42695   2.770   3.746   4.856  0.2061  0.1030  0.2316
26562W        W42696  14.427   6.768  12.553 -0.1232  0.0689  0.1324
26563W        W42697  13.864  14.760   0.373  0.0337  0.1575  0.2044
26564W        W42698   7.800   2.576  12.825 -0.2179  0.0007  0.1312
26565W        W42699  13.387  12.509   4.919  0.1858 -0.1849  0.0006
26566W        W42700  13.244   5.498  12.314 -0.4522  0.0565  0.0364
26567W        W42701  15.653   2.427  12.622  0.3047 -0.1083  0.0974
26568W        W42702  14.480   5.367   0.207  0.0447  0.1958  0.1196
26569W        W42703   8.213  14.170   2.549 -0.1112 -0.0075  0.1386
26570W        W42704   6.030   3.871  14.777  0.1543 -0.1977 -0.2008
26571W        W42705  14.596  13.186  14.343  0.0510 -0.0115 -0.0222
26572W        W42706  14.834   5.051   1.569 -0.0824  0.0107 -0.4395
26573W        W42707  12.465   0.756   5.675 -0.0475  0.2447  0.2093
26574W        W42708   1.101  15.744   1.553  0.1160  0.1085 -0.1959
26575W        W42709  12.350  15.355   5.871 -0.0431  0.3283  0.0716
26576W        W42710   5.051  15.573   2.975  0.2319  0.5148 -0.0325
26577W        W42711  10.387   3.769  15.253  0.1908  0.1772 -0.2411
26578W        W42712   9.601  11.988   5.475  0.5335 -0.1284  0.2552
26579W        W42713  15.747   0.095   3.115  0.4617  0.0297 -0.3290
26580W        W42714  14.013  17.611  15.444 -0.0247  0.1450 -0.0450
26581W        W42715   3.373   9.421  13.317 -0.2253 -0.0182 -0.0976
26582W        W42716   6.085   5.128  11.852  0.2880 -0.0512  0.0958
26583W        W42717   9.327   5.349  13.728 -0.1344 -0.0683  0.1879
26584W        W42718   3.413  12.754  12.183 -0.1820 -0.0524  0.1114
26585W        W42719   2.884   4.784   4.372 -0.2470  0.3235  0.0819
26586W        W42720   6.013   1.659   2.210 -0.1478  0.0498  0.3684
26587W        W42721  12.560   5.589  13.247 -0.0555 -0.0113  0.1528
26588W        W42722   0.256   9.665   5.285  0.2439 -0.4672 -0.3758
26589W        W42723   8.883  16.790   4.059  0.3460 -0.2306  0.2185
26590W        W42724  16.517  11.141   2.143 -0.1758 -0.0788  0.1932
26591W        W42725   7.919   0.250  15.875  0.1452 -0.0979  0.0963
26592W        W42726   8.043   9.901   4.603 -0.0649 -0.3090 -0.3009
26593W        W42727  16.474   0.827  14.726 -0.1932 -0.0597  0.0342
26594W        W42728   4.467   3.762  11.944  0.1939 -0.2557 -0.2066
26595W        W42729  10.369  12.370   0.658 -0.0535 -0.0483 -0.0969
26596W        W42730   8.010   4.696   0.704  0.5086  0.0651 -0.1034
26597W        W42731  13.088   2.435   1.256  0.1088  0.0236 -0.2467
26598W        W42732   6.586  17.623  15.709 -0.0373 -0.0690 -0.3012
26599W        W42733  14.741   8.297   5.320  0.0401  0.3501 -0.1785
26600W        W42734   3.071  11.376  12.534  0.0484 -0.0816  0.1568
26601W        W42735   5.419  17.304  13.472  0.1640  0.1488  0.1207
26602W        W42736  13.996   4.039   4.371 -0.2051  0.0127  0.0800
26603W        W42737  13.895   2.453   4.406 -0.2795  0.1839 -0.2293
26604W        W42738  13.623   7.271   1.010 -0.1655 -0.0188  0.1463
26605W        W42739  13.366  15.501  13.162  0.1641 -0.2456  0.0871
26606W        W42740   3.761  15.566   5.798 -0.0377  0.0488  0.0215
26607W        W42741   9.298  11.785   2.766  0.2926 -0.0706  0.0909
26608W        W42742  10.984  18.013   4.909 -0.0001 -0.1044  0.2723
26609W        W42743   4.010  11.138  12.171  0.0749  0.3254  0.0560
26610W        W42744   3.059  16.209   4.835  0.0959  0.2469  0.0177
26611W        W42745  11.251   2.301   2.803  0.1130 -0.2792 -0.0475
26612W        W42746  16.621  10.585  11.908  0.0667  0.0337  0.3319
26613W        W42747  17.559   3.914  13.110  0.2216 -0.0556  0.0823
26614W        W42748   4.645   5.282  13.901  0.1340 -0.2049  0.1721
26615W        W42749   2.774   2.573  14.162 -0.0793 -0.2601  0.2031
26616W        W42750  16.520   4.765  11.660 -0.1268 -0.2224  0.0956
26617W        W42751  15.719   3.482   3.793 -0.0365  0.2297  0.1243
26618W        W42752   1.671   9.524   2.043  0.3549 -0.1381  0.1153
26619W        W42753  16.699   6.028  16.420  0.1486 -0.1321  0.2660
26620W        W42754   9.906  16.930   1.759 -0.0812  0.0138  0.1354
26621W        W42755  13.904  15.065   1.913  0.0304 -0.2839  0.0187
26622W        W42756   9.353   6.702  11.507  0.1344 -0.1425 -0.0135
26623W        W42757   1.016  11.112  15.024 -0.1119 -0.0761  0.1875
26624W        W42758   9.556   2.909   3.102  0.2585  0.0138  0.0140
26625W        W42759   4.603  10.443   4.273 -0.1802 -0.3533  0.2165
26626W        W42760   9.284  10.361  13.480  0.0452  0.0900 -0.0029
26627W        W42761   4.989  10.068  12.252 -0.3805  0.0350  0.1284
26628W        W42762   5.994  15.650   0.478 -0.1790  0.0779 -0.1132
26629W        W42763   0.925   4.492   2.474 -0.2344 -0.1122 -0.0694
26630W        W42764   7.437   5.221   2.780 -0.0133 -0.0213 -0.1093
26631W        W42765   1.911  16.172   0.891 -0.1089 -0.0647  0.0773
26632W        W42766   7.450  14.339   2.355 -0.3072  0.2096  0.2641
26633W        W42767   1.285   3.447   1.020 -0.0178 -0.1420 -0.0072
26634W        W42768   3.751   6.641   4.190 -0.1599 -0.2674  0.1010
26635W        W42769  18.024   3.540   1.375 -0.0839 -0.0767  0.1082
26636W        W42770  10.917  11.690  14.178 -0.0874  0.4051 -0.0072
26637W        W42771   4.783  13.018  13.440 -0.1257 -0.2276 -0.1713
26638W        W42772   8.618  12.131   1.552  0.2638 -0.0962  0.3900
26639W        W42773  17.450   6.122   3.531  0.1782  0.4350 -0.3365
26640W        W42774  13.683  14.302  13.567  0.0410 -0.0501 -0.1153
26641W        W42775  13.288  10.476  12.267  0.0467 -0.1519 -0.0148
26642W        W42776   1.180   8.675  12.308  0.1899 -0.1483 -0.0296
26643W        W42777  13.723   3.928   3.918 -0.1387 -0.0126 -0.2309
26644W        W42778  11.726  16.327  15.818  0.2137 -0.3981 -0.2105
26645W        W42779  10.083   2.722   1.297  0.1012  0.0093  0.2287
26646W        W42780  15.970   8.033  12.455 -0.2628  0.1419 -0.2720
26647W        W42781  10.903  16.463  16.123  0.0862  0.1796  0.2116
26648W        W42782  15.832  13.577  15.136  0.0882  0.3757 -0.4253
26649W        W42783   7.787   7.488  14.307  0.4549  0.0299 -0.3230
26650W        W42784   7.654   2.686  13.283  0.2650 -0.1800  0.2566
26651W        W42785  14.448  17.466  11.605 -0.0480 -0.0341 -0.0698
26652W        W42786  18.160   1.620  11.492 -0.1987 -0.0155  0.0532
26653W        W42787  12.257   9.531  10.757 -0.0231  0.0357  0.1399
26654W        W42788   3.350   6.675   3.914  0.0193 -0.1665 -0.1957
26655W        W42789  16.460  12.451   0.358  0.1224 -0.1061 -0.0608
26656W        W42790  13.780  15.093   3.656  0.1202  0.1271 -0.0201
26657W        W42791  12.063  17.673   2.700 -0.1289  0.3129  0.0900
26658W        W42792   8.856  13.653  12.991 -0.2862 -0.0326  0.1705
26659W        W42793  18.150   8.135  11.995 -0.0658 -0.1200  0.1228
26660W        W42794  12.838  16.139  14.462  0.0812  0.2623  0.1574
26661W        W42795  17.113   7.493  14.832 -0.1546 -0.0241 -0.1953
26662W        W42796   3.509   3.395  14.972 -0.1178 -0.0299 -0.1267
26663W        W42797   4.004  17.016   4.103 -0.1584  0.3678 -0.2509
26664W        W42798   3.647   5.804   0.462 -0.1223 -0.2618  0.1592
26665W        W42799  16.880  17.921   0.497 -0.2762 -0.0651 -0.0413
26666W        W42800  10.872  15.545   2.634  0.2097 -0.0138  0.2845
26667W        W42801   2.112  13.481   3.447  0.1794 -0.0746  0.5262
26668W        W42802   2.804  17.900  16.281  0.0896  0.1428  0.1672
26669W        W42803   7.419  13.804  13.341 -0.0955 -0.0835  0.2044
26670W        W42804   5.605   3.653  14.655  0.1218 -0.2126  0.1033
26671W        W42805   4.160   8.766   3.915 -0.1538 -0.2263  0.2985
26672W        W42806  17.680   0.307   3.391  0.3043  0.1883 -0.2035
26673W        W42807  17.616  11.218  12.837 -0.3146 -0.2917 -0.2995
26674W        W42808  12.135  15.958  13.274  0.0503 -0.3871 -0.0922
26675W        W42809   2.847  17.538   5.495  0.0132  0.3632 -0.2146
26676W        W42810  13.359   5.829  14.414 -0.0804 -0.0541 -0.1753
26677W        W42811  17.968   5.121   3.395 -0.1943 -0.0639 -0.5034
26678W        W42812   9.066  12.870  13.347 -0.0263  0.3250  0.0744
26679W        W42813   7.332   8.364   9.584 -0.0632  0.2873  0.0948
26680W        W42814   3.853  13.904  15.027 -0.0488  0.0401  0.0872
26681W        W42815   4.172   9.480  15.356 -0.0437 -0.1614 -0.3092
26682W        W42816   8.889   2.402  16.038  0.0109  0.2722 -0.0071
26683W        W42817  16.620   6.573  13.559  0.0095 -0.1103  0.0338
26684W        W42818   9.999   3.677  13.565 -0.2154 -0.1705  0.2877
26685W        W42819  16.390   3.156  12.894  0.0970  0.2172  0.3618
26686W        W42820   8.289  17.471  12.356  0.2106 -0.1181 -0.0404
26687W        W42821  12.223   2.785  12.739 -0.1646 -0.3763 -0.1039
26688W        W42822  17.377   2.707   4.253  0.3216  0.0166  0.0133
26689W        W42823   9.157  10.208   4.412  0.0109  0.2956 -0.1666
26690W        W42824   8.696  18.017  13.328  0.0210 -0.0055  0.1507
26691W        W42825   2.861  11.629  14.365 -0.0637  0.1371  0.1056
26692W        W42826  17.137   2.449   5.017 -0.1608 -0.0991 -0.5249
26693W        W42827   1.855   1.619   0.735  0.0801  0.0812 -0.0864
26694W        W42828   0.891  10.249  13.523  0.2934 -0.0223  0.0712
26695W        W42829   3.948  14.393  15.167  0.0413  0.1054 -0.0496
26696W        W42830   9.483   0.976   0.912 -0.0171  0.1737  0.0336
26697W        W42831   4.842   4.302   5.744 -0.2488 -0.4191 -0.2562
26698W        W42832  17.812   4.485   3.239  0.0811 -0.3370 -0.0614
26699W        W42833   7.889   8.747   0.468 -0.0416 -0.1651  0.2800
26700W        W42834  12.508   2.796  13.972 -0.1332  0.1739  0.0961
26701W        W42835   9.049  15.844   4.033  0.2412  0.0827  0.0745
26702W        W42836  10.350   0.488  14.275 -0.0869 -0.1252 -0.3871
26703W        W42837  14.809   4.130   4.130  0.1611  0.1021  0.2775
26704W        W42838  15.200   6.983   5.134 -0.0375  0.1561 -0.3104
26705W        W42839  17.057   1.770   1.065  0.0692  0.0079 -0.0231
26706W        W42840  16.349   8.163  12.056 -0.1047  0.0253  0.0005
26707W        W42841   4.751  17.189   5.660 -0.0403  0.2353 -0.4223
26708W        W42842   0.186   4.957  14.677  0.2010 -0.1468 -0.0810
26709W        W42843  11.165   1.615   5.635  0.1291  0.2988 -0.2146
26710W        W42844  10.685  13.924  12.180 -0.0980 -0.2803 -0.1296
26711W        W42845  13.771  16.391   1.889  0.3402 -0.2771  0.2471
26712W        W42846  10.743   0.040   1.813 -0.1728 -0.0221 -0.0008
26713W        W42847   0.643   7.636   3.533 -0.2099  0.3116  0.2226
26714W        W42848   7.974  11.515   0.497  0.0899 -0.2941  0.1415
26715W        W42849   4.316  13.959  11.324  0.1291  0.2287  0.1296
26716W        W42850   7.340  16.016  14.142  0.0727  0.1178 -0.0406
26717W        W42851  11.942  10.996  12.104  0.2321 -0.0944  0.3103
26718W        W42852   6.273   2.559   3.525 -0.1536  0.1512 -0.1286
26719W        W42853   7.076  10.799  11.280 -0.6186 -0.1520  0.4042
26720W        W42854  12.364  17.783  15.046  0.1542 -0.0779 -0.0880
26721W        W42855  10.982   9.311  15.213 -0.1475 -0.0271  0.0635
26722W        W42856  10.058  15.708  12.373  0.1859  0.2049  0.0045
26723W        W42857   9.499   8.808  12.280 -0.2153  0.0479  0.2459
26724W        W42858   3.308   3.117   4.410  0.0922  0.3685  0.1336
26725W        W42859   2.001  17.731  12.079 -0.0285 -0.0154 -0.1254
26726W        W42860  11.323   4.567   3.219 -0.2918 -0.1434 -0.0167
26727W        W42861   4.016  13.509  13.405  0.0624  0.2197 -0.2477
26728W        W42862   5.591   7.058  16.233  0.1060 -0.2174  0.0562
26729W        W42863  10.751   4.406  14.903 -0.1044 -0.0706  0.1744
26730W        W42864  15.086   5.763   2.878  0.0334 -0.0284 -0.0187
26731W        W42865  11.686  13.957   0.167  0.1657 -0.3033 -0.0219
26732W        W42866   1.897   7.540  13.124  0.1329 -0.1617 -0.1090
26733W        W42867   2.160   9.467   2.728  0.0459  0.1015  0.0726
26734W        W42868  10.321   1.499   3.884 -0.1356 -0.0622 -0.1958
26735W        W42869   3.117  14.826  14.064  0.1023 -0.1660 -0.3145
26736W        W42870  16.837  11.336  12.599  0.1975 -0.0126  0.0979
26737W        W42871  13.487  12.885  12.966 -0.4536 -0.2240 -0.2769
26738W        W42872  10.248  16.444   4.775  0.0551 -0.1227  0.1327
26739W        W42873  15.850   2.755   1.567 -0.2710  0.1392 -0.1971
26740W        W42874  17.438   7.504   0.516 -0.1822  0.2145  0.0337
26741W        W42875   5.246   2.945  11.631  0.0256 -0.2852  0.1707
26742W        W42876   3.297   7.850  12.058 -0.1565 -0.0201  0.2092
26743W        W42877   8.773   6.209   0.752  0.0349  0.0167 -0.2576
26744W        W42878   3.082   1.457   4.214 -0.0879  0.0492  0.0665
26745W        W42879  14.996   9.271   2.036  0.1414  0.1142  0.0064
26746W        W42880  16.399  13.401   3.523 -0.0887  0.0457  0.3232
26747W        W42881  11.763  13.729  14.913  0.1404  0.0197  0.0735
26748W        W42882   0.198   6.568   6.239  0.1873 -0.2577  0.0818
26749W        W42883  17.930   2.184   1.806  0.1051 -0.0316  0.2173
26750W        W42884   5.211  12.890  14.180  0.2804  0.4792 -0.0279
26751W        W42885   6.578   3.505   0.884 -0.0013 -0.2403 -0.0213
26752W        W42886   6.876   7.011   3.978  0.0300  0.0892  0.1476
26753W        W42887   5.379  10.987   0.128  0.0712  0.1426 -0.1858
26754W        W42888   4.013  10.930  13.091  0.0703  0.0830  0.1274
26755W        W42889   1.573   1.953  15.266 -0.0151  0.1366  0.0502
26756W        W42890   1.784  16.324   5.486  0.1092 -0.1918 -0.1237
26757W        W42891   9.444   1.257  15.799  0.1494  0.1289  0.0984
26758W        W42892   6.064   6.654  12.262 -0.0826  0.0159 -0.0127
26759W        W42893  15.928   4.552   3.859 -0.0487 -0.1101  0.3247
26760W        W42894  13.764   9.746   3.540 -0.2381 -0.2063 -0.2366
26761W        W42895   9.524   2.415  15.592  0.3250 -0.1260  0.2022
26762W        W42896  12.141   1.544   0.916  0.1222 -0.1144  0.0637
26763W        W42897   4.646  17.560  14.674 -0.0870 -0.0684  0.0237
26764W        W42898   6.111   0.316   5.252  0.4043  0.2420 -0.0317
26765W        W42899   2.260   1.050   3.583 -0.1877 -0.2920  0.1920
26766W        W42900   4.618  10.255  12.885  0.0508 -0.0683  0.0912
26767W        W42901  15.562  13.772  13.680 -0.2078 -0.2114 -0.2705
26768W        W42902  16.289  12.440   3.646 -0.1298  0.2037  0.0221
26769W        W42903   8.295   8.502   2.243  0.1153  0.1402 -0.0702
26770W        W42904   3.410  11.626  13.374  0.0200  0.1505 -0.3533
26771W        W42905   1.622   1.756  14.718  0.2577 -0.2206 -0.2720
26772W        W42906   0.359   0.355   0.965 -0.2307 -0.3305  0.0802
26773W        W42907   2.741  11.715   0.281  0.0779 -0.0037 -0.1059
26774W        W42908   2.304  11.773   3.941  0.2274 -0.1053  0.1595
26775W        W42909   0.592   5.079  13.731  0.1593  0.2964 -0.0749
26776W        W42910   5.911   7.987   0.653 -0.1937  0.0594 -0.0634
26777W        W42911  11.421   5.381   5.293 -0.1353  0.2061 -0.2641
26778W        W42912   0.709  17.648  11.564  0.1651  0.1027 -0.2971
26779W        W42913   6.945  15.136   3.643  0.0080  0.0127 -0.1432
26780W        W42914  13.135  14.352  12.948  0.0057  0.1114 -0.1412
26781W        W42915  13.449   2.152   3.543 -0.2689  0.1561 -0.0622
26782W        W42916  15.698  14.310   4.954  0.3483  0.2626 -0.0372
26783W        W42917   4.132  11.465   2.004 -0.1141  0.0417 -0.0254
26784W        W42918   5.523   4.464   0.619  0.1656 -0.0621  0.2699
26785W        W42919   1.914  13.942  11.919  0.0738 -0.0131  0.3035
26786W        W42920  17.945  11.820   3.947 -0.0001 -0.2341 -0.3710
26787W        W42921   2.260  12.651  11.444 -0.1166 -0.2238 -0.0413
26788W        W42922   4.445  13.192  13.798 -0.4342 -0.1594 -0.0119
26789W        W42923   3.506   9.420  16.222 -0.1092  0.0748 -0.0521
26790W        W42924  13.823   4.963  13.914 -0.0938 -0.1329 -0.1629
26791W        W42925  11.665  12.055  10.192  0.0383 -0.2209 -0.0311
26792W        W42926   1.454  11.829   2.903 -0.0031 -0.2190 -0.0283
26793W        W42927   0.766   4.078  14.673 -0.0833  0.1843  0.2792
26794W        W42928  14.536  10.494   0.221  0.3097 -0.0481 -0.2377
26795W        W42929   4.352   6.211   3.768  0.0378  0.2301  0.3461
26796W        W42930  10.876  18.175   4.393  0.0517  0.2144 -0.1672
26797W        W42931  10.766  17.122   4.647  0.0023 -0.1714  0.1313
26798W        W42932   6.914   0.056   3.922 -0.0756 -0.3055 -0.0100
26799W        W42933  16.008   9.316  14.080 -0.2038 -0.2084 -0.0879
26800W        W42934   3.830   8.054   2.485  0.1049 -0.0431 -0.1127
26801W        W42935   1.949  14.489   1.382  0.0299 -0.0781 -0.1786
26802W        W42936   4.865   9.621  15.750  0.3641  0.1773  0.0993
26803W        W42937   9.578   1.101   1.392 -0.3486 -0.0778  0.0031
26804W        W42938   7.609   2.031  14.744 -0.2923  0.3166 -0.1671
26805W        W42939   9.729   8.619  16.169 -0.0356  0.2113 -0.0508
26806W        W42940  14.884  14.937   0.989  0.1237  0.0220 -0.3196
26807W        W42941  14.157   9.644   4.781  0.0681 -0.0315 -0.2824
26808W        W42942  12.261  15.174   5.247  0.2819 -0.0653 -0.5576
26809W        W42943  10.848  12.618  11.299 -0.0517  0.0918 -0.0704
26810W        W42944  12.263  17.741   3.589 -0.1416  0.1641 -0.2507
26811W        W42945   0.577   1.006   0.178  0.1819  0.1951 -0.1803
26812W        W42946  10.603  15.838   3.889 -0.0032 -0.1504 -0.0707
26813W        W42947  14.034  13.141  14.259 -0.5101  0.1357  0.0786
26814W        W42948  10.800   5.252  13.967  0.3030 -0.0121 -0.1471
26815W        W42949  12.715  11.942   1.650 -0.0408  0.0825 -0.2304
26816W        W42950   2.047   2.650  13.867 -0.0747 -0.1413  0.2169
26817W        W42951  17.667  16.423   4.063 -0.0594 -0.1214 -0.1805
26818W        W42952  12.954   8.842  12.210 -0.0763  0.4500  0.1443
26819W        W42953  11.098   3.010   3.546  0.0807  0.1821 -0.1927
26820W        W42954   0.912   6.513   3.805 -0.3506  0.0384  0.1731
26821W        W42955  15.176  11.926  12.981 -0.1544  0.1629  0.0112
26822W        W42956  12.801  12.278   5.459 -0.1271 -0.4200 -0.1099
26823W        W42957  17.450  15.660  13.188 -0.2024 -0.3094  0.0595
26824W        W42958   9.788   0.321   1.773 -0.0982  0.1094  0.1952
26825W        W42959   0.517  16.134   6.409  0.3439 -0.2717  0.0101
26826W        W42960  14.023   1.386   5.345 -0.3208 -0.1674  0.1908
26827W        W42961  11.913   2.945  13.834 -0.1400  0.0859  0.1958
26828W        W42962  15.600  18.023  15.229  0.1008 -0.1810  0.1343
26829W        W42963  17.527   2.865   5.141  0.0437 -0.3941  0.1149
26830W        W42964  15.505  15.972   4.400  0.2556 -0.2607  0.0256
26831W        W42965   7.577   1.096   4.658  0.1550 -0.1305  0.0515
26832W        W42966   6.462   1.452  11.940 -0.0071 -0.2263  0.0369
26833W        W42967  13.827   2.309   5.056 -0.0357  0.0605 -0.0708
26834W        W42968   2.387  17.417   5.277 -0.0213  0.0906  0.0591
26835W        W42969  15.261  16.793  12.915  0.0493  0.0198  0.1437
26836W        W42970  18.133   6.722   2.437 -0.2533  0.0294 -0.1419
26837W        W42971  14.118  11.181  15.828  0.0403 -0.0680 -0.0029
26838W        W42972  10.243   8.990  14.931 -0.1945  0.4416  0.0580
26839W        W42973  12.044   3.789  14.777 -0.2777 -0.1856 -0.1955
26840W        W42974  14.511   1.282  15.111 -0.3521 -0.0626  0.1807
26841W        W42975   4.038  11.912  15.018  0.2344  0.0209  0.0056
26842W        W42976  16.653   9.445  11.573  0.1191 -0.1323  0.0245
26843W        W42977   2.062   2.389   3.721 -0.1939  0.0971  0.2497
26844W        W42978  11.751   8.707   2.369 -0.0383 -0.2680  0.1589
26845W        W42979   9.778   6.360   3.456 -0.1198  0.2792  0.0312
26846W        W42980   7.373  12.632   2.492 -0.2261 -0.1339  0.0830
26847W        W42981  16.101  16.052   1.732  0.3227 -0.2817 -0.1424
26848W        W42982   9.001   4.227  15.866  0.1457  0.0692  0.1655
26849W        W42983   2.777   9.435  16.403  0.1412  0.1190  0.2626
26850W        W42984  10.209  12.659  11.845  0.1311 -0.2828 -0.1528
26851W        W42985   9.466   6.387   5.037 -0.1562  0.1379 -0.0985
26852W        W42986   2.199   7.108   3.265 -0.4016  0.3599 -0.0426
26853W        W42987  15.129   4.134   5.014 -0.2255  0.2214  0.2145
26854W        W42988  12.757  12.686  14.355 -0.1727 -0.0323  0.2386
26855W        W42989   2.851  17.554  12.204  0.2121 -0.1589  0.0968
26856W        W42990  14.016  16.217   6.889 -0.1382  0.1646  0.2144
26857W        W42991  16.629  12.560   2.541 -0.0268  0.0969 -0.2319
26858W        W42992  16.337   0.453  12.450 -0.2299 -0.1382  0.0562
26859W        W42993  11.421   2.525   3.715  0.2473 -0.1733 -0.0273
26860W        W42994   9.118   3.640   2.969 -0.0834  0.2327  0.2097
26861W        W42995   7.408  13.261   4.851  0.0390  0.1633 -0.0259
26862W        W42996   4.679   8.664  16.274 -0.1539 -0.2780  0.1088
26863W        W42997  10.268   2.731  12.632  0.2737  0.1087 -0.3049
26864W        W42998   0.940   5.367  16.429  0.1336  0.0801  0.1510
26865W        W42999  14.837   3.917  13.065 -0.1365 -0.1204 -0.0678
26866W        W43000   3.812  18.115   2.817  0.1531 -0.0017  0.2809
26867W        W43001  10.907  13.531  12.990  0.0096  0.1046  0.3766
26868W        W43002  12.121  12.938   4.437  0.6071  0.0661 -0.0808
26869W        W43003   2.190   8.040   0.850  0.1091  0.1674  0.1203
26870W        W43004  10.972  15.988   0.646  0.2485  0.0927  0.0762
26871W        W43005  11.320  11.117  13.336  0.0873  0.1845 -0.2888
26872W        W43006   7.529  14.197  15.824  0.0949  0.0118  0.4531
26873W        W43007   1.409   0.350   3.442  0.0426  0.4702 -0.2094
26874W        W43008  15.784   0.609  15.222 -0.1586  0.0024 -0.0816
26875W        W43009  11.114  12.852  11.649 -0.2115 -0.0298 -0.6177
26876W        W43010  14.835   4.348  15.742 -0.1358  0.2726  0.1089
26877W        W43011  14.610   5.956   0.459  0.0247 -0.2959  0.0066
26878W        W43012   1.273  10.215  10.336 -0.2694  0.1280  0.0329
26879W        W43013  17.799   6.654   1.558  0.1779 -0.3841 -0.2619
26880W        W43014  11.798   4.387   3.528  0.0075  0.0473  0.0873
26881W        W43015   4.664  10.821   2.636  0.2642  0.0596  0.0432
26882W        W43016   4.167  13.201   0.272  0.0375  0.1328  0.0713
26883W        W43017   1.993   6.244   0.419  0.0286  0.1380 -0.0172
26884W        W43018   6.852  17.528  12.044 -0.1217 -0.2770 -0.2597
26885W        W43019   5.055  10.715  12.887  0.0215  0.1185 -0.0136
26886W        W43020  11.181   8.284  12.309  0.1293 -0.0648  0.0459
26887W        W43021   0.887   4.561  14.874  0.2670  0.0120  0.0493
26888W        W43022   0.139  12.114   2.838  0.0744  0.0549 -0.4358
26889W        W43023  12.640  13.248   1.587 -0.2097  0.3676 -0.1590
26890W        W43024   4.121   6.313  14.904 -0.0950  0.0969 -0.1332
26891W        W43025   5.020   1.724  14.183  0.0382  0.3512  0.1400
26892W        W43026   9.693   2.141  16.532  0.2463 -0.1710  0.0807
26893W        W43027  15.832   1.088   2.831 -0.1507  0.3073  0.1992
26894W        W43028  11.573   6.370   1.493  0.2552 -0.2090 -0.5103
26895W        W43029  17.133   5.177  14.432 -0.3171 -0.1273 -0.0444
26896W        W43030  13.132  15.407  12.299 -0.2610 -0.1792  0.0822
26897W        W43031   2.600   6.972  15.608 -0.1890  0.2726  0.1732
26898W        W43032  14.523  16.012  12.200  0.3713  0.2131 -0.0559
26899W        W43033  13.380  16.209   5.581  0.3629  0.0164 -0.4425
26900W        W43034   2.849  12.600   1.253 -0.4629 -0.2026  0.0168
26901W        W43035  13.501   3.450   1.244  0.0378  0.2044 -0.0289
26902W        W43036   8.207   9.423  12.015  0.0534 -0.2653  0.2211
26903W        W43037   4.184   2.959   3.460  0.1938  0.2836 -0.2705
26904W        W43038  16.898  12.134   2.104  0.0694  0.1686 -0.2642
26905W        W43039  10.815   9.921   3.259 -0.2314 -0.0953 -0.2696
26906W        W43040  11.196   9.090  11.614  0.2770 -0.1618  0.2799
26907W        W43041   4.758   9.510   0.155 -0.3102 -0.3223 -0.1624
26908W        W43042  12.544  12.960   3.000  0.1157  0.0015 -0.0213
26909W        W43043   1.737  18.104   1.690 -0.0417  0.1328  0.1159
26910W        W43044   5.868  17.900   2.679 -0.0604 -0.0995  0.1701
26911W        W43045  11.267   1.815  13.228  0.3035  0.2183  0.0250
26912W        W43046   6.000  13.831   0.368 -0.0228  0.0410 -0.1267
26913W        W43047  11.243   2.123  11.693 -0.1199  0.0842  0.1189
26914W        W43048  13.686   4.216   0.973  0.0034  0.1797  0.0867
26915W        W43049  17.135   8.408  14.167  0.0043  0.2613  0.2843
26916W        W43050   7.713  11.477  11.764  0.1889 -0.0861  0.2369
26917W        W43051  14.848   6.360  11.274  0.1449  0.4403  0.0084
26918W        W43052   2.028  10.219   2.627 -0.3739  0.0266 -0.2211
26919W        W43053  11.210   9.191   3.550  0.1184 -0.1948  0.0557
26920W        W43054  10.739   9.667  14.954 -0.0221 -0.1670 -0.1998
26921W        W43055   8.790  14.871   4.391 -0.2255  0.1731  0.1919
26922W        W43056   2.650  12.187   0.419  0.2975  0.3254 -0.1965
26923W        W43057   0.474   9.459  15.090  0.1678  0.0888 -0.0306
26924W        W43058  12.464  17.626   2.408  0.0047  0.4743 -0.1102
26925W        W43059  10.148   6.634   4.132  0.1646  0.0008  0.0757
26926W        W43060   4.381  17.565   6.511  0.1194 -0.0515 -0.1035
26927W        W43061   2.757   6.206   1.640 -0.0142  0.1043 -0.0216
26928W        W43062   2.339  14.185  11.965 -0.0245  0.0118  0.4976
26929W        W43063  17.921   9.483  11.630  0.0543 -0.2661 -0.1894
26930W        W43064  14.717  15.253   3.279 -0.0000  0.1343 -0.0121
26931W        W43065  14.473   6.273   3.073  0.1200 -0.2663  0.1439
26932W        W43066   0.696   1.931   1.604  0.2207  0.0507  0.2335
26933W        W43067   0.749   9.934  12.994 -0.0380  0.1221  0.1818
26934W        W43068   0.253   9.404  11.385 -0.2993  0.4462 -0.1423
26935W        W43069   1.706  14.604   3.956  0.1897  0.0141  0.3339
26936W        W43070   0.387  17.520   3.754  0.1823  0.1272  0.0502
26937W        W43071   2.119  16.648   3.169 -0.3503 -0.1251  0.1554
26938W        W43072  13.984  11.778   6.330 -0.2364  0.1943 -0.1128
26939W        W43073   9.242  11.783  14.966 -0.1347 -0.1195  0.0691
26940W        W43074   4.842   0.307   5.631 -0.0771 -0.2253 -0.3275
26941W        W43075  17.804  12.279   0.762  0.1220  0.0650  0.3399
26942W        W43076   5.611   4.168   1.403  0.2032 -0.3811 -0.3453
26943W        W43077   4.067   9.468  16.337  0.2244 -0.0214 -0.1299
26944W        W43078  15.880   2.207   3.867 -0.1520 -0.0276  0.0117
26945W        W43079   0.944   3.859  12.038  0.3844  0.0625 -0.0779
26946W        W43080  17.803   3.471   4.826  0.2744  0.0581  0.1583
26947W        W43081  12.578   2.295  14.918  0.1702 -0.1354  0.1704
26948W        W43082  15.835   1.496   0.416 -0.2085 -0.0572 -0.0159
26949W        W43083  16.557  10.859  15.642 -0.0890  0.0187  0.1014
26950W        W43084   6.944  17.792  14.732  0.1832 -0.1114 -0.0183
26951W        W43085  12.648   9.255  13.851 -0.1609 -0.1349 -0.0338
26952W        W43086  14.822   7.920  13.285 -0.3955 -0.0816  0.1427
26953W        W43087  13.941  16.744   0.002 -0.2978 -0.0453 -0.2666
26954W        W43088  13.993   7.122   5.086 -0.1671  0.0238 -0.3468
26955W        W43089   0.850  13.393   4.674 -0.0548 -0.0051 -0.2516
26956W        W43090  12.506   4.924   2.151  0.1793  0.2337 -0.0279
26957W        W43091   0.281  12.303   1.834  0.1095  0.1796 -0.0322
26958W        W43092   9.721  16.723   0.402 -0.2519 -0.0413 -0.0461
26959W        W43093   3.788   9.546  14.095 -0.0824 -0.0796  0.0392
26960W        W43094   5.113  13.379   4.412  0.0677 -0.2531 -0.2248
26961W        W43095  11.978  15.393  16.264 -0.2004 -0.3084  0.2950
26962W        W43096  12.504  17.912   3.129  0.0485 -0.0459 -0.0551
26963W        W43097   7.835  15.120   2.436 -0.0191 -0.0896  0.0452
26964W        W43098  14.018   3.957  16.493 -0.1629  0.2180 -0.0837
26965W        W43099   4.731  10.971  15.365  0.0751  0.1603  0.2707
26966W        W43100  17.797  11.236   4.936 -0.1384  0.1180  0.0206
26967W        W43101  17.106  16.794   0.690  0.0302 -0.0717  0.0149
26968W        W43102   0.162  14.173  13.071  0.0268 -0.0049 -0.1525
26969W        W43103   5.381   5.014  12.394 -0.1469 -0.3369 -0.2497
26970W        W43104   5.289   6.304  15.968  0.0327  0.0844 -0.1557
26971W        W43105   5.279  17.405  16.176 -0.0968 -0.0076  0.1192
26972W        W43106  16.932  10.634   3.026  0.0366 -0.1677  0.1153
26973W        W43107   5.201   7.075  15.311  0.0780 -0.1353 -0.2891
26974W        W43108  10.483  15.660   2.947 -0.1008 -0.0844  0.0170
26975W        W43109   3.117   9.450   0.852  0.3913  0.0155 -0.2698
26976W        W43110  16.042  15.811   3.754  0.2239 -0.2056 -0.0322
26977W        W43111   3.481   9.889  13.220 -0.2766 -0.3502 -0.0310
26978W        W43112  17.400   5.036  12.729 -0.1199  0.1609 -0.1548
26979W        W43113  12.589  11.942  15.025  0.2238 -0.2467  0.1074
26980W        W43114   5.021   0.201  13.203 -0.0194 -0.1435 -0.1688
26981W        W43115   4.791  15.480  12.650  0.0242 -0.2122  0.1372
26982W        W43116   2.990  13.045  15.901 -0.1012 -0.2381 -0.4261
26983W        W43117   7.671  17.967  14.114 -0.1286  0.2086  0.3447
26984W        W43118  14.684   6.769   4.479  0.1712  0.0224 -0.2180
26985W        W43119   2.488   2.152  10.803  0.0828 -0.1709 -0.4924
26986W        W43120  11.699  15.262   1.093  0.1249  0.0102  0.4529
26987W        W43121   3.733   8.988   3.128  0.3022  0.0116 -0.1973
26988W        W43122   3.628   8.985  11.118  0.3327  0.0248 -0.0959
26989W        W43123   9.230   1.414  14.008 -0.0794 -0.0920 -0.1468
26990W        W43124   5.452  17.742   3.204  0.0050 -0.0212  0.2288
26991W        W43125   1.621  11.138   2.744 -0.0186 -0.2273 -0.1353
26992W        W43126   9.762  12.227   1.338 -0.0503 -0.1200 -0.1541
26993W        W43127   2.092   8.830   0.262 -0.3621  0.2364 -0.0437
26994W        W43128  10.954   9.786  13.026  0.0876  0.1939  0.2466
26995W        W43129   8.172   9.460   5.094  0.3129  0.0037 -0.3396
26996W        W43130   3.771   2.866  12.525  0.0199 -0.0927 -0.0232
26997W        W43131  10.746   3.596   3.983  0.2750  0.2400  0.1287
26998W        W43132  11.504  15.622  15.310  0.1837 -0.0280  0.1204
26999W        W43133   5.201   1.237  11.649  0.0601 -0.2835  0.3804
27000W        W43134   6.758   4.525   5.742  0.0052  0.0740  0.0815
27001W        W43135   0.251  13.457   3.263 -0.0515  0.2168  0.0045
27002W        W43136  15.085  11.689   0.092 -0.0835  0.0826  0.3115
27003W        W43137   3.978   5.423  13.608 -0.2718  0.0064 -0.0844
27004W        W43138   5.671   4.827  15.608 -0.0173  0.0125  0.0516
27005W        W43139   0.906   6.593   2.940 -0.1262 -0.0424 -0.3044
27006W        W43140   0.468  10.604   4.721  0.0621 -0.1307  0.1316
27007W        W43141   5.382  15.373   2.629  0.0608  0.0178 -0.0869
27008W        W43142   1.673  17.842  12.478  0.0113  0.0008  0.1592
27009W        W43143   0.892  12.626   2.988 -0.0697 -0.0381 -0.2051
27010W        W43144   1.182  12.322  15.715 -0.1916  0.0209  0.0653
27011W        W43145  13.500   8.028  16.465 -0.0409 -0.1413  0.0758
27012W        W43146   1.781  16.079   2.351 -0.3025  0.0816  0.0469
27013W        W43147  10.565   3.276  12.718  0.0189 -0.1308  0.0038
27014W        W43148  10.498  10.010   3.610 -0.1215 -0.0386  0.0704
27015W        W43149  13.279  14.489   0.593 -0.2315  0.0488 -0.0802
27016W        W43150   9.683   3.120   0.775  0.0028 -0.3748  0.0262
27017W        W43151  13.624   4.925  15.793 -0.0133 -0.1871 -0.0659
27018W        W43152   0.533   5.994  14.164  0.1176  0.0447  0.1727
27019W        W43153   4.152  11.213  11.693 -0.2620 -0.2350  0.3723
27020W        W43154   8.260  17.243  12.813  0.2541  0.0484  0.0959
27021W        W43155   5.805   5.685   3.011  0.2584 -0.0896  0.1721
27022W        W43156  17.490   2.371   0.291 -0.0825 -0.1180 -0.2138
27023W        W43157  12.083  10.129  13.566 -0.2811 -0.0359 -0.1420
27024W        W43158  15.971   7.196  15.026 -0.1163 -0.3916  0.2321
27025W        W43159   1.885   9.565   0.962 -0.0941  0.0630  0.0973
27026W        W43160   2.328  15.579   3.022 -0.0058  0.2113  0.2084
27027W        W43161   6.093  10.128   5.385  0.0917  0.0440  0.1819
27028W        W43162   9.295   4.381   0.375 -0.2685 -0.0720  0.2111
27029W        W43163  16.171   9.384   3.670  0.1535  0.1107 -0.4461
27030W        W43164  11.583  10.264   5.131  0.0025 -0.0998  0.0878
27031W        W43165   4.021  12.539  13.958 -0.1370 -0.3678 -0.0668
27032W        W43166  15.712   0.976   0.507 -0.0069  0.1980  0.0210
27033W        W43167   8.383   3.362   1.346  0.2590 -0.0115 -0.1759
27034W        W43168  12.439  10.402  11.093  0.0044 -0.0528 -0.1189
27035W        W43169  15.456  17.386  13.741 -0.0455 -0.1128  0.0224
27036W        W43170   7.154   4.795   2.793 -0.2145  0.0971 -0.1089
27037W        W43171  15.312   6.651   1.322 -0.0318  0.2105 -0.0591
27038W        W43172   6.535   6.505  16.356  0.2853  0.0761  0.2068
27039W        W43173   2.920   1.830   5.197  0.1466  0.0535  0.0583
27040W        W43174   2.394  17.607  12.968  0.3568 -0.1756  0.1659
27041W        W43175   6.943  11.079   3.993  0.0353 -0.0963  0.0222
27042W        W43176  15.739   0.921   5.564 -0.1564  0.1560  0.0876
27043W        W43177   1.061  11.071   0.113 -0.0504 -0.2226 -0.0438
27044W        W43178   9.319  17.957   4.434  0.2078  0.0549 -0.2574
27045W        W43179   1.529  12.765  14.119  0.0360  0.3201 -0.0546
27046W        W43180  15.712  15.692   3.317  0.1912 -0.1379  0.1949
27047W        W43181  11.153   2.348  13.445 -0.1008 -0.0437  0.2587
27048W        W43182  14.497  10.417  16.252 -0.1801 -0.2016  0.0303
27049W        W43183   7.940   6.432   2.604  0.2132 -0.0321 -0.1019
27050W        W43184   9.790   9.432   4.134 -0.0714 -0.1015 -0.0505
27051W        W43185  12.035   3.755  16.004  0.2109  0.1383 -0.2323
27052W        W43186  11.763   3.297   0.451 -0.2237 -0.0892  0.1288
27053W        W43187  14.501   1.962  14.457 -0.1866 -0.2977 -0.0394
27054W        W43188   9.092  18.161  11.833  0.1504 -0.2341  0.1256
27055W        W43189   8.297   6.091  11.096 -0.0584  0.1590  0.0427
27056W        W43190   5.841   2.405  11.871  0.1896 -0.0547  0.1780
27057W        W43191  16.880  12.055   0.755 -0.3084  0.0410 -0.1043
27058W        W43192  15.099   5.748   0.332  0.2438 -0.0483 -0.5970
27059W        W43193   8.238   4.694   2.412  0.0824 -0.0334 -0.1330
27060W        W43194  16.234  16.267   0.669 -0.0967 -0.0337 -0.0141
27061W        W43195   0.925  17.246  16.374  0.0606  0.0468 -0.1376
27062W        W43196   7.586   0.888   0.481 -0.2310 -0.2055  0.1066
27063W        W43197  17.413   1.571  13.189 -0.1839  0.0682  0.0622
27064W        W43198  11.710  14.433  15.526  0.2547 -0.1732 -0.2127
27065W        W43199   1.409  13.398  14.746  0.4390 -0.1154 -0.3037
27066W        W43200   3.043  12.413  13.758  0.3276 -0.1342  0.2227
27067W        W43201   9.693   7.883   0.778 -0.0572 -0.1237 -0.1376
27068W        W43202  12.595  10.549   3.448 -0.2775  0.2926  0.0237
27069W        W43203   1.217  13.022  11.513  0.0842  0.0597  0.0838
27070W        W43204  14.563   6.503  10.920 -0.1275 -0.2545  0.3528
27071W        W43205   6.722   2.531  11.726  0.1006 -0.0102  0.1870
27072W        W43206   8.430   3.510  15.563  0.0275 -0.0708 -0.1501
27073W        W43207  12.384  11.571   0.461 -0.0718 -0.0535  0.0183
27074W        W43208   8.474   5.061  16.426  0.1545 -0.0900 -0.3308
27075W        W43209  13.492   6.544  13.407 -0.0595  0.1148  0.1505
27076W        W43210   7.195  14.700  14.551  0.1622  0.1449 -0.4691
27077W        W43211   8.425   6.881   0.101  0.2123 -0.1455  0.0826
27078W        W43212   2.491   7.313  14.955  0.2341 -0.0992 -0.0473
27079W        W43213   5.958  16.434  13.864 -0.1251 -0.1109  0.1725
27080W        W43214   6.576   4.489  12.178  0.0369 -0.3065  0.0519
27081W        W43215   2.478   7.158   1.537  0.1486  0.1062 -0.4319
27082W        W43216   2.148  11.938  12.212  0.3688 -0.2192  0.0470
27083W        W43217   5.798   2.816  11.665 -0.0221  0.0129  0.2114
27084W        W43218   9.565   2.683   0.498  0.0546 -0.1693  0.1003
27085W        W43219   2.757   8.948   1.530  0.2090 -0.0624  0.2788
27086W        W43220   5.007   7.547  12.021 -0.1324 -0.1259  0.1569
27087W        W43221  17.396   2.672  12.621 -0.0123 -0.1536 -0.2123
27088W        W43222   8.310  18.161   4.922  0.0541  0.1997  0.1768
27089W        W43223   1.864  15.331  14.173  0.2413 -0.1530 -0.0512
27090W        W43224   6.658  12.201  14.371 -0.1643 -0.1605 -0.2626
27091W        W43225  12.907  10.623  10.836  0.0535  0.0795 -0.0543
27092W        W43226   2.465  10.043  15.278 -0.0480 -0.2577  0.3210
27093W        W43227  15.907   0.230   2.667 -0.0537 -0.1588 -0.1340
27094W        W43228   0.929   2.007   0.339 -0.0693  0.2310 -0.1512
27095W        W43229   6.983   4.832   3.590 -0.1070  0.1185 -0.1155
27096W        W43230   4.429  14.491   4.739  0.2741  0.2194 -0.1406
27097W        W43231   0.764   1.288   1.156 -0.1609 -0.0889  0.2554
27098W        W43232  14.773   5.939  15.085  0.1647 -0.0235  0.1761
27099W        W43233  15.254   1.300  12.007  0.2196 -0.0136 -0.4100
27100W        W43234  16.756   2.661  15.038 -0.0233 -0.3114  0.0176
27101W        W43235   4.871   3.573  15.185  0.1446  0.0553 -0.0895
27102W        W43236   6.756   7.261   5.703  0.0328 -0.1090  0.0573
27103W        W43237  13.699  17.159   2.686  0.1913 -0.1437  0.3157
27104W        W43238   7.104   6.894  13.845 -0.3795 -0.2333 -0.0918
27105W        W43239  11.786  12.502  14.266  0.0599  0.2337  0.0553
27106W        W43240   0.145   3.122  11.669  0.0304  0.0742 -0.0576
27107W        W43241  16.424   6.405  15.008  0.1371 -0.0142 -0.0695
27108W        W43242  13.678  12.763   5.559  0.0883 -0.2248  0.0036
27109W        W43243  10.204  15.209   1.013  0.1574  0.4207 -0.0602
27110W        W43244  12.350  11.223  14.820 -0.3141 -0.1837  0.2366
27111W        W43245  14.236   9.771  14.954 -0.0361  0.0069 -0.1946
27112W        W43246   0.493  16.221   2.344  0.1369 -0.1272  0.0150
27113W        W43247   8.819   1.072   2.622 -0.1214  0.0172  0.0562
27114W        W43248  10.552  17.934   4.033  0.0484 -0.1672 -0.1832
27115W        W43249  14.333  16.357   6.453 -0.0412 -0.1975  0.0371
27116W        W43250  17.571  10.831  12.426  0.4080 -0.2088  0.0881
27117W        W43251   2.718  12.830  11.513 -0.2510 -0.0662  0.1761
27118W        W43252  16.516  16.773   3.685  0.0454 -0.0880  0.2370
27119W        W43253   6.309   2.815  11.935 -0.4282 -0.4386 -0.0662
27120W        W43254  11.498   6.956   6.054 -0.0816  0.3224 -0.3172
27121W        W43255   2.819   3.769  11.818  0.0603 -0.6256 -0.1196
27122W        W43256   6.013   8.115  14.688 -0.2733  0.1439 -0.0155
27123W        W43257  13.525   7.935   4.987 -0.1018 -0.0018 -0.0193
27124W        W43258  12.870  14.566   3.819 -0.0743 -0.0886 -0.0686
27125W        W43259  12.061   7.271   3.278 -0.0510 -0.0195  0.1340
27126W        W43260  12.156   4.745  11.564 -0.0444 -0.1509  0.0254
27127W        W43261  12.156  13.405   4.133  0.0577  0.1196 -0.0309
27128W        W43262  13.895  11.494  10.611 -0.0219 -0.0701  0.0313
27129W        W43263   0.848   5.055  14.184 -0.1336 -0.2453  0.0324
27130W        W43264  13.212   6.228  15.631 -0.2830 -0.3922  0.0618
27131W        W43265   8.587  15.559   3.360 -0.0508  0.0035 -0.0104
27132W        W43266   0.746  12.280   5.498  0.0643 -0.1773 -0.1289
27133W        W43267  12.011   0.029   3.543 -0.0255  0.2527  0.2995
27134W        W43268   7.659  14.233  13.529 -0.0403  0.0315 -0.0939
27135W        W43269  13.991   0.702   5.736 -0.0679 -0.0648 -0.1714
27136W        W43270   9.975   9.562  16.202 -0.0272  0.1538  0.0356
27137W        W43271  11.592  15.552   4.754 -0.2420  0.1914  0.1092
27138W        W43272   5.327  13.127   1.017 -0.2133 -0.2191 -0.2793
27139W        W43273  13.125  12.286   2.416 -0.2171 -0.0077 -0.1294
27140W        W43274  12.279   8.915  16.224 -0.0637 -0.0080 -0.1486
27141W        W43275  18.123  10.981  16.036  0.1498 -0.0584 -0.1680
27142W        W43276   6.755   1.504  15.075  0.2193 -0.1552 -0.0710
27143W        W43277   5.218  15.223  15.527  0.2939 -0.0005  0.1850
27144W        W43278   0.831   5.743  12.161  0.1451 -0.1137  0.0373
27145W        W43279  12.174   4.912   3.316  0.3372 -0.1580  0.0979
27146W        W43280   5.611  10.532  15.378 -0.1284  0.5408 -0.0804
27147W        W43281  17.151  16.866   4.344 -0.0658 -0.1941  0.3337
27148W        W43282   8.108   9.492  10.708  0.0070  0.0129 -0.1613
27149W        W43283   7.293   6.228  13.393 -0.0970  0.1924  0.2203
27150W        W43284   7.040  17.142   4.589  0.0009 -0.0366 -0.2632
27151W        W43285   2.914  12.089   2.005 -0.1359 -0.1159  0.0569
27152W        W43286  15.615   9.892  15.664  0.2030  0.1547 -0.0414
27153W        W43287  11.650   3.829   1.919  0.0456 -0.0125  0.1684
27154W        W43288  14.786   4.576   1.254 -0.1077 -0.0385  0.1381
27155W        W43289  14.395   0.331   3.132 -0.1418  0.0504  0.3846
27156W        W43290   9.528  10.314  11.011  0.1446  0.2607  0.3326
27157W        W43291   3.560   1.045  16.513  0.1791 -0.1406  0.1472
27158W        W43292  12.055  13.924  12.333 -0.3100 -0.1622  0.1002
27159W        W43293  16.031  14.862  12.753  0.2727  0.0266 -0.2125
27160W        W43294  16.665   0.001  14.281 -0.1898 -0.1090  0.2303
27161W        W43295  11.365  14.462  12.630 -0.1614 -0.2187  0.1926
27162W        W43296  12.623  10.441   5.516 -0.1672 -0.0262  0.0354
27163W        W43297   5.100   9.062   0.831  0.0333 -0.0707  0.2366
27164W        W43298  17.978   9.617  12.123 -0.1354 -0.1372 -0.2692
27165W        W43299   2.705  12.346   3.321  0.1847 -0.1309 -0.0847
27166W        W43300   1.944  11.584   0.085  0.1658  0.0459 -0.0084
27167W        W43301  12.928  17.994   2.293  0.0172 -0.1340  0.2133
27168W        W43302  17.560   6.117  12.385 -0.1897 -0.0408  0.2275
27169W        W43303   3.193   9.804  13.717 -0.2106  0.4210 -0.0612
27170W        W43304   1.724   1.682   0.088  0.1099 -0.0297  0.2713
27171W        W43305  14.430  11.327  14.019 -0.0007  0.1966  0.2016
27172W        W43306   6.741  13.660  11.781 -0.3603  0.0948  0.1720
27173W        W43307   7.800   6.382   4.671 -0.1414  0.1219  0.6133
27174W        W43308  17.688  10.130  14.304  0.3702  0.1778 -0.1023
27175W        W43309  16.376   3.493  11.625 -0.3999  0.0362  0.4008
27176W        W43310  14.425   3.118  10.838 -0.2923 -0.0141  0.2718
27177W        W43311  16.785  15.450   5.947 -0.0984 -0.1085 -0.1307
27178W        W43312   7.710  10.880  12.778  0.3254  0.2678  0.0800
27179W        W43313   3.323  14.994  13.201 -0.3401 -0.1715 -0.2513
27180W        W43314  12.712  16.766   1.308  0.0594  0.2422  0.1007
27181W        W43315  16.886   6.126  14.948 -0.0790  0.0901  0.3872
27182W        W43316  13.532  18.050   0.641 -0.0043 -0.0826 -0.1175
27183W        W43317   9.049  13.898  11.523 -0.3327  0.0023 -0.0300
27184W        W43318  15.835  14.489  15.363  0.2023 -0.1411  0.0280
27185W        W43319   2.607   5.191  14.272 -0.1064  0.1512 -0.1576
27186W        W43320  11.315  15.473  12.962 -0.1992 -0.0784  0.0797
27187W        W43321  15.516  12.998   2.407  0.1785  0.1236  0.3083
27188W        W43322   7.106   8.616   0.450 -0.1544  0.1305  0.1060
27189W        W43323  15.224   8.483  13.058  0.0239  0.0574 -0.1736
27190W        W43324   7.021  12.351   0.198  0.1339  0.0049  0.2301
27191W        W43325   1.961   9.472   5.444  0.1687  0.1233 -0.1974
27192W        W43326   1.424   0.524  12.741 -0.0865 -0.0268 -0.0187
27193W        W43327   0.958   6.322   4.350 -0.0418 -0.1755  0.3795
27194W        W43328   8.281   6.747   4.961 -0.1065 -0.0098 -0.0512
27195W        W43329   6.252   4.341   1.350  0.1083  0.6171 -0.0735
27196W        W43330  10.657  12.074  14.310 -0.1956 -0.2653  0.0691
27197W        W43331  16.550   9.740  12.180  0.0890  0.2123  0.2788
27198W        W43332  10.187   3.744   0.786  0.2705 -0.3425  0.2332
27199W        W43333  11.553  12.407   3.081 -0.0400  0.3474 -0.0310
27200W        W43334   7.092   2.197   3.571  0.2356  0.1564  0.0208
27201W        W43335   7.648  11.196   3.428 -0.0515  0.1354  0.0102
27202W        W43336   3.891   5.937   0.029  0.1831 -0.0363 -0.0156
27203W        W43337   6.452   8.855   4.111 -0.1890  0.1270 -0.2339
27204W        W43338   1.336   6.779   1.987 -0.0108 -0.1656 -0.4888
27205W        W43339  17.644  10.198  16.289 -0.3853 -0.0976  0.2262
27206W        W43340   0.326   0.253   5.620  0.1823  0.1426 -0.0868
27207W        W43341   6.112  14.738  13.659  0.2820  0.3214 -0.0625
27208W        W43342  10.511   0.330  15.100  0.0364  0.1075  0.0556
27209W        W43343   0.727   0.143  15.928  0.2554 -0.0640 -0.0897
27210W        W43344  10.776   0.821   3.548  0.4197 -0.0378  0.2137
27211W        W43345   6.142   7.051  15.338 -0.2547 -0.1370 -0.0316
27212W        W43346   5.528  16.125  11.575 -0.0312 -0.3615 -0.1640
27213W        W43347   0.064   5.479   3.713  0.1593  0.0458  0.1519
27214W        W43348   2.127   8.770  13.376 -0.4464  0.2403  0.0225
27215W        W43349  18.061  10.524  13.178  0.1358  0.3464 -0.2457
27216W        W43350  15.219  12.211  16.417 -0.0114  0.1851 -0.1859
27217W        W43351   7.031   1.378   0.779  0.1339  0.0751  0.1994
27218W        W43352   2.023   7.331  14.660 -0.3395 -0.4270  0.0320
27219W        W43353  12.928  12.747  11.517  0.1459  0.2667 -0.1096
27220W        W43354   5.762  16.461   4.162  0.2708  0.0071 -0.1843
27221W        W43355   1.588   8.477   0.342 -0.2003  0.2252  0.0778
27222W        W43356   2.491   8.530  14.325 -0.0418  0.3008  0.0008
27223W        W43357   6.574   2.167   4.338 -0.0252 -0.1002  0.3749
27224W        W43358   0.908   0.461   4.403 -0.0070 -0.0548 -0.0797
27225W        W43359  12.171  14.320   3.299 -0.1382  0.1535  0.0960
27226W        W43360   1.957   6.349  16.430  0.3314  0.1252 -0.1296
27227W        W43361   5.318  14.951  13.665  0.2682  0.1052  0.1119
27228W        W43362   8.884   6.736  15.306  0.1321  0.1451  0.0786
27229W        W43363   7.049   0.924   2.874 -0.1026  0.1021  0.1764
27230W        W43364   3.105   6.893  14.560 -0.3048  0.0825  0.2338
27231W        W43365   6.478   3.445   5.735 -0.0114  0.1942  0.2922
27232W        W43366   7.937   1.307   4.987 -0.3129 -0.0798  0.0357
27233W        W43367  14.752  16.380   0.694 -0.2600 -0.0950 -0.3375
27234W        W43368   0.617  11.921   1.351 -0.1550 -0.3378 -0.0282
27235W        W43369   3.460   1.681  12.822  0.1225 -0.0056 -0.0341
27236W        W43370  14.455  12.165  14.481 -0.0852  0.1228 -0.3442
27237W        W43371  14.084   9.820   1.803  0.1467 -0.3340  0.2155
27238W        W43372  13.341   4.444  16.111  0.1618 -0.0933  0.2600
27239W        W43373   8.528   0.863   2.291  0.2758  0.0075  0.0713
27240W        W43374   9.997   1.995  15.001 -0.4602  0.0289 -0.0785
27241W        W43375   8.579  12.614  15.773  0.1289  0.0114  0.1197
27242W        W43376  17.347   2.642  15.441  0.1293  0.1234  0.0169
27243W        W43377  13.614  18.008   0.154  0.0224 -0.0313  0.1727
27244W        W43378  14.008  10.025  12.564 -0.0125 -0.3702  0.4737
27245W        W43379  12.038   8.167   4.192 -0.2488  0.2764  0.0080
27246W        W43380   5.810  16.645  16.466  0.3394 -0.1534  0.0375
27247W        W43381  11.268   2.520  14.966  0.0115 -0.3169 -0.0289
27248W        W43382  11.798  10.952  13.422 -0.1435 -0.0973  0.1154
27249W        W43383   0.790  17.413  14.396 -0.1486  0.1502  0.3371
27250W        W43384   3.957  10.967   4.750  0.0009  0.3477  0.0869
27251W        W43385   5.181   8.539   0.030  0.3785 -0.4476 -0.1141
27252W        W43386  11.534  10.155   1.881 -0.0437 -0.3662  0.0528
27253W        W43387   6.277  10.427   3.533  0.1850 -0.0691  0.0037
27254W        W43388   5.160   5.335  13.770  0.3144  0.0931  0.2906
27255W        W43389   6.216  15.926  14.890  0.2710 -0.3073 -0.0008
27256W        W43390   5.852  10.091  15.884 -0.0037  0.1042 -0.2430
27257W        W43391  16.062   6.531   3.498  0.0388 -0.1233  0.2946
27258W        W43392  11.142   3.650   3.720  0.0519 -0.0627  0.1602
27259W        W43393  11.020   4.011   1.529  0.1814  0.1424 -0.3744
27260W        W43394   7.877   8.021   4.385 -0.1272  0.2536  0.1893
27261W        W43395  13.797  10.403   1.030 -0.0001  0.1771 -0.0474
27262W        W43396  10.423   9.690  15.993 -0.3438 -0.2259  0.0754
27263W        W43397  11.087  17.249  14.503 -0.0365  0.2495  0.0628
27264W        W43398  17.718   6.763  11.312 -0.3099 -0.0188  0.3629
27265W        W43399  13.157  10.793   0.827  0.1740 -0.0667  0.0924
27266W        W43400  13.969   1.861   0.916  0.2783 -0.0679 -0.1277
27267W        W43401   2.083   6.127   4.213 -0.0616 -0.0113 -0.0775
27268W        W43402   3.109   3.308  11.719 -0.0848 -0.0857 -0.0793
27269W        W43403  12.804  12.276   4.164 -0.0102 -0.2839 -0.1094
27270W        W43404  13.445  13.723   1.159 -0.0349 -0.3768  0.1110
27271W        W43405   5.577  13.155   4.579  0.0485 -0.1050 -0.2747
27272W        W43406  17.480  17.291  14.270  0.1085  0.0799 -0.0091
27273W        W43407   6.220   0.113  14.371 -0.2365  0.2598  0.2020
27274W        W43408  15.115  14.181  15.877 -0.1803  0.1430 -0.1076
27275W        W43409  10.471  14.649   5.620 -0.0277 -0.1189  0.1557
27276W        W43410  14.216  10.304   1.972  0.0891  0.0451  0.1811
27277W        W43411  11.721  16.923   0.485 -0.1898  0.0706  0.0447
27278W        W43412   2.694   1.317  12.601 -0.4799  0.1749  0.2199
27279W        W43413   3.121  12.324   2.983 -0.1114 -0.1798  0.2415
27280W        W43414  11.818   6.125   5.721  0.1863  0.0832  0.1055
27281W        W43415  15.017   2.996  13.002  0.1112  0.0568 -0.0620
27282W        W43416   5.469   2.752   3.153 -0.0219 -0.2084  0.1575
27283W        W43417   6.877  13.424   3.543  0.2236 -0.1265  0.0922
27284W        W43418  11.470   0.470   0.756 -0.3360 -0.1710 -0.1051
27285W        W43419   8.414   8.917   0.598 -0.1586  0.0824  0.0908
27286W        W43420   2.386   4.118   1.013 -0.2149 -0.3897  0.1031
27287W        W43421   1.183  13.225  13.409  0.1603 -0.3005 -0.0076
27288W        W43422  16.669   5.089   3.135 -0.1315  0.1183 -0.0083
27289W        W43423  13.410  12.954  13.818  0.0306  0.3594  0.1959
27290W        W43424  10.073   1.127   3.074 -0.0864 -0.2040 -0.2453
27291W        W43425   6.036   2.219   5.220 -0.1416 -0.1963  0.0156
27292W        W43426   1.239   5.492   4.576 -0.0557  0.0232 -0.0736
27293W        W43427  13.852  14.333   0.630  0.2863 -0.1347 -0.3661
27294W        W43428  10.011   7.132  14.604 -0.0416 -0.0683  0.2294
27295W        W43429  10.236   7.251   1.591  0.2108 -0.0103 -0.1101
27296W        W43430   7.471  14.146   3.437 -0.3093 -0.0013 -0.1156
27297W        W43431  13.038  17.810  13.489  0.1940 -0.0872  0.1213
27298W        W43432   5.097   6.999   1.377 -0.0458 -0.0595 -0.0358
27299W        W43433   8.347  14.325   1.449 -0.2673 -0.0926 -0.0261
27300W        W43434  10.310   6.282   4.692  0.1397  0.0698 -0.2302
27301W        W43435   0.628   9.956  12.130  0.3231 -0.0494  0.0916
27302W        W43436  13.661  17.365   2.209  0.4067  0.0085 -0.0024
27303W        W43437   6.612  11.815  13.580  0.0110 -0.1461  0.0118
27304W        W43438   6.551   6.749  12.140 -0.0233 -0.0975 -0.2891
27305W        W43439  16.964   1.399   6.056  0.2423 -0.0218 -0.0057
27306W        W43440   3.031   9.795  11.031 -0.0871 -0.0504 -0.3157
27307W        W43441   4.349   1.292  13.113  0.1302 -0.0138 -0.1787
27308W        W43442  12.893  12.827   1.752 -0.1471 -0.0901 -0.0606
27309W        W43443   5.606  14.441   0.987  0.0136 -0.1789  0.0040
27310W        W43444  16.434   5.825   2.496 -0.0401  0.1533 -0.0985
27311W        W43445   4.833   9.816  12.728  0.2771  0.0435 -0.2824
27312W        W43446  13.066  17.654   5.323 -0.1414 -0.4002 -0.0100
27313W        W43447  13.003  11.833  10.892 -0.2585  0.1829 -0.0186
27314W        W43448   9.488  16.931  12.442  0.0060  0.0518 -0.1831
27315W        W43449  13.567   1.845   2.432  0.1990  0.2124  0.2998
27316W        W43450  12.046   1.941   4.211  0.1035 -0.0432 -0.1524
27317W        W43451  15.704  17.216   5.103  0.1998 -0.3790  0.0753
27318W        W43452  13.304   3.666  13.814  0.0350 -0.0298 -0.0870
27319W        W43453   5.350   7.485  13.789 -0.0996 -0.2792 -0.2111
27320W        W43454  12.621   9.227   3.634 -0.0237 -0.0512 -0.1803
27321W        W43455   5.360  13.324   5.348 -0.0657 -0.1171 -0.0114
27322W        W43456   4.153   0.821   4.371 -0.1863  0.0247  0.0936
27323W        W43457   5.484   6.395  13.501 -0.0081  0.0481 -0.0626
27324W        W43458   4.141  10.854   4.195 -0.2083 -0.1202  0.0969
27325W        W43459   8.031   2.946   6.091 -0.1557  0.0198 -0.0623
27326W        W43460   7.811   2.650  15.899  0.1772  0.2356 -0.1072
27327W        W43461   3.858  17.798   3.764  0.1106  0.0309 -0.0926
27328W        W43462  17.560   2.440   1.555 -0.0405 -0.0500 -0.1203
27329W        W43463   1.182   1.830  16.493 -0.2613 -0.5463  0.4391
27330W        W43464   8.920  11.911  13.523  0.2279 -0.0341 -0.0853
27331W        W43465  11.340  10.589  11.478  0.1396 -0.0137  0.1893
27332W        W43466   0.978   6.977   2.267  0.1978 -0.2046 -0.0145
27333W        W43467   6.088   8.412  12.609  0.1975  0.0256 -0.3424
27334W        W43468  14.430  11.824   0.389  0.1342 -0.5215  0.2275
27335W        W43469  17.052  13.820  13.053 -0.1676  0.0288  0.0382
27336W        W43470  11.725   6.396   2.784 -0.1133  0.1072 -0.1372
27337W        W43471   4.118   8.052  15.558 -0.2024 -0.2956 -0.2041
27338W        W43472  16.224  12.044  16.238  0.3339 -0.0476  0.1934
27339W        W43473   3.679   1.389  15.563  0.1746 -0.1522  0.0397
27340W        W43474   2.588  15.890  14.909  0.3207  0.0426  0.1134
27341W        W43475  13.789   0.722   5.268  0.0005 -0.2931  0.2538
27342W        W43476  16.263  10.161  11.476  0.0515  0.2358 -0.1064
27343W        W43477   4.738  12.500   5.341  0.1724 -0.3023  0.1912
27344W        W43478  13.341   2.038   1.495  0.0322 -0.2204  0.0048
27345W        W43479   1.574  10.584   5.525  0.0903 -0.0068 -0.0661
27346W        W43480  17.129  17.039  13.141 -0.2793  0.1080  0.4332
27347W        W43481  16.898   9.488  10.552  0.0313  0.0490 -0.0066
27348W        W43482   1.093   7.008  15.635  0.3370 -0.1012  0.1814
27349W        W43483  18.054  13.385  14.509 -0.3553  0.2124 -0.0055
27350W        W43484  17.358  12.796  14.382  0.1806  0.1966 -0.0094
27351W        W43485   0.275   0.108   4.542  0.1484  0.2190 -0.0605
27352W        W43486   4.402  14.006   0.807  0.1296 -0.0114 -0.0825
27353W        W43487   9.384  12.841  12.516 -0.0230  0.1585 -0.1447
27354W        W43488   8.636  13.930  14.232  0.0184  0.2935 -0.0462
27355W        W43489   4.496   8.251   1.036 -0.1027 -0.1011  0.0465
27356W        W43490  17.096   4.651  16.187 -0.0120  0.0433 -0.1213
27357W        W43491  15.447   0.144   2.388 -0.0215  0.2599  0.0429
27358W        W43492  10.705  11.650  13.500 -0.1571  0.0858  0.1000
27359W        W43493   9.034   7.842  10.030 -0.2397  0.0488 -0.1087
27360W        W43494   1.368   6.382  16.514  0.2274  0.2113 -0.1334
27361W        W43495  18.061   7.267   0.453 -0.0695  0.2812 -0.0939
27362W        W43496  17.230  13.350   2.060  0.0568 -0.0399  0.0272
27363W        W43497  15.053   3.144   4.430  0.0065  0.1250  0.1837
27364W        W43498  17.088   2.742   5.429  0.1778 -0.1728 -0.2987
27365W        W43499   5.653   1.980   0.201 -0.0271 -0.1467 -0.2245
27366W        W43500  17.154   0.308   1.164  0.2310 -0.1063  0.0329
27367W        W43501  12.295   7.653   5.883 -0.0762  0.2304 -0.1642
27368W        W43502  12.637  16.613  15.874 -0.4141 -0.3480 -0.1708
27369W        W43503   2.626  14.716  15.610 -0.1314  0.2627  0.0017
27370W        W43504   5.998  13.340   0.548  0.1973  0.0796  0.2319
27371W        W43505   2.157   5.146   5.116  0.0089  0.1215  0.1174
27372W        W43506   4.805  12.312  12.138  0.0490  0.0935  0.1860
27373W        W43507  16.998   6.824   1.033  0.0668 -0.3665 -0.1598
27374W        W43508   9.153  12.460   4.088  0.3515  0.0858  0.1851
27375W        W43509  10.849  13.826   5.633 -0.0712  0.3627  0.5490
27376W        W43510  11.774   0.510   1.888 -0.2153 -0.4017  0.1341
27377W        W43511  10.804  13.490   5.086 -0.1348  0.2531 -0.2646
27378W        W43512   0.433  15.213   5.088 -0.2425  0.3131 -0.1508
27379W        W43513  11.248   0.171   4.672  0.2293 -0.1039  0.1048
27380W        W43514   8.532   9.283   2.104 -0.1965  0.0512  0.0248
27381W        W43515   9.989  12.994   4.296  0.0417  0.1566  0.1510
27382W        W43516  11.989  17.244  11.876  0.1633 -0.0859 -0.1180
27383W        W43517  16.141   3.118  16.386 -0.0657 -0.0745  0.0761
27384W        W43518  10.988   1.950   4.923  0.0515  0.4137  0.4899
27385W        W43519   4.467   2.169  16.481  0.1352 -0.0292 -0.1000
27386W        W43520   7.264  14.963  14.032  0.0738  0.2006  0.3788
27387W        W43521  15.770   1.343  12.060  0.0686  0.1924  0.0160
27388W        W43522   8.035  17.011  12.192  0.0365 -0.1183 -0.1158
27389W        W43523   7.890  16.307   4.941 -0.4493  0.1723 -0.1322
27390W        W43524   8.994   0.125   0.857 -0.4678 -0.2250  0.1751
27391W        W43525   4.924  16.756   4.020  0.0987  0.1888  0.0790
27392W        W43526   8.250  12.745  11.624  0.2671 -0.0086 -0.0789
27393W        W43527   2.747   8.369  11.917  0.0588  0.1730  0.0336
27394W        W43528   3.271  12.905  14.107  0.1146  0.4904  0.3006
27395W        W43529  10.724  17.751   4.586 -0.0440 -0.1804  0.0790
27396W        W43530   7.634  17.456  14.280 -0.4064 -0.2793  0.0410
27397W        W43531   2.420  14.904   2.472 -0.1924 -0.3479 -0.0694
27398W        W43532   2.812   1.236   1.499 -0.0895  0.2531  0.0066
27399W        W43533  13.912  12.823  14.732  0.1215  0.1064  0.0466
27400W        W43534   8.479   1.435  14.526 -0.0075  0.0649  0.0791
27401W        W43535   4.412   9.171   5.456 -0.1863 -0.2976 -0.2694
27402W        W43536  14.862   4.061   0.856  0.0040 -0.2046  0.2049
27403W        W43537   4.656  12.187   3.745 -0.0716  0.2063 -0.0390
27404W        W43538  15.211   8.041   3.430  0.2050  0.3098 -0.4199
27405W        W43539  10.783  13.392   2.674  0.0421  0.1474 -0.1212
27406W        W43540   6.854  16.490   3.713 -0.0062 -0.1080  0.3163
27407W        W43541  13.089   7.503  11.165  0.1678 -0.0952  0.0315
27408W        W43542   6.009   1.386  15.945  0.1486  0.1469  0.0153
27409W        W43543   2.992   4.700  15.103 -0.1119  0.0739  0.1017
27410W        W43544  14.575   7.383  11.600 -0.0956  0.3666  0.2794
27411W        W43545   1.870   8.232   3.743 -0.4650 -0.0474  0.0141
27412W        W43546  11.354   6.722  12.202  0.0966 -0.1075  0.1218
27413W        W43547   3.689  12.107  12.784  0.3707 -0.1059 -0.1018
27414W        W43548   3.963  17.617   5.142  0.0562 -0.1072  0.4972
27415W        W43549   7.938   7.109   1.306 -0.3262 -0.3632  0.1075
27416W        W43550   3.445   1.562   0.571  0.3006  0.0205 -0.1743
27417W        W43551  11.165   9.338   4.794 -0.2417  0.1881  0.0698
27418W        W43552   4.730  12.732  12.498  0.0509 -0.3432  0.0152
27419W        W43553  16.812  12.037   4.649  0.2063 -0.1555 -0.0081
27420W        W43554   9.380   3.296   3.389 -0.0693 -0.1300 -0.1276
27421W        W43555   8.081  16.829  14.901  0.2520  0.1032  0.0581
27422W        W43556   3.224  13.776  15.090  0.0876  0.1444  0.0772
27423W        W43557  14.192   6.029   3.602  0.0703 -0.1499 -0.0696
27424W        W43558   5.663  17.112   2.419 -0.2656 -0.1916 -0.0349
27425W        W43559  17.017   8.573  15.533 -0.0421 -0.3088 -0.1314
27426W        W43560   9.043   2.731   4.633  0.0455 -0.3014 -0.0913
27427W        W43561  15.902   9.614   1.066  0.2791 -0.1310 -0.3035
27428W        W43562  14.366   3.304  15.037  0.1075 -0.0829  0.0067
27429W        W43563   6.280   1.430  15.219  0.1703 -0.0135  0.3829
27430W        W43564  17.258  16.912  11.705  0.4266 -0.1495 -0.0305
27431W        W43565   7.460   4.494   1.811 -0.1880  0.1501 -0.0149
27432W        W43566   4.724   5.699  11.613 -0.3034 -0.0470 -0.4713
27433W        W43567  12.778   9.615  12.461  0.1320  0.2146  0.1094
27434W        W43568   0.803  10.182   1.198 -0.0020 -0.0275 -0.2208
27435W        W43569   9.729   1.680  15.803 -0.0640  0.0053 -0.0884
27436W        W43570   3.234   2.748   5.312 -0.3330  0.0296 -0.1404
27437W        W43571  13.418   4.832  16.404  0.0869 -0.0404 -0.0420
27438W        W43572   9.362   1.590  12.217  0.1279  0.2538 -0.3937
27439W        W43573  10.838   5.437   6.035  0.0373 -0.2439 -0.0273
27440W        W43574  13.917  14.992   5.206  0.3026 -0.0348  0.2639
27441W        W43575  15.868  10.488  13.861  0.1456  0.1026  0.0209
27442W        W43576   0.251  11.617   3.024  0.0178  0.1247 -0.1338
27443W        W43577   4.913   9.705  14.081 -0.1171 -0.0995  0.1838
27444W        W43578  17.123   7.461   4.419  0.1056  0.0079  0.0825
27445W        W43579  17.567   0.198  11.658  0.1928 -0.2225 -0.2388
27446W        W43580   4.591   4.619   4.187 -0.0986 -0.4112  0.0195
27447W        W43581   9.649  17.297  11.739 -0.2489  0.2972 -0.0834
27448W        W43582  11.807   0.094   0.514 -0.2336  0.0842  0.1451
27449W        W43583  14.338  14.174   2.127  0.1111 -0.0437 -0.0391
27450W        W43584   5.562  14.120  14.924 -0.2577 -0.1440 -0.4872
27451W        W43585  11.016  11.518   4.093 -0.1357  0.1773 -0.1576
27452W        W43586   8.299  13.358  15.218 -0.1959  0.2538 -0.1991
27453W        W43587   5.104  13.465   2.560  0.0353 -0.0205  0.2132
27454W        W43588  17.275   1.905   0.424 -0.1806 -0.1651  0.0801
27455W        W43589   1.497   9.169  10.651 -0.2180  0.1117  0.2845
27456W        W43590  11.170  11.883   1.920 -0.1341 -0.5101 -0.1384
27457W        W43591   6.989  14.833  13.129 -0.1881  0.0787 -0.2591
27458W        W43592   0.545  10.323  14.788 -0.5659  0.0764  0.1118
27459W        W43593  10.461   4.809   0.906 -0.3117 -0.1921 -0.1844
27460W        W43594   8.899  13.590   1.804 -0.0049 -0.1567  0.2611
27461W        W43595   9.187   9.322  13.476  0.0792 -0.0862 -0.4952
27462W        W43596  16.868   8.813  14.150 -0.2398 -0.0264 -0.2064
27463W        W43597   3.739  17.526   1.085  0.1388 -0.0428  0.3269
27464W        W43598  12.360   8.486  13.265 -0.0073  0.2025 -0.1865
27465W        W43599  12.153  17.495   3.150 -0.2909  0.0468  0.3269
27466W        W43600   0.547  15.175  12.045 -0.2098 -0.0417  0.2423
27467W        W43601   5.447  15.572  12.909  0.4465  0.0754 -0.0479
27468W        W43602  14.246   8.360   3.553 -0.1016 -0.0482  0.3835
27469W        W43603  13.274   4.708   3.559  0.2762  0.2783 -0.2997
27470W        W43604   4.286  17.485  13.307 -0.0597  0.1391  0.1532
27471W        W43605  10.145  11.655  15.576  0.1748  0.1588 -0.0220
27472W        W43606  17.531   0.191  12.543 -0.1133  0.1948  0.2576
27473W        W43607   3.140  10.715  13.438 -0.1107 -0.1632  0.0372
27474W        W43608   2.842   1.434  14.422 -0.4203 -0.0192  0.2098
27475W        W43609  18.048  17.548   3.673  0.0100 -0.0035 -0.0878
27476W        W43610  11.026   1.214   4.515  0.4456 -0.0469 -0.0077
27477W        W43611   2.190   8.756  10.758 -0.0811  0.4262 -0.0073
27478W        W43612   6.180   6.818  11.250 -0.2061 -0.1996 -0.0104
27479W        W43613   5.030   1.968   5.393 -0.1303 -0.1388 -0.0437
27480W        W43614  15.309   3.906  13.177 -0.1875  0.3592  0.0422
27481W        W43615   1.928   1.136  14.481  0.1453  0.3066 -0.1905
27482W        W43616  11.194  14.355  13.718 -0.0641  0.0447  0.1404
27483W        W43617   8.426  11.027  14.269  0.2067  0.1145  0.0835
27484W        W43618  14.105  12.714  16.452  0.0014  0.1455  0.2678
27485W        W43619   3.793  15.239  11.740 -0.0390  0.0533  0.0225
27486W        W43620   7.658   8.602  15.878 -0.0070  0.0465  0.0887
27487W        W43621  10.866   9.274  16.464  0.0552 -0.1420  0.1111
27488W        W43622   5.299  16.119   0.310 -0.1901  0.0920  0.0119
27489W        W43623   2.883   6.988   1.381  0.0109 -0.0566 -0.0356
27490W        W43624  13.826  12.304   5.765  0.1772  0.0976  0.1354
27491W        W43625   3.182   1.008  14.607 -0.0196  0.2381 -0.3463
27492W        W43626   6.523  14.456  11.970  0.4286 -0.0033 -0.0123
27493W        W43627   6.104   7.486  12.438  0.0404 -0.3400  0.1278
27494W        W43628  15.668  16.648  14.423 -0.0774 -0.1653  0.0785
27495W        W43629   3.886   1.366  12.726 -0.1118 -0.0914  0.1118
27496W        W43630   2.453   7.618   3.817  0.0218  0.0161  0.1149
27497W        W43631   8.537   7.021  11.886 -0.2677  0.0939  0.3405
27498W        W43632  16.869   7.648   1.429 -0.0148 -0.1906 -0.2253
27499W        W43633  16.290  11.299  12.242 -0.0871 -0.0367  0.2508
27500W        W43634   0.836   9.153   2.222  0.0613 -0.0453 -0.5392
27501W        W43635   8.572  11.215   1.540  0.0135  0.2723 -0.4318
27502W        W43636   9.020  16.894  12.662  0.0619  0.0554  0.3826
27503W        W43637   3.611   8.527   2.154  0.0031 -0.0991 -0.0194
27504W        W43638  17.029   6.557   2.005 -0.0724  0.0983  0.1063
27505W        W43639   1.382  16.124   3.377 -0.0838 -0.0389 -0.2286
27506W        W43640   9.255   9.007  11.346  0.0175 -0.1536  0.3667
27507W        W43641   2.191  15.425  13.531  0.0762  0.0792  0.1102
27508W        W43642  11.002   8.730   1.749 -0.2680 -0.5884 -0.0680
27509W        W43643   1.204   0.787   4.216  0.2465  0.1198 -0.1214
27510W        W43644   7.965   1.825   3.532  0.0306 -0.3852  0.1517
27511W        W43645   4.655   2.751  15.444 -0.1209  0.1099  0.1286
27512W        W43646  16.809   4.385  12.920  0.0229  0.1419 -0.0735
27513W        W43647  13.598   5.183  12.158 -0.0096 -0.0949  0.3062
27514W        W43648   6.017   9.868  14.014 -0.3297  0.3819 -0.3003
27515W        W43649  11.611   9.462  13.175  0.1644  0.0364  0.4171
27516W        W43650   5.666  11.644  14.559  0.1908  0.0606 -0.0666
27517W        W43651  11.207   6.612   5.255 -0.0770 -0.0984 -0.2020
27518W        W43652   8.304   5.275   3.975  0.0820  0.0424 -0.0208
27519W        W43653   9.764   4.929  16.520  0.2262 -0.2559 -0.3220
27520W        W43654   5.218   1.920  12.880  0.0247  0.4975 -0.2124
27521W        W43655   4.916  14.978  13.933  0.4216  0.1970  0.0952
27522W        W43656   1.298   9.786  14.832 -0.1329  0.1475  0.1280
27523W        W43657  13.826  15.801   5.324 -0.2312  0.0577 -0.0165
27524W        W43658  13.240  14.888   6.005  0.1352 -0.0526 -0.0779
27525W        W43659   7.795   6.558  12.530 -0.0809  0.2628 -0.3795
27526W        W43660   2.004  10.118  12.354  0.3150 -0.0858  0.1587
27527W        W43661   5.909  14.684   1.305 -0.2035  0.0911  0.0674
27528W        W43662  12.015   5.293  11.302  0.1134 -0.0889 -0.2376
27529W        W43663   3.412   1.356  16.117  0.1243 -0.0872  0.0227
27530W        W43664   7.183   2.447  15.339  0.0606  0.0549 -0.2738
27531W        W43665  16.350  14.803  16.145 -0.0505 -0.0205 -0.3704
27532W        W43666  12.371   5.564   3.536 -0.0214  0.0986  0.0258
27533W        W43667  17.114  10.888  12.659 -0.1124 -0.2897  0.0019
27534W        W43668   4.737  13.178   1.227  0.0086 -0.0290 -0.2910
27535W        W43669   4.443  14.121  14.991  0.0494 -0.0644  0.0100
27536W        W43670  14.061  16.863   1.603  0.1012  0.0211  0.3671
27537W        W43671   0.091  12.992   6.569 -0.0072  0.2143  0.0349
27538W        W43672  17.595   7.946   2.933  0.3317 -0.4109 -0.1057
27539W        W43673   0.438   2.873   3.706 -0.0867 -0.1210  0.5666
27540W        W43674   3.265  17.778  16.450 -0.2330 -0.0944  0.0439
27541W        W43675  12.268  10.999   4.127 -0.1452 -0.1184  0.2785
27542W        W43676   4.340  14.078   3.356 -0.2964  0.2042  0.1159
27543W        W43677   0.091   0.534  13.247  0.2085 -0.0394 -0.2297
27544W        W43678  11.462  10.998  15.551 -0.0998 -0.0014 -0.3744
27545W        W43679   4.410  12.582  16.081  0.0459  0.0913 -0.0956
27546W        W43680   2.157  17.935   3.197 -0.1747 -0.1975 -0.0711
27547W        W43681   3.072   0.496   5.389  0.1036 -0.1698 -0.0792
27548W        W43682  13.174   3.066   5.527  0.0906 -0.1337  0.0894
27549W        W43683  15.870   2.068   4.774 -0.0087 -0.0987  0.0599
27550W        W43684   5.757   8.045  12.434  0.4273  0.0804  0.1153
27551W        W43685  16.059  10.357   2.026  0.0985  0.0751  0.0668
27552W        W43686  16.685  17.119  16.160  0.0456  0.0648 -0.2292
27553W        W43687  15.564   0.571  15.875  0.2009  0.0583  0.3069
27554W        W43688   3.712  17.784  12.494 -0.0403 -0.0046 -0.2348
27555W        W43689   7.531   0.595   4.621 -0.0096 -0.1073 -0.3545
27556W        W43690  14.346  11.190  13.440  0.1010  0.2042  0.1024
27557W        W43691  11.721  12.213  15.230  0.2628 -0.0780 -0.2587
27558W        W43692  11.377  12.408   4.966 -0.1756  0.0647 -0.1385
27559W        W43693   7.562  16.396   0.038 -0.2089  0.2203  0.1466
27560W        W43694  13.119   6.175  13.430 -0.0600  0.1231 -0.2115
27561W        W43695  17.078  14.936  15.033 -0.0042  0.0783 -0.2923
27562W        W43696   3.595   1.687   2.949  0.2966 -0.0832  0.0012
27563W        W43697  16.356   9.853   3.939 -0.0654 -0.0222  0.2406
27564W        W43698   0.505   2.755  12.834  0.0139  0.0456 -0.0418
27565W        W43699   1.169   8.122   5.096 -0.0252 -0.0022 -0.1316
27566W        W43700  16.903   5.185  16.099  0.0796 -0.0096  0.0433
27567W        W43701  10.583  14.455  15.854 -0.4352 -0.2102 -0.0703
27568W        W43702  13.955   0.383  13.054  0.2286 -0.0360 -0.0316
27569W        W43703   5.296   8.191  13.461 -0.2020 -0.1670  0.0213
27570W        W43704   7.007  14.508   1.406  0.1078  0.1203  0.0400
27571W        W43705   5.599   0.817   3.471  0.2377  0.0453 -0.2122
27572W        W43706  10.046   9.273   1.178  0.0448 -0.2470 -0.0944
27573W        W43707   1.647  17.972  13.262  0.2289  0.0889  0.0391
27574W        W43708   7.259   2.083  14.154  0.1687  0.1321 -0.0131
27575W        W43709  11.690   4.675  16.402 -0.2616 -0.0200  0.0168
27576W        W43710   7.333  16.286  12.361  0.1098  0.1645  0.0406
27577W        W43711  13.302   7.403   2.906 -0.0623  0.1793  0.1591
27578W        W43712  14.932   9.848  15.436 -0.0187  0.1798  0.1280
27579W        W43713  12.019  10.551   4.828  0.0064  0.1058  0.1014
27580W        W43714  12.839   4.863  15.595 -0.3367  0.3819  0.4075
27581W        W43715   9.543  14.600  15.564  0.0312  0.0355 -0.0968
27582W        W43716   3.048   2.035  13.353  0.2301  0.2353  0.1456
27583W        W43717   3.284  11.241  12.983 -0.3006 -0.1992  0.1228
27584W        W43718  16.735   0.431   5.275  0.0982 -0.3855  0.0059
27585W        W43719   8.594   6.154   1.353  0.1786  0.0396  0.0263
27586W        W43720   6.536  11.948  13.071  0.0985 -0.1260  0.0357
27587W        W43721   9.787  12.423  11.868  0.2523 -0.0537  0.0523
27588W        W43722  15.380  12.651  13.707 -0.0477  0.0366 -0.0080
27589W        W43723  13.095   8.782   0.329  0.0988 -0.0342 -0.2515
27590W        W43724  11.982  13.873   4.059 -0.0247  0.1109  0.3051
27591W        W43725  12.845   3.884   0.774  0.0740  0.0286  0.0449
27592W        W43726   7.611   4.906   0.406 -0.3342 -0.2545  0.0934
27593W        W43727   7.662   1.834  15.628 -0.2223  0.1385  0.3569
27594W        W43728   1.405   6.768   2.947  0.0663 -0.0013 -0.0751
27595W        W43729  11.083   4.553  14.353  0.0533 -0.1610  0.0269
27596W        W43730   9.924   8.871  11.985 -0.0878 -0.2015  0.1720
27597W        W43731  17.195  11.117  13.664 -0.0367 -0.0252 -0.0521
27598W        W43732  13.304   2.445  13.578  0.2888 -0.1386  0.1586
27599W        W43733  15.158   8.529  11.140 -0.0355  0.2423  0.2530
27600W        W43734  16.206  12.013  15.716  0.0545 -0.2410 -0.2222
27601W        W43735  10.446  15.010  14.484  0.2516  0.0179  0.0226
27602W        W43736   5.955   4.420   0.443 -0.0334  0.3955  0.4375
27603W        W43737   6.160   4.255   2.121 -0.0809 -0.1347  0.0840
27604W        W43738  13.293  12.506   0.376 -0.3793  0.0592  0.2502
27605W        W43739   0.302  16.016   0.539 -0.2269 -0.2880  0.0448
27606W        W43740   6.890  11.252  14.872 -0.6117 -0.0401 -0.0663
27607W        W43741   8.009  13.438   2.880  0.1036 -0.1331  0.2141
27608W        W43742   9.652   9.147  11.021  0.1912  0.0585  0.0016
27609W        W43743  17.150  11.168   1.588  0.1146 -0.1872  0.2368
27610W        W43744   5.019   6.651   4.055  0.1565 -0.0566  0.2716
27611W        W43745  17.751  10.520   1.144  0.0949  0.2797  0.1951
27612W        W43746   3.075   9.002   5.485  0.0700  0.0759 -0.1202
27613W        W43747  12.426  15.179  13.771  0.1963  0.2048 -0.1129
27614W        W43748   7.569  16.371   2.207 -0.1473 -0.0687 -0.1947
27615W        W43749   8.866   8.962   3.123 -0.2976  0.1828  0.1273
27616W        W43750   2.097   4.943  11.595  0.6009 -0.1503  0.2032
27617W        W43751   6.254   2.644  13.677  0.3255 -0.0790 -0.0322
27618W        W43752  13.044   3.592   1.127  0.0197 -0.0422 -0.1252
27619W        W43753   1.204   3.785  12.914  0.1945 -0.0913 -0.1549
27620W        W43754  13.696  14.968  14.583 -0.2380 -0.1309 -0.0624
27621W        W43755   1.042   2.169   1.345 -0.1190  0.3359  0.1854
27622W        W43756  15.399  16.582   0.309 -0.0723 -0.1262 -0.1258
27623W        W43757  14.334   3.338  12.628  0.0960 -0.0521 -0.2483
27624W        W43758   7.498   6.983   3.676 -0.0079 -0.1168 -0.3286
27625W        W43759  11.796   1.562  15.982 -0.1914 -0.0877 -0.2275
27626W        W43760   1.017   9.348  13.846 -0.2019  0.0960  0.2950
27627W        W43761  14.291   4.802  12.816  0.1717  0.2473 -0.0176
27628W        W43762   7.821  13.838   1.178  0.0221 -0.0029  0.0684
27629W        W43763  13.464   0.464  12.912 -0.1191 -0.0657  0.0953
27630W        W43764  10.817  15.083   4.892 -0.1600  0.0988 -0.0520
27631W        W43765  13.320   8.411  13.967 -0.4524 -0.3010  0.3968
27632W        W43766  14.198   4.194   0.352  0.0678 -0.1576 -0.0182
27633W        W43767   6.848  11.682   2.411  0.0653 -0.1668  0.3377
27634W        W43768  13.439   3.194   0.122  0.0420 -0.1995  0.2505
27635W        W43769  16.381  16.992  15.710  0.0749  0.1488  0.0004
27636W        W43770  14.905   0.800  16.387  0.0874  0.0293  0.0127
27637W        W43771  14.318   0.889  15.328 -0.1202  0.1962  0.0225
27638W        W43772  11.683  10.693   1.294  0.0775 -0.1928 -0.1960
27639W        W43773  17.404  13.060  12.482  0.4540 -0.0997  0.0054
27640W        W43774   2.955   2.968   6.249 -0.0463 -0.2839 -0.1354
27641W        W43775  11.916  12.804   2.187  0.2061  0.1588 -0.0547
27642W        W43776   2.558  15.397   2.295 -0.1035 -0.0151  0.3527
27643W        W43777  13.947   4.857   3.042 -0.0798 -0.1474  0.0148
27644W        W43778   4.688   7.474   3.956  0.0596 -0.3209 -0.1772
27645W        W43779   5.185  10.371  14.110  0.0740 -0.1912  0.1452
27646W        W43780   9.763   6.491   1.061  0.3814 -0.1319 -0.2257
27647W        W43781  13.087   7.881  14.722 -0.0801 -0.0831 -0.0819
27648W        W43782  13.549  16.995  15.650  0.1609  0.0571  0.2845
27649W        W43783  15.490   5.116  15.877  0.0753 -0.1352 -0.0070
27650W        W43784  11.037   7.352  10.578  0.1893 -0.0016  0.1658
27651W        W43785  13.481   0.237   1.005  0.0333 -0.0848 -0.1342
27652W        W43786   2.716  13.852  11.771 -0.0716 -0.2165 -0.0607
27653W        W43787  12.245  15.996  16.484 -0.1385 -0.3075 -0.2222
27654W        W43788   5.298   3.690  15.986  0.0721  0.0260 -0.2094
27655W        W43789   1.794  12.280  11.316 -0.0657 -0.0520 -0.1219
27656W        W43790   2.422  12.757  14.262 -0.0721 -0.1840  0.1314
27657W        W43791   7.410  17.495   4.545  0.1488  0.0917 -0.0540
27658W        W43792  15.518  11.346  14.937  0.1681  0.4271  0.0776
27659W        W43793   9.727   0.862   3.393 -0.1049 -0.1283 -0.1056
27660W        W43794   8.281  17.573  14.273  0.0438  0.0069 -0.2574
27661W        W43795   2.181   5.067  15.844  0.1066  0.0185  0.2546
27662W        W43796  16.615   1.131   0.742 -0.1191 -0.2317  0.0898
27663W        W43797   6.320   9.468  12.132  0.2221  0.3502 -0.0080
27664W        W43798  15.847   5.942   4.525 -0.2959 -0.2532 -0.1622
27665W        W43799  16.175  12.177  12.456  0.4339 -0.2640  0.0075
27666W        W43800  16.905  11.402  14.384 -0.1858  0.1191 -0.2290
27667W        W43801  15.246   3.596  11.525 -0.0306  0.1232  0.1524
27668W        W43802  17.370   4.912   2.003 -0.3374  0.3469 -0.0982
27669W        W43803  14.927  17.442   5.621 -0.0644  0.1361 -0.0899
27670W        W43804   4.151   3.990   3.695 -0.2939 -0.0861 -0.0438
27671W        W43805   8.451   5.673   0.128  0.0081  0.0686  0.0483
27672W        W43806   5.251   0.726  11.665 -0.2676  0.1506 -0.1317
27673W        W43807  14.950  18.098  15.400  0.1332  0.0974  0.3578
27674W        W43808   6.635  10.142   1.694  0.1007 -0.0835 -0.0311
27675W        W43809   8.319  14.997   4.612  0.0086  0.0286 -0.0062
27676W        W43810  16.061  12.030  14.038  0.1619  0.0264 -0.1155
27677W        W43811   6.973   5.897   1.701  0.2288 -0.0334  0.1340
27678W        W43812   2.641   4.896  13.882  0.0686  0.0950 -0.0299
27679W        W43813   9.072  13.529  16.288 -0.2436  0.1781  0.1154
27680W        W43814   7.494  13.201  11.158 -0.1299 -0.2247 -0.2494
27681W        W43815   0.109   1.383   2.246 -0.2570 -0.0928  0.3629
27682W        W43816   8.391   0.228   6.322 -0.2145 -0.0596 -0.1297
27683W        W43817  14.581   5.943   2.600  0.0158  0.2618 -0.2368
27684W        W43818   6.528   4.736   3.817  0.0367 -0.4882 -0.1741
27685W        W43819   4.200  14.945   1.463  0.3926 -0.2078 -0.2407
27686W        W43820  12.803  16.031   2.927  0.0812  0.1870  0.0642
27687W        W43821   6.459  13.268  15.647 -0.1641 -0.1903  0.2401
27688W        W43822  11.370   0.756  14.145 -0.1955 -0.0387  0.1386
27689W        W43823   1.532  17.772  16.379 -0.1074 -0.3288 -0.1661
27690W        W43824   5.093  15.807   2.528  0.0480 -0.2351 -0.0467
27691W        W43825  13.701   0.774  15.296  0.0500 -0.1101 -0.0655
27692W        W43826  16.743  10.227  12.307 -0.0116 -0.3713  0.0178
27693W        W43827   8.926  12.896  16.049  0.0100  0.0853 -0.0504
27694W        W43828  17.735   8.114   5.532 -0.2251  0.1678 -0.1408
27695W        W43829   7.299  11.023   0.250 -0.1962  0.2644 -0.1054
27696W        W43830  13.233   6.467  15.162  0.1222 -0.1691 -0.2080
27697W        W43831   2.948   4.702  14.238 -0.1406  0.2092 -0.3765
27698W        W43832   6.993  15.723  14.274  0.0657  0.1003  0.3156
27699W        W43833   4.838   1.501   4.228 -0.2089  0.1168  0.0859
27700W        W43834   3.241   2.208   0.879 -0.0371 -0.2311 -0.0372
27701W        W43835  14.855  17.511   4.707 -0.1313  0.0038  0.0747
27702W        W43836  13.821  15.092   0.767  0.0025 -0.4579  0.0887
27703W        W43837  11.591   6.642   5.622  0.2636 -0.1393 -0.2525
27704W        W43838  16.633   2.218  12.671 -0.0823  0.2620  0.1253
27705W        W43839   1.688   5.884  14.622  0.0840  0.2498 -0.1755
27706W        W43840  17.222   8.780  11.257 -0.2378  0.5364  0.0903
27707W        W43841   0.832   3.939  15.609 -0.0278 -0.1851 -0.1285
27708W        W43842  10.602   4.588   0.472  0.0255  0.1884 -0.1210
27709W        W43843  17.875  10.160   6.074  0.1286  0.1121  0.0208
27710W        W43844   9.992   9.182  12.442 -0.2615 -0.0349  0.2868
27711W        W43845   1.703   5.062  12.956  0.0914  0.1031  0.0936
27712W        W43846  12.650  17.589   6.463 -0.2455  0.0075 -0.0407
27713W        W43847   4.461   1.375   0.005 -0.2683 -0.0142  0.0737
27714W        W43848   2.925  12.658  16.234 -0.0508  0.0981 -0.1179
27715W        W43849   5.248   9.946  15.755 -0.0454 -0.1733 -0.2524
27716W        W43850  16.317   6.964  12.830  0.1692 -0.1604 -0.1374
27717W        W43851   4.687   6.679   4.897 -0.3081  0.2003  0.1329
27718W        W43852  11.314   8.781   4.735  0.2829  0.2554 -0.1838
27719W        W43853  13.466   7.715  16.044  0.0151 -0.2782  0.3356
27720W        W43854  11.538  16.297   2.623 -0.2434 -0.2490 -0.0806
27721W        W43855  11.250   9.031   0.700 -0.1796 -0.1672  0.1646
27722W        W43856  13.712  16.092   4.911  0.0620 -0.3325 -0.1586
27723W        W43857   9.093   2.184  15.529 -0.0104  0.0434 -0.1579
27724W        W43858  12.087  10.087  16.263  0.4418  0.0204 -0.0727
27725W        W43859  15.637   5.673   0.422 -0.0644  0.0467 -0.1476
27726W        W43860  15.671   7.955   0.120 -0.0882 -0.0588  0.1074
27727W        W43861   1.975   0.128   3.906 -0.1911  0.2125 -0.0359
27728W        W43862  11.975  12.787   2.983 -0.5214 -0.0207  0.0678
27729W        W43863   3.572   6.433  12.035 -0.2067 -0.0076 -0.0857
27730W        W43864   9.562  11.909  15.871  0.1855  0.2327  0.0178
27731W        W43865  17.598  12.989   0.588 -0.0430 -0.0955  0.2595
27732W        W43866  14.500  15.064   0.372  0.1300 -0.1807  0.1744
27733W        W43867  16.566   1.818  14.714  0.2001  0.3608 -0.4186
27734W        W43868  15.958   2.188   0.916  0.0094 -0.1952  0.0540
27735W        W43869  13.682   9.886   1.098  0.4274 -0.0452 -0.2447
27736W        W43870   6.425   1.568  14.202 -0.1163 -0.5434  0.0049
27737W        W43871  17.653  15.384  12.833  0.2542 -0.0949  0.0914
27738W        W43872   8.988  14.907   4.834 -0.1176  0.1410 -0.1191
27739W        W43873   1.725   0.198   5.438 -0.1179 -0.0426 -0.1326
27740W        W43874  17.378  10.355   4.614 -0.0864 -0.0877  0.0699
27741W        W43875   4.635   3.421  14.258 -0.0889  0.2089  0.0058
27742W        W43876   3.132  15.294   1.528 -0.1337 -0.3448  0.2421
27743W        W43877  15.640  16.568   3.727 -0.0567 -0.2704  0.3711
27744W        W43878   1.016   3.505   4.082 -0.1477  0.0038  0.1652
27745W        W43879   1.556   9.679   5.311  0.1779  0.0675 -0.3709
27746W        W43880  13.080  17.716  16.331  0.0766 -0.1104 -0.2005
27747W        W43881   8.460   7.854  12.023  0.1537  0.1170 -0.2297
27748W        W43882  17.588   3.154  14.093  0.1061 -0.0368  0.2923
27749W        W43883   4.631  14.416  14.065  0.1357 -0.2546  0.1354
27750W        W43884   2.815  15.282  14.910 -0.0636  0.1717  0.3979
27751W        W43885  17.357   6.709  12.240 -0.0917  0.4276  0.3014
27752W        W43886   3.793   7.622   0.775 -0.2583 -0.1526  0.3064
27753W        W43887  16.183   0.321   3.109 -0.1784 -0.2252 -0.1662
27754W        W43888  10.663   1.469  13.285  0.1930  0.0512 -0.1589
27755W        W43889   1.923  10.652  14.803  0.0356 -0.1084 -0.0203
27756W        W43890   7.158   7.818   3.501  0.1214  0.0201  0.1976
27757W        W43891   8.661  13.033  12.217 -0.0407  0.0447  0.6087
27758W        W43892  17.002   6.309  15.412 -0.3702  0.0456 -0.0767
27759W        W43893  14.644  14.502   2.929  0.1906  0.1248 -0.2240
27760W        W43894   0.709  14.010   4.681 -0.0323  0.0698  0.0679
27761W        W43895   7.712   2.722   4.863  0.2789  0.2143  0.1190
27762W        W43896   4.971   9.067   0.121  0.1316  0.0102 -0.0651
27763W        W43897  16.981   6.153   1.617  0.0664 -0.0991  0.2270
27764W        W43898  13.697   6.576  16.526 -0.1998  0.0238 -0.1567
27765W        W43899  11.487   1.419  12.556 -0.1438 -0.1887  0.0329
27766W        W43900   1.899  16.228  13.827 -0.2777  0.1204 -0.3566
27767W        W43901   3.651   6.711   2.956  0.1097  0.0820 -0.2129
27768W        W43902  15.750   3.788   1.644 -0.1841  0.2294 -0.2240
27769W        W43903   5.757  15.540   0.908 -0.2726 -0.0957 -0.3416
27770W        W43904  15.097   3.616  14.711  0.0053 -0.0027  0.0279
27771W        W43905   1.988   5.979  14.098 -0.0243  0.0742  0.3262
27772W        W43906   4.960   2.195   4.587  0.0909 -0.1120 -0.0471
27773W        W43907   6.957   8.293   4.173  0.0755 -0.0137  0.3466
27774W        W43908   9.243   6.400  16.445 -0.0655  0.0644  0.0595
27775W        W43909   4.409   6.423  15.858  0.1532 -0.6081 -0.1531
27776W        W43910  12.615   9.797  12.020  0.1137  0.1404 -0.0654
27777W        W43911   5.597  11.694   2.384  0.0338 -0.1791 -0.1219
27778W        W43912  16.804  14.922   0.503 -0.0529  0.3877  0.0063
27779W        W43913  11.916   9.119   4.079 -0.3979 -0.0180 -0.1376
27780W        W43914   9.881   1.851   5.646  0.0420  0.1655  0.1807
27781W        W43915   4.775   0.253   1.636 -0.4057  0.0576 -0.1820
27782W        W43916   4.444  13.860  13.129 -0.0119 -0.1625 -0.1290
27783W        W43917  17.283   8.672  12.750  0.3548 -0.0157 -0.0871
27784W        W43918  15.834  16.701  16.509  0.0818  0.0138  0.0917
27785W        W43919   1.914   6.257   3.727  0.1155  0.3156  0.0164
27786W        W43920  10.550  10.175   4.173 -0.0201  0.1226 -0.0246
27787W        W43921   3.123  11.207  13.434 -0.0143 -0.0136 -0.0392
27788W        W43922   1.999   4.257   0.008  0.5472  0.2377 -0.1247
27789W        W43923  11.497   8.105   2.694 -0.3134  0.1427 -0.5526
27790W        W43924  10.072   5.765   5.706 -0.2142 -0.2627  0.0677
27791W        W43925  11.081   1.946   0.916  0.0355 -0.3076  0.2621
27792W        W43926   2.017  11.705   0.855  0.0756  0.1094  0.1858
27793W        W43927  11.496   7.137   4.427  0.0496 -0.2914 -0.4318
27794W        W43928   8.057  14.913  11.407 -0.3501  0.0403  0.0143
27795W        W43929   7.326   4.356  11.439 -0.0472  0.2121 -0.1988
27796W        W43930   8.819  17.345  10.688 -0.4316  0.0651 -0.0032
27797W        W43931  10.707  12.429   5.088 -0.3380 -0.2257 -0.1964
27798W        W43932  14.586   3.199  12.129 -0.1295 -0.0384 -0.2402
27799W        W43933   5.968  16.389  12.664  0.1630 -0.0062  0.0676
27800W        W43934  14.473   7.202   4.232  0.0505 -0.2733  0.2306
27801W        W43935  10.625   5.710  11.621 -0.1370 -0.2253 -0.0426
27802W        W43936   7.343   4.270  15.815  0.1389 -0.0971  0.0040
27803W        W43937   2.791   0.821   3.646 -0.1362 -0.0544 -0.1320
27804W        W43938   5.195   7.611   1.936  0.3010 -0.1636 -0.2787
27805W        W43939   6.403  10.969  15.956  0.0610  0.1496 -0.2062
27806W        W43940   2.160  13.142   0.658 -0.2438  0.0178 -0.2173
27807W        W43941   3.504   4.112   0.834 -0.1099  0.0312 -0.1032
27808W        W43942   8.106  14.876  14.716  0.5176  0.1560  0.0634
27809W        W43943   7.322   9.984   0.985  0.0938 -0.1904  0.2862
27810W        W43944  11.721  17.771  13.052 -0.3005 -0.0198  0.0727
27811W        W43945  11.157   7.798  13.857 -0.3700  0.2916  0.1682
27812W        W43946  14.887  14.601  15.622 -0.1377  0.0672 -0.2511
27813W        W43947   4.050   3.957  11.734 -0.1710  0.0938 -0.4740
27814W        W43948   2.816   6.189   4.603 -0.0468  0.0833  0.0184
27815W        W43949   9.836  11.976  13.742 -0.0621 -0.1797 -0.2694
27816W        W43950   4.469  15.710  16.087 -0.0438  0.2834 -0.1639
27817W        W43951  17.202   4.542   5.711  0.2293  0.2147 -0.1618
27818W        W43952  10.160  15.937  15.861 -0.1105  0.3278 -0.1483
27819W        W43953  10.327  15.098   4.841  0.3123  0.1843 -0.0919
27820W        W43954   3.096   5.223   2.089  0.0515 -0.0306  0.0321
27821W        W43955  14.270  16.740  11.867  0.1277 -0.0485  0.0390
27822W        W43956   6.066   7.021  16.503  0.2276  0.1289  0.3362
27823W        W43957   8.930  12.860   0.874  0.0099 -0.1351  0.0146
27824W        W43958   6.083   4.602   3.911  0.0335 -0.3509  0.2059
27825W        W43959  10.394  11.531   1.148  0.2254 -0.1664  0.0036
27826W        W43960  16.996   8.057   2.404  0.2412 -0.4048  0.3987
27827W        W43961   1.767  13.616  11.561  0.0908 -0.3120 -0.3164
27828W        W43962   7.777   3.457  16.515  0.0583 -0.2257 -0.1212
27829W        W43963  13.564  12.029  14.910 -0.3701 -0.2110 -0.0538
27830W        W43964  17.393   4.097   4.475 -0.0236  0.0055  0.0295
27831W        W43965   4.816   9.243  13.103  0.0429  0.0755  0.0603
27832W        W43966   9.404   2.657   5.603  0.2003 -0.0453  0.2637
27833W        W43967   4.914  15.761   0.547  0.1695  0.1622  0.0256
27834W        W43968   4.387   6.786  12.494  0.2602  0.1886  0.0208
27835W        W43969   4.389   8.205   0.328  0.0394 -0.0619  0.1107
27836W        W43970   1.746   5.520  11.991 -0.1703  0.1160 -0.3114
27837W        W43971   5.439   6.555  10.902  0.1006  0.2296  0.0581
27838W        W43972  15.782   3.280  14.926 -0.1355  0.4724 -0.4012
27839W        W43973  14.898  15.958   2.736  0.0012  0.0740  0.0471
27840W        W43974  17.273   5.627  14.060 -0.1596  0.1639  0.1021
27841W        W43975  14.763  11.541  12.167 -0.0021  0.0681  0.0318
27842W        W43976  14.757  14.955   1.542  0.0132 -0.2196  0.2916
27843W        W43977  11.435  17.039   0.930  0.1550 -0.1286 -0.2359
27844W        W43978   6.161  12.113  12.762  0.1205  0.0079 -0.4555
27845W        W43979  11.977  18.153  12.263  0.2306 -0.1012 -0.0693
27846W        W43980   3.735   6.962   3.833  0.0065 -0.1435  0.0629
27847W        W43981   5.737   9.597   2.690  0.3458 -0.0161  0.3019
27848W        W43982  12.494   8.102  11.085 -0.1305  0.2759 -0.1919
27849W        W43983  10.854   5.584   2.312  0.1350  0.1118  0.1795
27850W        W43984  10.591  10.651  15.983 -0.2784  0.0406  0.0310
27851W        W43985  16.018  10.185  15.059 -0.1269  0.0116  0.0874
27852W        W43986   5.565  13.878   1.063  0.1257  0.1687  0.0680
27853W        W43987   7.076   0.136  14.318 -0.3520 -0.0549 -0.0273
27854W        W43988   7.736   8.612  12.001  0.1638  0.0806 -0.1006
27855W        W43989   4.755  16.830  13.532 -0.6358  0.2323 -0.0650
27856W        W43990  14.976   7.061  12.766 -0.0019  0.0396 -0.0303
27857W        W43991  11.600  10.686  15.156  0.0744 -0.0412  0.2249
27858W        W43992   9.626   9.138  13.813  0.2328  0.1364  0.1989
27859W        W43993   2.322  10.920   1.973 -0.1072  0.3194 -0.0435
27860W        W43994   1.791  10.537   0.152  0.2576 -0.0881 -0.0980
27861W        W43995  18.169  12.162   5.306  0.0927 -0.0426  0.3686
27862W        W43996   0.999   0.279   2.476 -0.3887 -0.1098  0.0676
27863W        W43997   4.185   4.647   2.886 -0.1493 -0.2098 -0.1500
27864W        W43998   4.688  12.542   2.475 -0.2154 -0.3407  0.0518
27865W        W43999   7.963  12.550   3.336  0.2278  0.2494  0.0416
27866W        W44000  15.735  12.129  15.435 -0.1168  0.1284 -0.0326
27867W        W44001  15.736  10.907   2.321 -0.2694  0.0694  0.0680
27868W        W44002   4.888  14.850   0.584  0.0247  0.0017 -0.0497
27869W        W44003  10.256   3.254  15.320 -0.1668 -0.0266  0.0123
27870W        W44004  13.452   1.300   4.442  0.0018  0.1165 -0.1741
27871W        W44005  13.796   7.859   0.311  0.0337  0.0097 -0.3174
27872W        W44006   6.790  15.802   1.024  0.2632  0.1073  0.1317
27873W        W44007  15.181   3.372  13.365  0.0269  0.1061  0.0545
27874W        W44008  14.770   1.863   5.271 -0.0386 -0.3276  0.0847
27875W        W44009   7.779  17.366   5.111 -0.1103  0.0486 -0.2835
27876W        W44010   5.600   7.884   0.274 -0.2286 -0.0953  0.0634
27877W        W44011  17.003   6.732  11.788 -0.2271 -0.2474  0.0368
27878W        W44012   9.597  12.835  15.123 -0.0443 -0.2728 -0.2313
27879W        W44013   8.545   8.110   3.320 -0.1755 -0.0527 -0.0098
27880W        W44014   3.636  17.709  15.073  0.1119 -0.1034  0.0176
27881W        W44015  10.576   0.804  13.811  0.4324 -0.3131  0.1633
27882W        W44016   7.516  15.794   1.349  0.1987  0.1191  0.1220
27883W        W44017  11.837  10.791  12.614 -0.0443 -0.1246 -0.2133
27884W        W44018   1.735   9.211  16.021 -0.0759  0.1993 -0.0064
27885W        W44019   1.276  16.080   5.496  0.2030 -0.0466 -0.1206
27886W        W44020   6.929  17.770   1.252 -0.1157  0.6589  0.1351
27887W        W44021   6.909   7.367   3.044 -0.0982  0.1968  0.2610
27888W        W44022  13.228  12.886   6.599  0.0760 -0.1121  0.1153
27889W        W44023  15.122  17.617  14.069  0.4134  0.2085  0.2112
27890W        W44024   0.779  16.676  13.309 -0.0726 -0.1185 -0.0472
27891W        W44025  17.592  11.297   2.313  0.3247  0.0269  0.0337
27892W        W44026   1.733   8.266  13.890  0.0079  0.2596 -0.1489
27893W        W44027   1.632   0.295  14.638 -0.0396 -0.1832 -0.1985
27894W        W44028   7.203  16.919  13.827  0.2011 -0.1719 -0.0708
27895W        W44029   9.888   0.883   3.939  0.1070 -0.2543  0.0598
27896W        W44030   9.546   2.642  11.991 -0.0592 -0.1244  0.1338
27897W        W44031   3.001  10.972  13.912  0.2072 -0.1921  0.1417
27898W        W44032  15.639  17.456   3.675 -0.1474 -0.0864  0.1097
27899W        W44033  14.093   9.377   3.571  0.2032  0.3940  0.1836
27900W        W44034  11.142   7.035   2.694 -0.0923  0.1648 -0.2280
27901W        W44035   1.939   0.970   0.580  0.1630 -0.2919  0.1421
27902W        W44036  10.247   0.731  12.434  0.0486  0.2856 -0.1077
27903W        W44037   0.746   9.799   5.007  0.0158  0.0619 -0.0395
27904W        W44038   8.659   7.078   4.678  0.0531 -0.0997 -0.1027
27905W        W44039  12.355   8.322   3.195  0.1938 -0.1077  0.1197
27906W        W44040   3.465   6.351   0.321  0.0483  0.1579  0.0665
27907W        W44041  16.655  14.386   6.491 -0.0122 -0.1750  0.0767
27908W        W44042  14.802  16.324  13.873  0.4598  0.0346  0.0959
27909W        W44043   8.297  15.030   1.473  0.0057 -0.0262  0.2175
27910W        W44044  10.715  17.587   0.174 -0.0126  0.0415  0.1872
27911W        W44045  15.977   7.497  11.498  0.2125 -0.0272 -0.0389
27912W        W44046   1.499   3.777   3.919  0.0403  0.0214 -0.0326
27913W        W44047   7.501  11.772  14.492  0.2271 -0.0876 -0.0073
27914W        W44048   3.972   7.304  10.928 -0.1715  0.4971 -0.0437
27915W        W44049  11.729   8.257  15.289 -0.1838  0.0949  0.1415
27916W        W44050   6.408  12.318   4.033 -0.1762  0.4466  0.1602
27917W        W44051   1.695   4.757   1.591 -0.2641 -0.0168  0.1294
27918W        W44052  13.633  12.642   3.703  0.3797 -0.0307 -0.2562
27919W        W44053  14.718  10.823   0.576 -0.2026  0.0730  0.2259
27920W        W44054  16.641  12.992   4.395 -0.2116  0.0166 -0.0404
27921W        W44055   7.421   3.795  15.672  0.5247 -0.3946 -0.2340
27922W        W44056   2.029  10.090   0.652  0.1707 -0.1320  0.0316
27923W        W44057   5.715  14.931   5.730 -0.3585  0.0289 -0.1408
27924W        W44058  11.076  15.752  14.934  0.1231 -0.4226  0.0475
27925W        W44059   2.393  13.877   5.343  0.2091 -0.2636  0.2852
27926W        W44060   7.965  12.545   5.422 -0.0142  0.2063 -0.0777
27927W        W44061   8.288   8.963  10.888 -0.0761 -0.0668  0.1083
27928W        W44062  13.890   7.257   0.545 -0.2235  0.3811  0.2643
27929W        W44063  17.611   0.187   1.917 -0.2117 -0.0749 -0.1263
27930W        W44064  17.449   3.337  13.658 -0.2508  0.1930 -0.0142
27931W        W44065   1.095  11.625   1.445 -0.3451 -0.1706 -0.0656
27932W        W44066  14.918  16.883   2.705  0.0448 -0.0753  0.0085
27933W        W44067  14.729   6.444  14.674  0.0555  0.2590 -0.0415
27934W        W44068   7.376   1.862   3.390 -0.1806  0.1434  0.2067
27935W        W44069   4.044   5.320  16.347  0.1298 -0.0505  0.2544
27936W        W44070  17.315  14.785   3.545  0.1650  0.1130  0.0741
27937W        W44071   9.775  14.787   1.410 -0.0927 -0.1422 -0.1912
27938W        W44072   4.150   4.828   0.016 -0.1989 -0.0401  0.1912
27939W        W44073  12.674   4.880   1.709  0.0372  0.0576  0.2267
27940W        W44074   9.887  15.424   0.701  0.0042 -0.0458  0.4028
27941W        W44075  11.350  15.507  16.241  0.1803 -0.2991 -0.1369
27942W        W44076  15.051   1.858  15.760  0.1295  0.0123 -0.1697
27943W        W44077   7.154  14.240  16.192 -0.0404 -0.1833 -0.1559
27944W        W44078   7.870   3.017   5.256  0.3573 -0.0400  0.1189
27945W        W44079  10.285  14.730  13.534 -0.0041  0.0617  0.3997
27946W        W44080   4.696   8.552  12.973 -0.0883  0.0007  0.0911
27947W        W44081  14.197   3.576   0.265 -0.0730  0.0120 -0.2877
27948W        W44082   4.051  17.298  12.886  0.0702 -0.1601  0.3381
27949W        W44083   2.754  13.591  12.246  0.0711  0.2857 -0.1148
27950W        W44084  15.634   6.274  11.842 -0.0465 -0.0287  0.1306
27951W        W44085  13.777  13.604  14.246  0.1777 -0.1394 -0.1142
27952W        W44086   6.462   3.075   4.642 -0.0228 -0.0693 -0.2882
27953W        W44087  10.675   0.863  11.373 -0.1063 -0.1958  0.0029
27954W        W44088   6.857  11.765  11.375  0.1237 -0.0386  0.1118
27955W        W44089  15.660  11.333   2.571  0.3198  0.2943  0.0388
27956W        W44090   8.339  15.490   4.642 -0.2809  0.1152 -0.1314
27957W        W44091   4.279   2.041   0.419  0.1626 -0.2249 -0.0699
27958W        W44092  10.323   0.331   0.530  0.2942  0.0334  0.2466
27959W        W44093   1.855   5.431   0.171  0.4025 -0.1274 -0.2642
27960W        W44094  17.320   9.458  12.994 -0.2134  0.1282 -0.0958
27961W        W44095   4.103  14.428  11.395 -0.0747 -0.2107 -0.1144
27962W        W44096  10.714  14.211   4.862  0.0037 -0.1612 -0.0311
27963W        W44097   1.595  12.537  16.230 -0.0328  0.2985  0.2239
27964W        W44098   6.942   3.050  14.257 -0.2868 -0.2668  0.0822
27965W        W44099   8.807  11.152  15.558  0.1707 -0.0240  0.1081
27966W        W44100   0.832  10.270   3.928 -0.2378 -0.1709 -0.0751
27967W        W44101   7.930   1.168  11.913  0.2031 -0.2062 -0.1974
27968W        W44102   2.009   1.429   3.799  0.1067 -0.0186 -0.0039
27969W        W44103  13.991   3.568   5.642 -0.1118  0.3370  0.0627
27970W        W44104  10.965   4.688  12.552  0.0482 -0.0749  0.0680
27971W        W44105  15.845  10.923   2.818  0.1433  0.0554 -0.0980
27972W        W44106  17.667   7.267   4.565 -0.0811  0.1837  0.1853
27973W        W44107   1.947  11.039   3.091  0.1661  0.0233  0.0674
27974W        W44108  16.821   3.195  11.475  0.0064 -0.3182 -0.1782
27975W        W44109   3.391   8.054   3.379 -0.0778 -0.0819  0.0794
27976W        W44110  17.996  16.244  12.424  0.2611  0.3008 -0.0124
27977W        W44111   2.259   2.338  11.775  0.3590 -0.4215  0.1348
27978W        W44112  14.890  11.250  14.213 -0.0869 -0.3253  0.1067
27979W        W44113   8.019   3.152  15.774  0.0029 -0.1083 -0.0828
27980W        W44114   3.651  13.488  15.324  0.1430  0.0591  0.1677
27981W        W44115   5.732   0.605  11.050  0.1007 -0.2712 -0.0985
27982W        W44116  15.010   2.989   1.274  0.0260  0.2533 -0.0617
27983W        W44117   8.120   0.899   1.082 -0.0704  0.2312 -0.1253
27984W        W44118  13.019  17.947   3.530 -0.1378 -0.1132 -0.1798
27985W        W44119  10.585   2.727  16.204 -0.0573 -0.3627 -0.0106
27986W        W44120   3.940   4.177   2.050  0.2731  0.2572 -0.0013
27987W        W44121  10.487  14.937  16.072  0.1491  0.0421 -0.1875
27988W        W44122   8.490  12.932  12.664 -0.0966 -0.1212  0.0537
27989W        W44123   9.998  14.913  14.720  0.0868 -0.2295 -0.1303
27990W        W44124  16.437   9.590   5.701  0.1884  0.2233  0.0421
27991W        W44125   2.251   0.276  16.514 -0.0596  0.2276  0.0402
27992W        W44126   9.290  13.328   1.819 -0.1142  0.4576 -0.0659
27993W        W44127  13.026  17.939  12.968 -0.0410  0.1501 -0.2895
27994W        W44128   2.823  14.162  12.205  0.0719 -0.0536 -0.2310
27995W        W44129   1.008   4.595   3.930 -0.0115 -0.2191 -0.1938
27996W        W44130   8.665   5.648  14.284 -0.0092 -0.2799  0.0293
27997W        W44131   2.387   2.282   0.396  0.0477 -0.1145 -0.1625
27998W        W44132   1.933  12.177   1.076  0.2425 -0.0882 -0.2508
27999W        W44133   5.572  12.963  13.762 -0.1997 -0.3671 -0.1579
28000W        W44134   6.767  15.087   4.161  0.0290  0.2202 -0.1854
28001W        W44135   6.983  12.698  12.647  0.2297 -0.1532 -0.1249
28002W        W44136   0.047  11.898   4.874  0.2644  0.1696 -0.0057
28003W        W44137   0.874  15.355   4.179 -0.0427 -0.2595  0.0329
28004W        W44138   3.012   6.503  13.061 -0.0022  0.5898  0.0804
28005W        W44139  17.652   1.605   3.432 -0.1038  0.1311 -0.0262
28006W        W44140  12.042   5.438  14.073  0.1455 -0.2906  0.2252
28007W        W44141   9.361  12.546  14.156  0.0027 -0.2919 -0.1727
28008W        W44142   7.899   2.471   1.529  0.1356 -0.0596 -0.0936
28009W        W44143  11.359  15.603   0.368  0.0820 -0.0505 -0.0013
28010W        W44144   6.086   0.130  15.542 -0.3160 -0.0586  0.0736
28011W        W44145  16.105  16.466   3.123 -0.1454  0.2555  0.0125
28012W        W44146  13.247   4.172   0.568 -0.1586 -0.1569  0.0224
28013W        W44147  10.310   7.045  12.388  0.1233 -0.1792 -0.1718
28014W        W44148  12.017   8.015   1.848  0.1143  0.1265 -0.0513
28015W        W44149  17.076   6.834  15.474 -0.2677  0.4049  0.0064
28016W        W44150   0.914  14.738   0.209 -0.2390  0.1722 -0.2387
28017W        W44151   1.680  15.880   1.358  0.1157  0.0232  0.1403
28018W        W44152  12.704   4.458  12.392 -0.1114  0.2625  0.1381
28019W        W44153  16.803  14.495   3.567  0.0133 -0.2247 -0.2634
28020W        W44154   9.770   5.250  13.053  0.1419  0.5018 -0.0006
28021W        W44155   3.716  16.354  14.979  0.1542  0.0478 -0.2014
28022W        W44156  13.643  14.307   2.969  0.3051 -0.1085  0.1275
28023W        W44157  14.333   9.032   2.703 -0.0402  0.4802 -0.0319
28024W        W44158   9.442   0.987   5.768  0.4007 -0.0652  0.2218
28025W        W44159   8.886   0.576   2.822  0.1745  0.0338  0.0573
28026W        W44160  12.970   5.133  12.496  0.1407  0.3523  0.1473
28027W        W44161  10.437  10.216  13.800  0.2543  0.1421 -0.0050
28028W        W44162   0.991   6.764   0.037  0.0059  0.1101  0.3605
28029W        W44163  15.143   2.418   3.697 -0.2282 -0.3977  0.3012
28030W        W44164  17.181  14.337  14.659  0.1842 -0.0129  0.6123
28031W        W44165   6.227  15.199   0.632  0.0830 -0.3284 -0.1104
28032W        W44166  14.754  11.275   5.589  0.3475 -0.1886 -0.0723
28033W        W44167   5.308   2.339   1.920 -0.2061 -0.0458  0.2032
28034W        W44168   5.808  16.787  13.468  0.1840 -0.3788  0.0660
28035W        W44169   4.782   3.884  13.028 -0.0451  0.2796 -0.1011
28036W        W44170   8.145  18.088   4.396  0.0985  0.1476  0.1194
28037W        W44171  12.103   2.297  13.597  0.0904  0.1420 -0.0120
28038W        W44172  16.018   5.149   0.607 -0.1164  0.1566  0.0908
28039W        W44173  14.751   8.328  12.964 -0.3499  0.0669 -0.0483
28040W        W44174   4.066   1.537   0.976 -0.1360 -0.0701  0.1559
28041W        W44175  16.799  15.968  14.975  0.1830 -0.0146  0.0305
28042W        W44176  17.121   1.755   6.375  0.1599  0.1305 -0.3024
28043W        W44177  10.277   2.276  14.056 -0.0641  0.0970  0.0632
28044W        W44178   6.718   6.017   4.712 -0.1505  0.1195 -0.2719
28045W        W44179   2.591  11.886   5.292 -0.0216  0.2091  0.0682
28046W        W44180   1.372  10.501  16.451  0.0458 -0.1828  0.1952
28047W        W44181   4.307   4.711   3.389 -0.0711 -0.2060 -0.1862
28048W        W44182   1.675   3.450   2.611 -0.1166 -0.0214 -0.1305
28049W        W44183   6.607   5.833  13.516  0.0973  0.1474 -0.0510
28050W        W44184   9.298  11.149  13.707 -0.1728  0.3392  0.2183
28051W        W44185   2.079  12.454  16.088 -0.2067  0.0457  0.2497
28052W        W44186   2.671  15.855   1.190 -0.4512  0.0909 -0.1512
28053W        W44187  16.716   9.533   0.906 -0.1759 -0.0805  0.1812
28054W        W44188  12.156  15.827   5.391 -0.1543 -0.1841 -0.0655
28055W        W44189   5.499   1.060  15.709 -0.0446  0.1516  0.2534
28056W        W44190   8.185   5.007   4.806  0.0798  0.0501 -0.2223
28057W        W44191  18.023   6.596   5.845  0.0186  0.2745 -0.3198
28058W        W44192   9.518  12.810  14.627  0.0172  0.2037 -0.0553
28059W        W44193   7.385   0.000   3.728 -0.3341  0.1168  0.0815
28060W        W44194  13.267   5.003   0.328 -0.3811  0.2077 -0.0226
28061W        W44195   3.920   5.611   4.200  0.0246  0.3168  0.4176
28062W        W44196   4.814  16.295   3.708 -0.0090  0.1210 -0.0003
28063W        W44197  14.225   9.045   3.211  0.3794 -0.1756  0.1510
28064W        W44198  17.296   0.816   1.467 -0.1446  0.0728 -0.0504
28065W        W44199  10.358   9.733   4.605  0.2392  0.2413 -0.1155
28066W        W44200   6.529   0.625   1.305 -0.1134  0.1165 -0.0446
28067W        W44201   0.066   2.573   0.850  0.0341  0.1468  0.0548
28068W        W44202  10.108  12.076   3.901 -0.0716 -0.2666 -0.0971
28069W        W44203   8.617   8.324  14.114 -0.0578  0.1838 -0.1783
28070W        W44204   0.469   6.313   2.823 -0.1008  0.1236  0.0447
28071W        W44205   4.180   4.565   2.337  0.0225  0.1361 -0.3297
28072W        W44206   0.069   9.758   3.690 -0.2079  0.0398 -0.0472
28073W        W44207  12.274   6.992  12.502 -0.1037  0.0960  0.0312
28074W        W44208   0.164   3.266   4.911  0.0547 -0.0347  0.0952
28075W        W44209  12.268   9.707  10.262  0.1870 -0.0929 -0.3028
28076W        W44210  18.005   5.636  14.650  0.1346  0.1277  0.0765
28077W        W44211  10.660  13.200  13.404 -0.2024  0.3143 -0.2182
28078W        W44212  16.975  15.925   0.845  0.0603  0.0861 -0.0295
28079W        W44213   9.473  17.057   2.747 -0.2618 -0.3038 -0.0263
28080W        W44214   9.612   5.988   4.348  0.1705  0.0281  0.2179
28081W        W44215   9.158   4.577   2.732  0.0526  0.0343  0.4493
28082W        W44216   3.018  12.677   2.592  0.0566 -0.1763  0.0467
28083W        W44217  16.856   7.933  12.771 -0.1543  0.0404 -0.0543
28084W        W44218  14.336  12.158  13.405 -0.4341 -0.0012 -0.1409
28085W        W44219  16.850  15.473   4.195  0.2619  0.2616 -0.0729
28086W        W44220  12.674   1.105   3.208  0.1977  0.0747  0.0091
28087W        W44221   0.055  13.662  12.277 -0.0852 -0.1385 -0.0349
28088W        W44222   1.533   4.882  15.431  0.0658 -0.3327  0.1658
28089W        W44223  12.273   1.016  14.264 -0.1761  0.0941 -0.1215
28090W        W44224  11.565   4.615   4.585 -0.0404 -0.1324 -0.1544
28091W        W44225  10.326  14.293   1.488 -0.1906 -0.1039 -0.1315
28092W        W44226   9.593  13.146  13.458 -0.0155 -0.3150  0.1909
28093W        W44227   5.449   2.893  14.921  0.1740  0.2172 -0.0020
28094W        W44228   8.228  13.777   5.274 -0.0316 -0.1032  0.1247
28095W        W44229   3.058   8.935   0.480  0.0754 -0.4015 -0.0096
28096W        W44230   5.438  10.312  14.986 -0.0807  0.1629  0.0629
28097W        W44231   2.967   9.081  15.146 -0.0221 -0.1594  0.1066
28098W        W44232   5.148  13.951   0.710 -0.5453 -0.1977 -0.3215
28099W        W44233  17.158   6.645   1.532  0.0142 -0.3320  0.2820
28100W        W44234  10.173  10.489   3.979  0.1903 -0.3990  0.2024
28101W        W44235   0.566   3.174   2.201 -0.2097 -0.0160 -0.1053
28102W        W44236  13.239  10.644   1.355  0.1817  0.1225  0.0295
28103W        W44237  15.405   3.051  12.651 -0.2601  0.2916 -0.1469
28104W        W44238   5.083  14.960   3.547 -0.1216 -0.1872  0.0208
28105W        W44239   6.791   3.136  10.638  0.5017  0.2644 -0.0494
28106W        W44240  14.629  10.470  14.356  0.3125 -0.1020 -0.2908
28107W        W44241   3.658  12.137  15.901  0.0605 -0.1201  0.1877
28108W        W44242   5.226   5.563  15.317 -0.0750 -0.0485 -0.0313
28109W        W44243  17.313   2.133   4.677 -0.0899 -0.3128 -0.1485
28110W        W44244   7.925   6.294   3.596  0.2098 -0.1070 -0.0874
28111W        W44245  11.184  10.779   0.515 -0.2832  0.0449  0.0971
28112W        W44246  10.175  13.434   1.647 -0.3013  0.1048 -0.0760
28113W        W44247   5.438  18.083  14.624 -0.2185 -0.1820  0.1481
28114W        W44248  14.910  11.623   0.575  0.0208 -0.2145 -0.1511
28115W        W44249  10.854   5.623  13.473 -0.1290  0.1321 -0.2231
28116W        W44250   8.008   2.244  15.664  0.0709  0.0701  0.2485
28117W        W44251  16.624  13.625  14.553  0.1265  0.0274  0.0852
28118W        W44252  16.389   6.878  15.178 -0.0926  0.0975  0.1059
28119W        W44253   6.563   4.031   2.467 -0.3179  0.0445 -0.0223
28120W        W44254  16.244   2.951  11.514 -0.1406 -0.0887 -0.2874
28121W        W44255   3.319   7.208  13.762  0.1294  0.0826  0.0933
28122W        W44256   8.399  14.977  15.805 -0.3470  0.0784 -0.0693
28123W        W44257  13.069   0.070  15.548  0.1823 -0.1951 -0.1174
28124W        W44258   4.678   2.962  13.482 -0.1937  0.0784 -0.0358
28125W        W44259  10.862  15.342  12.417  0.0504  0.3073  0.0901
28126W        W44260   8.485   8.625   1.021  0.1529 -0.1020  0.4897
28127W        W44261  12.415  13.913   3.112  0.2529  0.1114 -0.0585
28128W        W44262   5.466  13.674  11.992 -0.2368  0.0114  0.2467
28129W        W44263   9.769   2.397  14.171 -0.2567 -0.0104  0.3869
28130W        W44264   8.242   0.294  14.833 -0.2399 -0.3010 -0.0318
28131W        W44265   8.950  10.976   1.855  0.2833  0.0545 -0.0563
28132W        W44266   2.800   6.523  14.382 -0.2898 -0.0624 -0.0185
28133W        W44267  12.647   5.236   1.389  0.0635 -0.1525  0.0999
28134W        W44268  12.997  13.684  15.474 -0.0747  0.0430 -0.0207
28135W        W44269  13.834   1.860   3.706  0.0852  0.1453 -0.1455
28136W        W44270   2.781  14.634   1.505 -0.0627  0.1842 -0.0094
28137W        W44271   3.855   5.800  14.855  0.1352  0.2484 -0.2200
28138W        W44272   0.339   9.881   3.251 -0.0964 -0.0138 -0.1032
28139W        W44273   4.529   5.313   4.520 -0.0034 -0.1043 -0.0497
28140W        W44274   5.389   3.811  11.587  0.1871  0.2398 -0.0731
28141W        W44275   8.001   3.089   0.378  0.3370  0.2148  0.1921
28142W        W44276  13.909   1.334  15.642 -0.2434  0.0717  0.2454
28143W        W44277  17.798   8.712  15.083 -0.3220 -0.3433 -0.1185
28144W        W44278  13.208   5.396  13.938  0.2132  0.0811 -0.2466
28145W        W44279  15.031  11.604  15.105  0.3109  0.2634 -0.1119
28146W        W44280  14.340   3.188  16.481  0.0134  0.0484 -0.2205
28147W        W44281  17.051  10.552  16.456 -0.0749 -0.0080 -0.0251
28148W        W44282   1.331  10.355   1.109 -0.0958  0.0151 -0.0616
28149W        W44283  13.307  16.028  14.635 -0.0930 -0.1554  0.0843
28150W        W44284   1.987   4.857   5.487 -0.1274  0.0079  0.0212
28151W        W44285   7.588   8.387  13.856 -0.0602  0.0900 -0.0409
28152W        W44286   4.231   4.879   0.536  0.1542 -0.1835 -0.2167
28153W        W44287   9.835  11.248  14.411  0.0183  0.1751  0.0245
28154W        W44288   9.235  15.044   4.441 -0.0534 -0.3008 -0.0561
28155W        W44289  10.217   3.206   0.611 -0.0349  0.2923 -0.0309
28156W        W44290  13.476  13.064  14.937 -0.2917 -0.1420  0.1154
28157W        W44291  13.011  15.150   0.815 -0.3380  0.1317 -0.3602
28158W        W44292   5.770   8.476   0.863 -0.0027 -0.0894 -0.1560
28159W        W44293   1.199  13.182   2.985  0.0326 -0.0723 -0.3010
28160W        W44294   7.356   3.284  10.590  0.0392 -0.1321 -0.2891
28161W        W44295   9.873  10.979   2.762 -0.0037  0.1921  0.0344
28162W        W44296   5.504  13.395  13.447 -0.0885 -0.0608  0.1206
28163W        W44297   3.855  17.582   2.820 -0.3783 -0.1855  0.0343
28164W        W44298   1.656   2.257   4.019  0.1256 -0.1494  0.2111
28165W        W44299  15.200  11.634   1.882  0.2211 -0.0005 -0.1361
28166W        W44300   4.343   5.888  14.898  0.1944 -0.1168  0.0874
28167W        W44301   3.397  16.528   0.803  0.0134 -0.2574 -0.0657
28168W        W44302   7.793  10.439  14.372 -0.1669 -0.2909  0.0522
28169W        W44303   2.016   2.849  16.331  0.1662 -0.2862  0.1263
28170W        W44304   0.095  10.127  14.970  0.1088 -0.1456 -0.0563
28171W        W44305   7.957   3.706  15.461 -0.0058  0.1034 -0.3623
28172W        W44306   3.683  17.224   5.530 -0.1323 -0.3012 -0.2391
28173W        W44307  12.999  10.924   3.488 -0.0841 -0.2243  0.0369
28174W        W44308   7.872   9.192   3.993 -0.0082  0.1999 -0.0456
28175W        W44309   7.563   1.087  12.874  0.2307 -0.0121 -0.5199
28176W        W44310  12.515   4.420   5.543  0.2562 -0.0288  0.2546
28177W        W44311   2.053  14.356  12.835  0.0896  0.0399 -0.2757
28178W        W44312  17.956   3.236  12.416  0.1696 -0.1426 -0.1067
28179W        W44313   7.425   0.245  12.981 -0.2315  0.1530  0.1264
28180W        W44314  17.806   8.821   1.252  0.1681 -0.0873  0.4304
28181W        W44315   2.083  11.291  11.234  0.3062 -0.1066 -0.2367
28182W        W44316   5.870  13.585   2.878  0.3594  0.2944 -0.1454
28183W        W44317  15.453   1.420   2.857 -0.5962 -0.1648 -0.2563
28184W        W44318   1.366  14.306  16.174  0.1639  0.3290  0.0801
28185W        W44319   5.943  15.338   5.899  0.1208  0.1829 -0.1682
28186W        W44320   2.973  11.541   0.748  0.1331 -0.0271  0.4018
28187W        W44321   9.027   0.088  13.678 -0.1069  0.3528 -0.1270
28188W        W44322   4.916   8.622  11.428  0.2607 -0.0359  0.2873
28189W        W44323   1.016  11.873   2.634  0.0454 -0.0296 -0.2250
28190W        W44324  14.362  13.718   1.895 -0.0798  0.0445  0.4350
28191W        W44325   7.456   0.094  15.852  0.0313 -0.0353 -0.0061
28192W        W44326   6.940  18.033  15.598  0.0736  0.0908  0.0692
28193W        W44327  10.130  10.987   4.959  0.2378 -0.2076  0.0762
28194W        W44328  14.762  14.817  12.460  0.0377 -0.4557 -0.1691
28195W        W44329   7.848   8.721  12.653  0.0395 -0.0834  0.0295
28196W        W44330   1.302   4.102  15.740 -0.1617 -0.0362 -0.1560
28197W        W44331   7.608  11.025   0.668  0.0477 -0.0774 -0.0908
28198W        W44332  14.782   2.454   2.557  0.0141  0.0185 -0.0964
28199W        W44333   0.069   9.206   2.906 -0.0786  0.2170 -0.5017
28200W        W44334   9.045  15.119   2.718  0.0010  0.4526  0.1996
28201W        W44335  14.433   1.026   0.866  0.1504 -0.0651 -0.2350
28202W        W44336  18.013   5.495   4.912 -0.1645 -0.0675  0.1618
28203W        W44337  14.891  16.796   3.537 -0.0711 -0.1414 -0.1243
28204W        W44338   1.275  10.801   0.850 -0.2673  0.0614  0.2048
28205W        W44339   5.896  17.193  14.525 -0.5119  0.0524  0.0940
28206W        W44340  10.015   5.631   4.474 -0.1790 -0.1122  0.1968
28207W        W44341  14.504  15.240  14.944  0.2103  0.3222 -0.1468
28208W        W44342   6.599  10.973  10.425 -0.2053 -0.2993  0.1076
28209W        W44343   4.746  16.577   4.469 -0.0186 -0.0043  0.0158
28210W        W44344   8.906   0.407   4.469  0.2995  0.0551  0.0544
28211W        W44345   4.969  15.148   1.152 -0.0161  0.1275 -0.0838
28212W        W44346   7.727  13.418   0.799  0.0126  0.0246  0.1970
28213W        W44347  16.505  17.963   0.096  0.1482 -0.0693  0.1631
28214W        W44348   7.279   6.729  13.431  0.3528 -0.1075 -0.0136
28215W        W44349  14.951   7.725  13.702  0.0950  0.2254 -0.3174
28216W        W44350   7.633   5.407  16.174  0.1564  0.0025 -0.1695
28217W        W44351   0.551  14.699  14.720 -0.1247  0.0022  0.2695
28218W        W44352   2.165   3.769  15.330  0.0653 -0.0558  0.5407
28219W        W44353   3.744   2.483  12.899  0.0315 -0.1023  0.0310
28220W        W44354   0.797   4.678  13.909  0.1033 -0.2703  0.0404
28221W        W44355  17.245   5.326   0.661  0.3388  0.3114 -0.0260
28222W        W44356  15.753   2.864   2.582 -0.1567 -0.0322 -0.0902
28223W        W44357  15.740   3.434   0.686  0.1951  0.0757 -0.4596
28224W        W44358   8.656   8.746   3.537 -0.2372  0.2127 -0.1409
28225W        W44359  15.691  10.366   4.294 -0.1174  0.0921 -0.0520
28226W        W44360  10.248   9.043  11.548  0.0241 -0.1552 -0.2281
28227W        W44361  12.366   6.901   4.066  0.0101  0.4412  0.0745
28228W        W44362  17.515  17.553   3.317  0.0768 -0.2441 -0.0028
28229W        W44363   9.846  12.010  12.235 -0.1581 -0.0657 -0.1007
28230W        W44364   0.569   6.953  11.695 -0.0776  0.1859 -0.0650
28231W        W44365   1.510  14.580   6.234 -0.0801  0.2669 -0.0593
28232W        W44366  12.962  12.984   5.304 -0.1029 -0.2100 -0.2229
28233W        W44367  15.919  16.403   4.519  0.1283 -0.1355  0.2484
28234W        W44368  12.392  13.750   1.452 -0.1919  0.1623 -0.3373
28235W        W44369  11.931  17.130   3.482  0.1041  0.0564 -0.1107
28236W        W44370  11.867  14.296  13.430 -0.1133  0.0398  0.5259
28237W        W44371  15.560  12.244  14.544 -0.2152 -0.1159 -0.0097
28238W        W44372  11.150  13.166  12.095  0.0740  0.0412 -0.3057
28239W        W44373  17.186  10.865  13.269 -0.2063  0.0039 -0.1096
28240W        W44374   7.974  10.081   1.575 -0.0932  0.0921  0.0486
28241W        W44375  10.604   4.793   2.092 -0.1944  0.3628 -0.0478
28242W        W44376   7.071   7.793   9.732  0.1916 -0.1185  0.0481
28243W        W44377   7.898   9.773  11.260 -0.1425 -0.0777  0.0678
28244W        W44378   3.029  16.855   2.028  0.0194  0.3310  0.1716
28245W        W44379   0.836   8.516  14.167 -0.1726 -0.1479 -0.3586
28246W        W44380  12.713   5.475   3.883 -0.1840  0.2552 -0.3539
28247W        W44381   9.610  15.796   0.820  0.1155  0.0044 -0.2015
28248W        W44382   7.229  10.625  13.294 -0.0704 -0.0378  0.0765
28249W        W44383  17.150  12.000   5.247  0.2241 -0.0373 -0.1204
28250W        W44384   4.243   3.972  14.500  0.1519  0.2202 -0.3005
28251W        W44385  15.387   6.848  12.538 -0.2946 -0.1186 -0.2743
28252W        W44386   2.190   8.977   1.637  0.3831  0.0119  0.1704
28253W        W44387  13.664   6.059  12.427 -0.1199  0.0988 -0.1686
28254W        W44388  17.760   7.232   2.880 -0.3432 -0.0429 -0.0395
28255W        W44389   9.617  14.495   0.997 -0.1536 -0.0749 -0.0012
28256W        W44390   3.291  13.119  16.345 -0.1842 -0.3681 -0.1019
28257W        W44391   2.314   5.190  14.692 -0.1803  0.1188  0.0754
28258W        W44392  17.910   1.516   2.607 -0.0454  0.1051  0.3604
28259W        W44393   6.953  16.542   5.202  0.0782  0.0877 -0.0416
28260W        W44394  15.790  15.196   0.405  0.1529 -0.0009 -0.2286
28261W        W44395   1.004   7.728  11.003 -0.1642 -0.0145  0.2491
28262W        W44396   5.605   0.416  11.485 -0.0356 -0.4921 -0.1850
28263W        W44397   1.415   9.824  13.891  0.1617  0.0503  0.4748
28264W        W44398   2.802   0.983   1.951  0.1315 -0.1321 -0.0082
28265W        W44399   9.692  15.141   1.078  0.1400  0.1656  0.1392
28266W        W44400   4.698   2.329   0.370  0.1161  0.2968  0.0484
28267W        W44401   2.596   8.858   2.471 -0.1121  0.1102 -0.3039
28268W        W44402   0.898  11.092   0.836 -0.0508  0.3818 -0.0345
28269W        W44403  14.339   1.284  12.045 -0.1568  0.1007 -0.0669
28270W        W44404  16.284  16.600   1.992  0.0906 -0.0902  0.0512
28271W        W44405   3.063   7.366  11.270 -0.3669 -0.3222  0.2042
28272W        W44406   1.533   0.496   2.593 -0.2410  0.0213  0.2895
28273W        W44407  11.103   7.923   0.476  0.2528  0.0573  0.1056
28274W        W44408   3.300   6.452  12.590 -0.1016  0.1673  0.0764
28275W        W44409  11.346   8.552   2.555 -0.4457  0.1211 -0.1078
28276W        W44410  14.821  12.555   3.039 -0.2708  0.1032 -0.3666
28277W        W44411  13.134  17.953   2.965 -0.1649  0.5039  0.0246
28278W        W44412   9.791   3.626  13.094  0.1290 -0.1507  0.3937
28279W        W44413   2.322  16.822   5.062  0.0260  0.0881 -0.1998
28280W        W44414  17.127   5.410  11.246 -0.0989 -0.2623  0.0139
28281W        W44415   7.104  14.542  12.716 -0.0161 -0.0304 -0.1234
28282W        W44416   1.028  15.874  16.370  0.0209 -0.0411  0.0754
28283W        W44417  10.485  15.652   1.005 -0.1935  0.0393  0.1629
28284W        W44418   6.986   3.855  12.840  0.0649 -0.2331  0.2180
28285W        W44419  11.024  17.731   4.048  0.4801  0.0809 -0.0156
28286W        W44420   7.218   7.900  15.319  0.1729  0.1137 -0.1846
28287W        W44421   8.099   9.447   3.492 -0.0598 -0.1051 -0.0144
28288W        W44422   7.540  10.293   3.269  0.2432  0.0034  0.2763
28289W        W44423   1.461  15.689  14.267  0.1495  0.0723  0.0290
28290W        W44424   8.302   5.175   0.885  0.0672  0.0637 -0.2213
28291W        W44425  13.056  15.872  16.262 -0.1703 -0.1437  0.0994
28292W        W44426   1.591  17.915   5.196 -0.3106  0.1748 -0.3490
28293W        W44427  17.715   9.134  14.333 -0.1753 -0.0539 -0.0622
28294W        W44428  12.301  14.413   5.871 -0.1094 -0.1029  0.1135
28295W        W44429  10.713  17.999   3.254 -0.2375  0.2238  0.3631
28296W        W44430   8.068  14.334   3.297 -0.0373  0.0560 -0.1153
28297W        W44431   3.616   5.043  13.615  0.1799 -0.1122 -0.1861
28298W        W44432   6.425  11.377  15.145  0.0246  0.1734  0.0921
28299W        W44433  15.498   1.384   4.083  0.2274 -0.0081  0.0475
28300W        W44434   8.598  10.333   2.863  0.0490  0.1852  0.1812
28301W        W44435  11.733  16.167  12.902 -0.2874  0.0039 -0.1724
28302W        W44436  18.133   9.219   0.166 -0.0890 -0.2818  0.0579
28303W        W44437   8.480  16.093   0.103 -0.0198 -0.3179  0.0849
28304W        W44438  12.555  15.505   0.921 -0.0572  0.0895  0.2535
28305W        W44439  17.655   8.582  11.516 -0.0385  0.0559  0.0129
28306W        W44440   1.142   1.502  13.023  0.1823 -0.1823  0.0744
28307W        W44441   4.415   2.222   2.432 -0.0794 -0.1877 -0.0512
28308W        W44442   7.281   2.817   0.927  0.0289 -0.0301 -0.0617
28309W        W44443  12.890  15.754  11.521 -0.1082 -0.0237 -0.0398
28310W        W44444  14.320  16.581   5.456  0.0293  0.0908  0.0509
28311W        W44445   5.184   0.100  16.464  0.0836 -0.2781 -0.0249
28312W        W44446  17.931  11.133   1.920 -0.1249 -0.0758 -0.2205
28313W        W44447  15.055  14.701  14.344 -0.0661 -0.1018 -0.1221
28314W        W44448  14.468   3.066   3.063  0.1327  0.0114  0.4447
28315W        W44449  11.733  13.041   4.082 -0.2969  0.4595 -0.2012
28316W        W44450   0.142   5.431   1.919 -0.0567  0.1981  0.2541
28317W        W44451  17.498  11.402  15.996  0.4793 -0.0710 -0.0708
28318W        W44452   3.669  12.718  14.262 -0.0309  0.2061 -0.2810
28319W        W44453   8.862  13.509  14.621  0.2108  0.1041 -0.1690
28320W        W44454   2.694  12.369   2.396 -0.0228  0.1564 -0.0817
28321W        W44455   0.888  11.644   3.594 -0.0582 -0.0089 -0.0798
28322W        W44456   9.574  16.870   4.957 -0.0999 -0.1622 -0.1204
28323W        W44457   6.428   3.148   0.492 -0.1708  0.1569 -0.1225
28324W        W44458  15.591   8.878   0.080  0.0632  0.0147  0.0165
28325W        W44459  13.380  12.803   1.723 -0.1454  0.2309  0.3470
28326W        W44460  14.384   0.941   1.725 -0.3381 -0.2003 -0.1129
28327W        W44461  12.233   3.973   4.586 -0.0936  0.1189  0.4045
28328W        W44462  17.273  17.459  12.462 -0.1077  0.1762  0.0362
28329W        W44463  16.118  11.606   2.337 -0.1180 -0.1402 -0.0672
28330W        W44464   2.278  17.574   0.382 -0.0606  0.1936 -0.1641
28331W        W44465   5.335   6.108  12.554  0.1139  0.1181 -0.0365
28332W        W44466   4.654  15.503  14.635 -0.1182  0.2251  0.0407
28333W        W44467   4.135   2.708   5.234  0.3262  0.1473  0.5097
28334W        W44468   7.342   2.731  12.018  0.2617 -0.0345  0.4187
28335W        W44469  14.186  10.049   1.038  0.0515 -0.0089 -0.0700
28336W        W44470  10.284  17.857   3.569 -0.2218 -0.0453 -0.2101
28337W        W44471   7.562  14.169  15.331 -0.1066  0.1630 -0.0550
28338W        W44472   3.392  10.663   1.159 -0.1240  0.1356 -0.0636
28339W        W44473   5.583   2.397   4.824 -0.1588 -0.1437 -0.2884
28340W        W44474   8.630   1.739  11.493 -0.0648 -0.4293 -0.2210
28341W        W44475  10.752   5.963  13.061  0.0417  0.0891 -0.2010
28342W        W44476   5.680  10.429  14.154  0.0472  0.0193 -0.2454
28343W        W44477   5.973   7.923   2.975 -0.3889  0.2516  0.4824
28344W        W44478  14.375  15.445  16.512 -0.0406  0.1781 -0.1647
28345W        W44479   6.334  17.029   3.800  0.0087 -0.0946  0.4924
28346W        W44480   0.670  18.070   1.415  0.0095  0.1011 -0.3103
28347W        W44481  15.374  10.736  12.542 -0.1489 -0.0734  0.2185
28348W        W44482  14.527  13.088   4.075 -0.0351 -0.2710  0.0721
28349W        W44483  11.152  12.321  12.709 -0.1533  0.0337  0.3000
28350W        W44484   7.146   2.936   5.927 -0.3573  0.1756 -0.1077
28351W        W44485   1.954   9.370   4.427 -0.0617  0.3641 -0.0475
28352W        W44486  10.102   4.065  12.176  0.0022 -0.1970  0.0682
28353W        W44487   8.838  17.065  13.498 -0.3063 -0.0290 -0.0842
28354W        W44488  18.074  18.107   5.402 -0.0929 -0.0143  0.0118
28355W        W44489  17.006  17.680  13.955  0.3541 -0.3490  0.1435
28356W        W44490  17.680  11.078   0.399 -0.0258 -0.2893  0.1747
28357W        W44491   2.949  10.898  11.706 -0.0522  0.3106  0.2683
28358W        W44492   9.113  13.032   4.953 -0.0696 -0.0200  0.0105
28359W        W44493   5.214   3.542  14.074  0.1549 -0.0944 -0.4535
28360W        W44494  12.026   3.019   1.764  0.1784 -0.1410  0.2680
28361W        W44495   2.404   7.011  11.111 -0.0035  0.1041  0.2731
28362W        W44496   9.088   5.627  11.360 -0.0506 -0.3386 -0.1532
28363W        W44497   9.673   2.580  13.308  0.0233  0.1744 -0.1011
28364W        W44498  16.762  13.514  15.337  0.2652 -0.0045  0.0955
28365W        W44499  17.807   2.150   2.690  0.0478  0.1377 -0.0723
28366W        W44500  16.337   5.232  11.678 -0.0113  0.1736 -0.1311
28367W        W44501  10.616   2.003   2.372 -0.2146 -0.3783  0.4863
28368W        W44502  17.152  17.756   3.546  0.1474 -0.5411  0.2703
28369W        W44503   4.259   0.146  13.835  0.5000  0.0984 -0.0899
28370W        W44504  15.414  13.786  15.914  0.2085 -0.0199  0.2567
28371W        W44505  11.886  12.597   4.986  0.0706 -0.1973 -0.1950
28372W        W44506  16.174   3.690   2.908 -0.2129 -0.2107 -0.0938
28373W        W44507  16.006  11.027  12.545  0.0611  0.2646 -0.1021
28374W        W44508  11.737  13.471  13.570 -0.1355 -0.0180  0.3350
28375W        W44509   7.744  16.647   0.868  0.1060  0.3285 -0.3939
28376W        W44510  17.922   3.658  14.893 -0.0655  0.0336  0.1751
28377W        W44511   8.972  17.244  15.297 -0.0286  0.2025 -0.1151
28378W        W44512   1.444  14.674   5.520  0.1536 -0.0920 -0.2222
28379W        W44513   2.989   4.205  16.294 -0.0793  0.1430  0.0990
28380W        W44514  15.362   9.346  11.664 -0.0910 -0.2823 -0.2748
28381W        W44515  16.762   5.311   0.461 -0.0276 -0.3944 -0.0168
28382W        W44516   9.097   7.472  15.099  0.0652  0.0336 -0.0703
28383W        W44517   3.415  17.686  11.883 -0.0060 -0.1710  0.2340
28384W        W44518   8.844   7.105   3.585  0.0369  0.0362  0.0441
28385W        W44519   2.525  12.071  15.057  0.3746  0.0672  0.0810
28386W        W44520   9.099   6.160   1.707  0.1110  0.1316  0.0875
28387W        W44521  10.361   6.585   2.793 -0.2957 -0.1302 -0.2914
28388W        W44522   5.712   3.634   3.905 -0.3346 -0.1488 -0.3576
28389W        W44523  11.810  10.177  15.273  0.2411  0.2347 -0.4106
28390W        W44524   6.643   8.478   0.669  0.1317 -0.0840  0.1685
28391W        W44525  16.879   1.044   3.090  0.1652 -0.0458 -0.0498
28392W        W44526   9.798   1.018  13.794 -0.0038 -0.3475  0.1200
28393W        W44527   2.752  10.401  13.653 -0.0307  0.1447  0.2249
28394W        W44528   7.904  12.055   3.503 -0.0317  0.0611 -0.0709
28395W        W44529   0.313  13.885  12.668  0.0463  0.0702 -0.1690
28396W        W44530  11.918  15.372   1.535  0.3245  0.0235  0.1325
28397W        W44531  12.736  18.036  11.836  0.0998 -0.1255  0.2009
28398W        W44532   8.468  11.640   0.134  0.0384 -0.1149 -0.1440
28399W        W44533   3.822  16.355  15.506 -0.1392  0.2502 -0.0706
28400W        W44534  14.514  13.878   4.223 -0.0711 -0.1771  0.1037
28401W        W44535   4.942  12.546   3.659 -0.0312 -0.0187 -0.1281
28402W        W44536   5.493   0.161  13.311  0.2650  0.1204  0.2006
28403W        W44537  11.051  14.674  11.942  0.3452  0.1693  0.1827
28404W        W44538   9.928  11.546   4.798  0.1457  0.0705  0.3002
28405W        W44539  11.535   9.806   2.676 -0.0512 -0.1569  0.0912
28406W        W44540   3.533   7.907   1.931 -0.0675  0.0115  0.0352
28407W        W44541  16.765   2.772   1.410 -0.0323 -0.1163 -0.2154
28408W        W44542  14.267   4.354  11.446 -0.1700  0.1353  0.1575
28409W        W44543   9.072   1.073   3.034  0.0586  0.1618  0.1770
28410W        W44544   0.712   2.296  13.966 -0.1363  0.4000 -0.0535
28411W        W44545   6.626   8.124   4.580  0.0864  0.0124  0.0298
28412W        W44546   3.556  14.161   5.225  0.1529 -0.0132  0.1508
28413W        W44547   1.288   5.290  15.365 -0.1862  0.4538 -0.0276
28414W        W44548   1.456  12.279  14.405  0.0647  0.0512  0.0438
28415W        W44549  14.406   3.295   4.793  0.2127 -0.1860 -0.1250
28416W        W44550   3.770  15.970   6.147 -0.0037  0.4952  0.4276
28417W        W44551   1.755  12.982   5.163 -0.1457 -0.1976  0.1999
28418W        W44552  12.086  11.751   5.989 -0.0236 -0.1730  0.3588
28419W        W44553  17.501   3.403   1.592  0.1540  0.1909  0.3386
28420W        W44554   2.689  10.509   0.368 -0.0334 -0.2907 -0.1787
28421W        W44555   0.087   2.056   0.862  0.1895 -0.4777 -0.0169
28422W        W44556   6.431  10.375  15.967 -0.2095 -0.2364 -0.2184
28423W        W44557  11.142   6.821   3.895  0.0547 -0.0512  0.0132
28424W        W44558  13.123  11.677   2.964 -0.0622 -0.1132 -0.2939
28425W        W44559   9.296  17.388   5.798  0.0399 -0.1706  0.0182
28426W        W44560  16.292   6.180   5.189  0.2427 -0.1109  0.2123
28427W        W44561  12.278   0.581  12.254  0.1915  0.2018 -0.0131
28428W        W44562   9.096  16.771  12.176  0.3663  0.1729 -0.2332
28429W        W44563   5.523   4.350   3.030 -0.0587  0.2141 -0.0588
28430W        W44564  10.703   3.107   3.851  0.0530  0.0694 -0.2175
28431W        W44565   9.250  13.835   3.511 -0.1835 -0.2719 -0.0454
28432W        W44566  14.113  15.963  16.211  0.2407  0.1187 -0.0007
28433W        W44567   6.718   1.833   1.659 -0.0970  0.2873  0.1157
28434W        W44568   0.797  13.039  13.815  0.0234 -0.0793  0.0558
28435W        W44569   5.600  11.128   9.952  0.2687  0.0554 -0.3301
28436W        W44570   0.271   5.665  12.307  0.1289  0.1329 -0.2043
28437W        W44571  17.243   0.840   4.698  0.1619  0.0613 -0.2268
28438W        W44572   2.955   6.826  10.449 -0.4140  0.2074 -0.3620
28439W        W44573   0.572  10.922  14.409  0.2541  0.0016 -0.2489
28440W        W44574  10.079  11.651  14.056  0.0831  0.3835  0.0552
28441W        W44575  15.179   5.610   3.566 -0.0600  0.1273 -0.1678
28442W        W44576   4.206  15.409  11.987 -0.2038  0.1859 -0.1548
28443W        W44577   3.000   7.011   0.289  0.0795 -0.0587 -0.1588
28444W        W44578   2.111  16.537  11.060  0.1226  0.2342  0.3860
28445W        W44579   9.983  14.714  16.001 -0.2170 -0.0090  0.1621
28446W        W44580   7.614   3.402   3.290 -0.1167  0.0360  0.1954
28447W        W44581  12.527  12.213  15.936  0.1168  0.1043 -0.2462
28448W        W44582  10.848   1.691  14.837  0.1925  0.0696  0.1345
28449W        W44583   3.616   6.093   4.265  0.4310  0.0015  0.2028
28450W        W44584  16.753  11.303   5.181 -0.1997  0.0030  0.1741
28451W        W44585   6.951   7.778   4.363  0.2081 -0.1351 -0.0042
28452W        W44586   0.433   4.071   3.261 -0.0351  0.1926 -0.1929
28453W        W44587   6.502   4.603  13.084  0.0043 -0.0508 -0.0593
28454W        W44588  15.895  15.054  14.705  0.1300  0.3931 -0.0972
28455W        W44589   9.829  13.375  14.504  0.2087 -0.0568  0.3391
28456W        W44590   6.621   9.037  11.427 -0.2603  0.4017  0.1514
28457W        W44591  13.500   4.841   5.533 -0.1489  0.3400 -0.3594
28458W        W44592  13.534  14.732  12.790 -0.2682 -0.1224  0.1012
28459W        W44593   7.977   2.998  12.988 -0.2390 -0.0085 -0.0167
28460W        W44594   7.377  16.277  15.728 -0.3965 -0.1446  0.0471
28461W        W44595   3.737   8.441   1.358  0.0576 -0.1879 -0.2841
28462W        W44596   7.246  14.330   3.055 -0.1081  0.1694 -0.1738
28463W        W44597   3.205   2.267   5.143  0.0409  0.0233 -0.3312
28464W        W44598  18.144  16.155  14.865  0.0434  0.2340 -0.1006
28465W        W44599   0.070   4.445   4.027  0.1196  0.0203  0.1277
28466W        W44600   5.237   0.049   3.799  0.3885 -0.0975  0.0431
28467W        W44601   5.511   6.647   2.987 -0.1409  0.1614 -0.0296
28468W        W44602   9.260   8.638   0.377  0.0206 -0.0667  0.1447
28469W        W44603   1.431   4.343  11.757 -0.0776  0.0932 -0.2471
28470W        W44604  17.760   5.430   2.936  0.0072 -0.0706 -0.2006
28471W        W44605   6.433  15.259  14.431  0.2266  0.0626  0.1763
28472W        W44606   2.319   6.820  14.120 -0.1316 -0.0625  0.1440
28473W        W44607  17.072  17.498  12.903  0.1136 -0.1628  0.0323
28474W        W44608  12.540   1.935  13.671 -0.1232  0.1604  0.1736
28475W        W44609   8.688  17.713   1.631 -0.2789  0.0968  0.1536
28476W        W44610  10.119   1.086   3.546  0.0328 -0.0155 -0.1565
28477W        W44611   8.761  17.552  14.202  0.2034  0.2260  0.0991
28478W        W44612   4.464  13.996  11.767  0.0674 -0.2096  0.1331
28479W        W44613  12.394   5.362  11.575 -0.0807  0.1440 -0.1060
28480W        W44614   8.502  11.067   2.132  0.1646 -0.5036  0.2780
28481W        W44615   1.771   9.614  11.635 -0.0204  0.3669 -0.0083
28482W        W44616   6.530   5.346  16.404  0.2670 -0.0144 -0.2493
28483W        W44617   8.452  12.578  13.070  0.0188 -0.0482 -0.1752
28484W        W44618   1.642   1.416  11.965 -0.0762 -0.0476 -0.0052
28485W        W44619   1.740  15.629  15.364 -0.0767  0.0615 -0.0349
28486W        W44620  13.399   0.706  14.164 -0.0175 -0.2352 -0.1058
28487W        W44621   7.507   6.226   0.054  0.1844 -0.4942  0.1418
28488W        W44622   1.922   2.536  14.540 -0.0802  0.1475  0.1026
28489W        W44623   1.743   0.240   0.274  0.1089  0.0267 -0.2720
28490W        W44624  13.134   5.379  14.475 -0.1618  0.1126  0.1666
28491W        W44625   1.724  12.393  15.735 -0.1863 -0.1087  0.2302
28492W        W44626   6.134   1.946  13.393 -0.0474  0.1528  0.1147
28493W        W44627  17.414  17.604   1.371  0.0123  0.0962 -0.0090
28494W        W44628   3.905   0.477   5.452  0.1784  0.1062 -0.0343
28495W        W44629   7.189   5.395  11.654  0.1595  0.1087  0.0711
28496W        W44630  13.403   5.332  15.466  0.1746 -0.0333  0.1208
28497W        W44631  10.674   0.953   5.070  0.0018  0.0430  0.0221
28498W        W44632   5.623   6.346  15.132 -0.2100  0.1360  0.2834
28499W        W44633  16.704  14.727   0.945  0.1561 -0.3000  0.0089
28500W        W44634   1.384  13.586  16.422 -0.0808 -0.2218 -0.0359
28501W        W44635   5.029  16.683  14.183 -0.0994  0.0487 -0.1314
28502W        W44636   8.148   8.124  11.178 -0.1576  0.1836 -0.1584
28503W        W44637  12.835   4.235   3.755  0.0618  0.2082  0.3464
28504W        W44638  14.396   2.584   5.514 -0.2322 -0.0530 -0.0346
28505W        W44639   2.908   5.580  12.472 -0.0923 -0.2225  0.2624
28506W        W44640   4.158  10.344  15.735 -0.2080  0.0550  0.0692
28507W        W44641  17.806  12.576  16.438  0.1901  0.2797 -0.0278
28508W        W44642  12.955  15.687   2.528  0.2673 -0.0694  0.3157
28509W        W44643   5.841  11.258   3.164  0.0393  0.0282 -0.0935
28510W        W44644   0.958  12.114  13.914  0.0541 -0.2061 -0.0078
28511W        W44645   4.242  13.190  15.483  0.1507 -0.3488  0.2621
28512W        W44646  16.225  10.384  12.959 -0.1141  0.1441  0.3271
28513W        W44647  10.623  12.151  13.408 -0.2837  0.0545  0.0796
28514W        W44648   7.781  10.801   3.124  0.2116 -0.1307 -0.0417
28515W        W44649  13.551  17.536   0.779  0.3145 -0.0134  0.0636
28516W        W44650  13.963  11.746   1.344  0.3304 -0.0413 -0.0484
28517W        W44651   0.839   7.364  11.574  0.1649  0.0879  0.3304
28518W        W44652  17.709   2.920  14.504 -0.2144  0.1692 -0.0325
28519W        W44653   1.209   1.714  12.096 -0.0675 -0.1155 -0.0570
28520W        W44654  12.662  15.132  12.406  0.0955  0.1090 -0.0344
28521W        W44655   6.307  17.440  14.639  0.0904 -0.0037 -0.0284
28522W        W44656   6.519   3.296  15.226 -0.0307 -0.2183 -0.0276
28523W        W44657  14.605   7.251  16.194  0.0450 -0.1014  0.2160
28524W        W44658  17.173   1.311  14.167  0.3397 -0.3877  0.0614
28525W        W44659   6.689  18.149  16.405 -0.2693 -0.0233  0.1122
28526W        W44660   4.277  11.162  12.650  0.1596  0.0069  0.1317
28527W        W44661  14.494   7.737  14.219  0.2082 -0.1861  0.0564
28528W        W44662  11.210  12.632  12.077 -0.0048 -0.0072  0.2258
28529W        W44663   3.628   1.194   2.621  0.1884  0.0443  0.0797
28530W        W44664   5.192   0.536  13.538  0.3260 -0.3233  0.1541
28531W        W44665   8.158  17.033   1.996  0.2631 -0.0427 -0.0609
28532W        W44666  11.023   4.869   3.429  0.0043  0.1344 -0.1960
28533W        W44667   0.672  16.022   1.681 -0.1448 -0.0834  0.2278
28534W        W44668   2.377  11.967   4.447 -0.3193 -0.1713 -0.0114
28535W        W44669  17.408  17.958   3.094 -0.0081 -0.3533 -0.3125
28536W        W44670  11.043  14.245  12.258 -0.1735 -0.8065  0.2449
28537W        W44671   6.817   7.722   2.058  0.0686  0.0976 -0.1212
28538W        W44672  12.422   7.600   3.296  0.0282 -0.1766  0.1390
28539W        W44673   4.041  13.720   3.075 -0.1220  0.0114  0.1708
28540W        W44674  12.643   9.754   0.857 -0.0050 -0.0238 -0.0485
28541W        W44675   3.227   1.934   0.367 -0.0933  0.0849 -0.1414
28542W        W44676   4.270   8.631   4.336  0.2880  0.1652 -0.4465
28543W        W44677   8.847   5.799  15.653 -0.1546 -0.2263  0.3066
28544W        W44678  16.521   0.078  13.173  0.1009 -0.0452  0.1276
28545W        W44679  16.658   9.463  13.736 -0.1499  0.1182  0.0110
28546W        W44680   0.666   4.883   6.220  0.0063 -0.2705  0.1204
28547W        W44681  12.411   3.164  15.447 -0.1968 -0.0561  0.0190
28548W        W44682   9.644  15.866  13.659 -0.3407  0.2488  0.1298
28549W        W44683  10.452  12.299  16.173 -0.1195 -0.4084  0.1208
28550W        W44684   7.866  17.765  12.894 -0.3431  0.2687 -0.0614
28551W        W44685  13.893   3.784  16.035  0.1923 -0.0343  0.1203
28552W        W44686   0.882  11.136   3.599 -0.0582 -0.1707 -0.0785
28553W        W44687  16.841   1.623   0.633 -0.4139  0.2115  0.2011
28554W        W44688  13.334   0.693   5.675 -0.3015  0.1208 -0.0231
28555W        W44689   9.159  12.024  11.059 -0.0047 -0.3463 -0.0836
28556W        W44690   9.963   0.462  13.195  0.2597  0.1616  0.0673
28557W        W44691  16.154   1.104   5.210  0.0535 -0.2014  0.3466
28558W        W44692   9.804   1.080   0.458  0.2318  0.1929 -0.0406
28559W        W44693   3.448   2.239  12.008 -0.2387  0.1344 -0.0021
28560W        W44694  14.783   7.895  11.547 -0.0264  0.1928 -0.1687
28561W        W44695  12.172   0.789   0.926  0.1736  0.0465  0.0926
28562W        W44696  16.306  14.241  15.497  0.1270 -0.1670  0.1772
28563W        W44697  12.726   1.790  15.179 -0.1168 -0.1860 -0.0493
28564W        W44698  13.640  15.050   4.099 -0.1873  0.1265  0.1803
28565W        W44699  11.743  14.448  16.541 -0.2164  0.0707  0.1682
28566W        W44700   8.168   8.407  11.899  0.1809 -0.2480  0.1314
28567W        W44701  14.132   5.332  13.976 -0.0559  0.0583 -0.2669
28568W        W44702   4.772   8.977  11.770  0.0374 -0.1804 -0.2851
28569W        W44703  13.308   0.648  11.687 -0.3099  0.1197 -0.1538
28570W        W44704   0.113   5.277   0.542  0.1547 -0.2445 -0.0980
28571W        W44705   7.089  15.985   1.482 -0.1374  0.0710  0.2031
28572W        W44706  11.256   0.340  14.464 -0.0304  0.2966  0.0761
28573W        W44707   4.896  11.384  14.193  0.4403 -0.1328  0.1304
28574W        W44708   9.488   6.067  13.738 -0.0310  0.1029  0.2722
28575W        W44709  13.331   2.095   5.065  0.1141 -0.0334 -0.2467
28576W        W44710   7.371   3.156   4.660  0.2583  0.2928  0.1188
28577W        W44711  17.124   7.347   5.329  0.1788  0.1749 -0.2654
28578W        W44712   3.751   8.313  15.050  0.2824 -0.1530  0.2455
28579W        W44713   3.184  10.534  11.963  0.1760  0.0770 -0.0848
28580W        W44714   6.374   8.431  10.635 -0.1989  0.0600 -0.0075
28581W        W44715  10.264  11.906   1.474  0.0560 -0.1243 -0.2507
28582W        W44716  13.405   5.018   2.709 -0.3189 -0.0246  0.0519
28583W        W44717   7.417  10.576   0.091  0.1142 -0.0640 -0.1023
28584W        W44718  13.437   5.062   4.772  0.2285  0.1929  0.1737
28585W        W44719  15.402   6.158   0.260 -0.4243 -0.0086 -0.2031
28586W        W44720   0.704  10.121   4.598  0.0338  0.1247 -0.1841
28587W        W44721   5.349  13.927   1.744  0.3879 -0.0671 -0.1646
28588W        W44722   8.619   5.433   3.546  0.1281 -0.1467  0.0363
28589W        W44723  17.512   3.495  12.561  0.2186  0.0206 -0.1185
28590W        W44724  16.558  14.474   4.430  0.1976 -0.1863 -0.0000
28591W        W44725  17.001   4.343  11.181  0.4603  0.1684  0.0429
28592W        W44726  13.276  12.726   2.187  0.1904  0.0411 -0.0964
28593W        W44727  16.398  12.849  15.606 -0.2726  0.0882  0.2219
28594W        W44728   4.410  16.475   0.792  0.1355  0.3163  0.2581
28595W        W44729   0.559  13.267  16.497  0.1311  0.3793 -0.0444
28596W        W44730  11.181   4.830   2.792 -0.0831 -0.2961 -0.0448
28597W        W44731  13.973   3.277  16.079  0.1261  0.2666  0.0206
28598W        W44732   5.433   4.402  13.635  0.1719 -0.0361  0.3726
28599W        W44733  16.752  15.737   5.319  0.2813  0.0113 -0.3450
28600W        W44734   7.312  14.149  12.241 -0.3634  0.2129 -0.2116
28601W        W44735   9.800   2.355   1.835 -0.2400 -0.3949  0.1417
28602W        W44736   6.037   2.848  12.345 -0.1619 -0.3949  0.2350
28603W        W44737   8.684   3.039  16.482  0.1598  0.2848 -0.1797
28604W        W44738  16.142  16.547   0.305 -0.1384 -0.1789  0.0384
28605W        W44739  12.280   9.677   1.742  0.0932  0.0963  0.1094
28606W        W44740  16.832   9.059   4.643 -0.2036  0.1350  0.1510
28607W        W44741  14.143   5.397  14.896  0.2534 -0.0143  0.0940
28608W        W44742  10.105  13.123  11.867  0.0727  0.1981 -0.0384
28609W        W44743  12.816  17.368  14.030 -0.0739  0.2626 -0.0534
28610W        W44744   8.207  13.224  12.391  0.1772 -0.0219  0.0244
28611W        W44745  13.714  18.015   5.820 -0.1507 -0.1051 -0.1580
28612W        W44746   6.330   5.284   4.673 -0.0812  0.1698 -0.0405
28613W        W44747   7.887   0.383   4.363 -0.0597  0.0237  0.0328
28614W        W44748  17.038  17.777   2.746  0.5720  0.0105  0.0478
28615W        W44749  14.064  12.040  12.860  0.0850  0.2180  0.0320
28616W        W44750   6.703  15.715  12.179 -0.0037  0.0413 -0.1450
28617W        W44751   5.365   9.913   3.776  0.4027 -0.3495 -0.0282
28618W        W44752  14.996   2.773   0.430  0.1632  0.1443 -0.1393
28619W        W44753  14.456   3.321   2.099  0.4575 -0.3870  0.0005
28620W        W44754   3.996   9.386   1.177  0.0837  0.1554  0.1998
28621W        W44755   3.339   0.627  12.786  0.0003  0.1088 -0.3088
28622W        W44756   4.394  14.977  15.838 -0.0889  0.0252 -0.3155
28623W        W44757   1.372  15.144  14.467 -0.1746  0.3580  0.2186
28624W        W44758  10.233   9.917   0.990  0.0302  0.2710 -0.3909
28625W        W44759   1.416   7.760  13.276  0.0777 -0.1264 -0.1004
28626W        W44760   9.819  16.945  13.426 -0.2539 -0.0507 -0.0526
28627W        W44761   3.420  12.773   1.395  0.2016  0.0906 -0.0467
28628W        W44762   4.075   9.247  14.436 -0.1896 -0.2651 -0.0829
28629W        W44763  16.733   1.653  15.154  0.0335  0.0636  0.0136
28630W        W44764   2.463  15.095   3.789 -0.2166  0.0833 -0.0400
28631W        W44765  13.425   3.886  12.635  0.1395 -0.0661 -0.1551
28632W        W44766  16.098  17.888   6.150  0.0048  0.2528 -0.2983
28633W        W44767   0.018  16.308   6.172  0.2150 -0.0849 -0.3344
28634W        W44768  16.304   7.884  12.800 -0.1130  0.0425 -0.2899
28635W        W44769  11.293   0.212  16.363 -0.2536  0.0912 -0.0072
28636W        W44770   3.940   1.050  11.105 -0.1412 -0.3374  0.1565
28637W        W44771   7.635   5.464   2.309 -0.2407 -0.0958  0.3155
28638W        W44772   6.118   6.107  15.537 -0.1816  0.1147  0.0812
28639W        W44773  16.308   4.386  13.007 -0.3352 -0.1190 -0.0484
28640W        W44774   9.098   4.877  13.721  0.1773  0.2031  0.0519
28641W        W44775   9.286   2.374   3.887 -0.0187  0.0691 -0.0475
28642W        W44776   4.326   8.129   4.418 -0.6633  0.1035 -0.0531
28643W        W44777  11.674  12.082   2.723 -0.1627  0.0038 -0.0483
28644W        W44778  17.030  10.467   2.361 -0.0964 -0.1320 -0.0904
28645W        W44779   4.441  11.481   3.372  0.1621  0.0198 -0.1343
28646W        W44780   0.199   7.814  14.076  0.0816  0.0274  0.0566
28647W        W44781   0.787   2.322   2.557 -0.0863 -0.1503 -0.1051
28648W        W44782   6.617   4.223  14.452 -0.4229 -0.0454  0.2709
28649W        W44783   8.354  10.087  14.686 -0.0033 -0.1475 -0.0362
28650W        W44784   9.060  12.910   0.414  0.2289  0.0541  0.1034
28651W        W44785  15.772   2.367  13.083 -0.1508 -0.1211  0.0289
28652W        W44786  15.714   0.464  12.626 -0.0727  0.2011 -0.0517
28653W        W44787  10.849  16.317   4.065 -0.1397  0.1291 -0.0139
28654W        W44788  13.014  12.094   1.228 -0.1671 -0.4203  0.0977
28655W        W44789   5.507  16.097  12.950  0.2223  0.0418 -0.1030
28656W        W44790   6.060   2.464   2.606  0.0788 -0.1084 -0.0115
28657W        W44791   7.903   4.031  14.589 -0.1986  0.1784 -0.0675
28658W        W44792   2.398   6.275   0.020  0.1160 -0.1995 -0.2984
28659W        W44793  11.457   5.948   2.636  0.1418  0.0830  0.1664
28660W        W44794  16.082  11.656  16.531 -0.1741  0.1585 -0.0570
28661W        W44795   1.362  16.386   6.494 -0.2006 -0.0099 -0.0549
28662W        W44796   2.566   1.528   5.923 -0.2143  0.0727 -0.3832
28663W        W44797   9.932   8.917   1.907 -0.1454  0.2563  0.1615
28664W        W44798   4.723   7.785  11.462 -0.0173 -0.2669  0.0572
28665W        W44799   3.976  11.094   5.296  0.2311 -0.1259  0.0177
28666W        W44800  15.334   7.429  12.704 -0.0760 -0.1917  0.0282
28667W        W44801  11.631  15.993   5.598 -0.0882 -0.0722 -0.3541
28668W        W44802  10.733  11.193   4.832  0.2037  0.2289  0.2441
28669W        W44803   4.724  14.919  12.499  0.2326  0.0815  0.2519
28670W        W44804   9.499   6.603  11.993 -0.2428  0.3666 -0.1252
28671W        W44805  15.903   8.636   2.998 -0.0811  0.3922 -0.0051
28672W        W44806   2.841  16.476  15.055  0.0196 -0.0335  0.0675
28673W        W44807  16.405   1.757  16.339  0.1716  0.1570  0.2304
28674W        W44808   8.876  12.540   1.652  0.2218  0.1356 -0.0741
28675W        W44809   8.581  15.952   0.554 -0.3181  0.2704 -0.1010
28676W        W44810   5.328   0.704   0.637  0.0141  0.0451 -0.1126
28677W        W44811   9.058   1.646   3.108 -0.0806  0.2015 -0.1159
28678W        W44812  15.474   7.157  11.597 -0.3033 -0.0791 -0.0200
28679W        W44813   6.834   7.730   0.203 -0.0560 -0.3858  0.0944
28680W        W44814  17.108   4.744  13.013 -0.1392  0.1266 -0.2696
28681W        W44815   1.342  11.403   3.598  0.0334  0.0396 -0.0555
28682W        W44816   4.446  11.408  12.125  0.0797 -0.2417  0.1545
28683W        W44817  17.114  17.743  12.087  0.1395  0.1005  0.0912
28684W        W44818   6.644   4.236   4.684  0.2225  0.1287 -0.1626
28685W        W44819  12.586  15.982   3.447  0.0491 -0.2725 -0.1362
28686W        W44820   7.635   5.797  10.987  0.1161 -0.1329 -0.0414
28687W        W44821  14.584   9.205   3.501  0.2232 -0.0731 -0.1047
28688W        W44822  17.131  10.606  12.065 -0.0114 -0.2079 -0.3376
28689W        W44823   5.406   7.065  12.731 -0.2908  0.1343 -0.0672
28690W        W44824  11.755   1.314  15.121 -0.0631  0.1670  0.2672
28691W        W44825   2.964   2.667  16.260  0.2464  0.2631  0.1497
28692W        W44826   5.370   6.799  14.923  0.0296  0.2810 -0.2060
28693W        W44827   6.795  15.653   0.162 -0.2159  0.0048 -0.0493
28694W        W44828  14.043   0.362  16.359 -0.3962  0.0846 -0.0076
28695W        W44829   7.381   1.975   0.474  0.0597 -0.1051  0.0826
28696W        W44830   6.459   4.987  12.073 -0.0764  0.1290  0.0933
28697W        W44831  11.591   6.379  13.911  0.3348 -0.1532  0.0109
28698W        W44832  13.931  11.201   1.973  0.0078  0.3749 -0.0164
28699W        W44833  15.096  11.159  14.752  0.2462  0.0993  0.1417
28700W        W44834   3.721  12.805  16.471  0.3788  0.0263  0.0707
28701W        W44835   3.565  12.351   2.663  0.0860  0.3956  0.2685
28702W        W44836   7.087  10.222  12.012  0.0827  0.0533  0.0453
28703W        W44837  14.289  17.703  12.368 -0.3945  0.1075  0.2155
28704W        W44838  15.920   2.227  12.106 -0.5311 -0.2615  0.1209
28705W        W44839  16.452   9.847   1.374  0.1359 -0.0623 -0.2305
28706W        W44840   0.528   2.342   0.223 -0.4575 -0.0831  0.0189
28707W        W44841  14.806   0.888   3.955  0.3634  0.2294  0.1092
28708W        W44842   9.423  14.601   2.362  0.3559  0.0927  0.0293
28709W        W44843  11.663   9.726  16.115  0.1886  0.2504  0.0781
28710W        W44844  13.004   1.364   3.502  0.1399 -0.4296  0.0548
28711W        W44845   6.052  13.494  15.830  0.2279 -0.0918 -0.2716
28712W        W44846  10.177   6.074   4.243  0.0021 -0.2974 -0.1466
28713W        W44847  12.125   4.386  16.267  0.1389  0.1429  0.1706
28714W        W44848  17.162   6.540  12.668 -0.2173 -0.3378 -0.1040
28715W        W44849  16.120   2.652  13.849 -0.2224  0.0054  0.0444
28716W        W44850   3.394  15.714   1.958  0.2941  0.0818  0.3022
28717W        W44851  14.199   7.046  14.858 -0.2121 -0.0385 -0.0210
28718W        W44852   4.510   1.965   1.848  0.2558  0.1484  0.1416
28719W        W44853  10.658   6.610  14.627 -0.1557  0.3683 -0.0286
28720W        W44854   8.750   9.277   2.726  0.3141  0.0732 -0.0843
28721W        W44855   4.890  11.300   3.650  0.2742  0.0543 -0.0351
28722W        W44856   5.116   4.374  14.714 -0.1311 -0.0842  0.0238
28723W        W44857   4.627  13.502  11.981  0.1426 -0.0158  0.1288
28724W        W44858  17.099  10.408  15.074 -0.1207  0.1145  0.1344
28725W        W44859   4.498  14.241  12.699 -0.1411  0.1201  0.1358
28726W        W44860   4.501   9.977  12.457 -0.1237 -0.0030 -0.0268
28727W        W44861   5.960   7.632  11.965  0.2512  0.3822 -0.1812
28728W        W44862  14.476   1.496   5.549 -0.2240 -0.1821  0.0194
28729W        W44863   3.052  11.931  13.177 -0.1153  0.1270  0.1284
28730W        W44864   5.254  13.350   3.440  0.1739  0.4629  0.1098
28731W        W44865   6.382   9.501   2.397 -0.0177  0.0466 -0.3594
28732W        W44866  17.645  12.313   3.536  0.2156  0.1136  0.0617
28733W        W44867  10.232  13.891   1.223 -0.0461 -0.1154  0.0177
28734W        W44868  17.918   4.971   0.390  0.1867  0.1209 -0.1009
28735W        W44869  12.616   4.486  15.308 -0.1153  0.1713  0.0647
28736W        W44870  13.206   5.681  13.268 -0.1868  0.1366  0.1444
28737W        W44871   4.795   5.304  15.677  0.0022 -0.0468  0.4323
28738W        W44872   8.146  10.033  15.193  0.1236  0.0657 -0.0196
28739W        W44873   9.290   2.839   1.092 -0.1029  0.2090  0.1623
28740W        W44874  14.982  12.055   1.393  0.0485 -0.3556  0.3804
28741W        W44875  14.693   6.052  13.381 -0.1580  0.0219  0.0767
28742W        W44876   7.031   2.564  14.186 -0.0261  0.1212  0.0632
28743W        W44877   7.173  17.167  14.810  0.2360 -0.2970  0.0255
28744W        W44878   7.708  16.125   2.936  0.1469  0.0548  0.2392
28745W        W44879   5.583   9.392   4.368  0.1790 -0.2707  0.2390
28746W        W44880   5.334   0.338   2.723  0.0653 -0.0073  0.0781
28747W        W44881   1.784   9.739   5.815  0.3878  0.1144 -0.1975
28748W        W44882  10.029   9.281   0.247  0.1273  0.1815  0.0905
28749W        W44883   9.931  12.871   0.777 -0.0645 -0.3454  0.2323
28750W        W44884  15.795   4.687   1.874  0.0419 -0.1389 -0.2371
28751W        W44885  13.940   3.654  14.191 -0.0800  0.1478 -0.0011
28752W        W44886   0.077  15.899  13.344  0.0234  0.0507  0.0922
28753W        W44887   6.830   9.716  13.836  0.0330  0.0177 -0.0032
28754W        W44888  16.244  15.073   1.342 -0.0826 -0.2718 -0.0803
28755W        W44889  12.539   2.633  14.442 -0.0542  0.0377 -0.1728
28756W        W44890  11.341   8.902  13.997 -0.0100  0.4173  0.2041
28757W        W44891  16.665  11.921   1.697  0.1794  0.0320  0.0459
28758W        W44892   3.120  17.439  15.199  0.2399  0.0171  0.0048
28759W        W44893  13.914   1.374   3.582  0.0510 -0.0852  0.0703
28760W        W44894   4.719  13.812   1.676  0.1830 -0.2818 -0.0034
28761W        W44895   0.935   4.092  16.510  0.1862 -0.1397  0.2496
28762W        W44896  15.219   1.167   3.709  0.0627  0.1639  0.0095
28763W        W44897   8.145  16.238   2.755  0.0268 -0.4886 -0.1442
28764W        W44898   2.761   6.691  11.876 -0.0454 -0.2337  0.1584
28765W        W44899   0.272  18.006   2.729  0.0472 -0.2143  0.0368
28766W        W44900   4.763   2.189  12.965 -0.1058 -0.0337 -0.1928
28767W        W44901   7.924   0.642  12.853 -0.1258  0.0790 -0.0607
28768W        W44902  15.768  16.049  13.881  0.1962  0.1730  0.0630
28769W        W44903   3.215  10.961  10.764 -0.2364 -0.0728 -0.0720
28770W        W44904   6.817   2.656   5.048  0.1780  0.0358  0.1821
28771W        W44905   3.079   4.410   6.269 -0.4129 -0.2192  0.0224
28772W        W44906  13.450   6.892   4.983  0.0498  0.0194  0.1807
28773W        W44907   5.370   5.083   0.382 -0.1370  0.0935 -0.1706
28774W        W44908  10.450   7.603   2.542  0.0252  0.1122 -0.0152
28775W        W44909   1.788   2.061   1.710 -0.1341  0.2741 -0.0460
28776W        W44910  13.626   0.873  15.772 -0.0338  0.0094  0.2084
28777W        W44911  13.745   4.650   3.572 -0.3532 -0.1450  0.0155
28778W        W44912   4.098   6.297   4.168 -0.0721 -0.0875 -0.1693
28779W        W44913  14.446  10.878   5.539  0.1438 -0.0168  0.2602
28780W        W44914   5.781   7.863  14.280 -0.1959  0.0132 -0.3884
28781W        W44915   0.536   5.890   1.254 -0.0446 -0.1837  0.2909
28782W        W44916  10.000  18.064   1.183  0.1603  0.0559  0.0204
28783W        W44917  12.611   6.540   2.695 -0.1178 -0.1994 -0.3035
28784W        W44918  15.430  11.667   0.641  0.0246 -0.0680 -0.0998
28785W        W44919   0.871  12.893   0.299  0.0055  0.0584 -0.2063
28786W        W44920   8.297  13.920   2.967 -0.3566 -0.1414 -0.1744
28787W        W44921   5.845   7.988   1.139  0.0686  0.0044  0.1449
28788W        W44922  17.476   0.846  14.372 -0.0130 -0.2160  0.1110
28789W        W44923   0.677   4.589   1.336 -0.1931 -0.1670  0.0791
28790W        W44924  11.469   1.923  15.722  0.2506  0.1529 -0.1664
28791W        W44925   6.099  14.960   4.049 -0.0040 -0.1162  0.0718
28792W        W44926   8.404   9.382  13.417 -0.1951 -0.2776  0.0671
28793W        W44927  13.476  12.499  15.134 -0.1413 -0.0206 -0.0281
28794W        W44928   9.647  10.723  16.191 -0.3270 -0.1745  0.0474
28795W        W44929  10.080   2.492  16.383 -0.0782 -0.2915  0.2536
28796W        W44930   4.145   8.241   5.769 -0.0932 -0.2244  0.2017
28797W        W44931   6.627   0.541  16.276  0.0649 -0.2051 -0.0896
28798W        W44932  11.365   8.236   4.062  0.0100 -0.1327 -0.0845
28799W        W44933  10.309  12.927  12.330  0.2645 -0.3316  0.3175
28800W        W44934  13.274   7.980  14.205 -0.0052 -0.4214  0.1511
28801W        W44935  12.274   4.401   3.231  0.2187  0.1309  0.0068
28802W        W44936   1.172  15.594   5.499 -0.0625  0.0926  0.0213
28803W        W44937  14.670   2.225  13.644  0.2861 -0.2348  0.0075
28804W        W44938  17.070  17.481   5.814  0.1566 -0.3591  0.0740
28805W        W44939  10.749  14.056  13.698 -0.4072 -0.0752  0.0638
28806W        W44940   2.875   2.298   4.162  0.0642  0.2594  0.0929
28807W        W44941  12.580  17.900   4.961 -0.0898  0.0092 -0.0850
28808W        W44942  11.748  18.041   5.409  0.0386  0.4042 -0.0022
28809W        W44943  18.128  14.823   2.655 -0.1186  0.2491 -0.0363
28810W        W44944  12.399   5.918  12.238  0.1970  0.1482 -0.0690
28811W        W44945  16.724  10.797  13.570 -0.0712 -0.1917  0.3254
28812W        W44946   3.365   5.458  13.810 -0.2597  0.0623  0.0168
28813W        W44947  14.627  10.034   5.782  0.0435  0.2818 -0.0685
28814W        W44948   3.611   8.820   5.348  0.0459  0.1751  0.4056
28815W        W44949   0.687   7.242   0.049  0.1785 -0.0921 -0.0128
28816W        W44950   4.894  17.310   0.883  0.0002  0.2935  0.0151
28817W        W44951   8.134  12.566   2.309  0.0624 -0.2261 -0.0684
28818W        W44952  15.169  14.594  12.662 -0.3174  0.0715  0.0094
28819W        W44953  11.611  12.062  15.845 -0.1045  0.0783 -0.2499
28820W        W44954  15.222  12.203   2.265  0.2211 -0.0357 -0.0284
28821W        W44955  13.103   0.447   4.236  0.0244 -0.0391 -0.1353
28822W        W44956   4.311   5.491   5.273  0.1797 -0.0617  0.0206
28823W        W44957   5.178  17.674   3.611 -0.2409  0.0236 -0.0897
28824W        W44958  11.993  17.835   2.226 -0.1045  0.0707  0.2051
28825W        W44959   2.206  13.608   3.973 -0.0042  0.2512 -0.0069
28826W        W44960   5.969   1.606  13.055  0.1831  0.0930  0.1876
28827W        W44961   6.606  16.789  11.129  0.2370 -0.2145  0.0573
28828W        W44962  14.890   1.993   3.710  0.1508  0.0601 -0.4220
28829W        W44963   3.937   7.578   1.693 -0.0984 -0.0659  0.0020
28830W        W44964  11.122  12.239  11.794  0.0070  0.0261  0.0380
28831W        W44965  12.137   1.058  12.074  0.2275  0.0926 -0.1992
28832W        W44966   1.947   8.543   1.693 -0.1275  0.0448  0.0391
28833W        W44967  14.343  16.257   3.726  0.0902 -0.0760  0.1017
28834W        W44968   6.917   2.243   0.410  0.0546 -0.1008  0.0557
28835W        W44969   3.023  17.447   2.807  0.2731 -0.0584 -0.0433
28836W        W44970  13.586   6.000  13.322  0.2167  0.1035  0.0954
28837W        W44971   5.687  10.517  11.137 -0.2352 -0.0399  0.1027
28838W        W44972   2.025  12.554   2.002 -0.4990  0.0835  0.1080
28839W        W44973   2.462  15.770   0.116  0.2423 -0.1163  0.0001
28840W        W44974  17.138  17.904  15.980  0.2295 -0.0917  0.0815
28841W        W44975  12.951   7.057   3.829  0.0230  0.3038  0.1975
28842W        W44976   1.924   7.104   2.817 -0.2138  0.2014  0.0649
28843W        W44977   3.389  14.384   4.736  0.1689 -0.0396 -0.1475
28844W        W44978   7.791   6.241   2.021  0.1549  0.0142  0.3053
28845W        W44979   5.352  11.020   0.650  0.0654  0.0238 -0.3137
28846W        W44980   0.834  10.111   3.371  0.0285 -0.2485 -0.1519
28847W        W44981   7.012   8.941   2.929 -0.1765  0.0443  0.0711
28848W        W44982  17.216   4.714  15.196 -0.1922  0.3721  0.1682
28849W        W44983  11.481  12.948  15.400 -0.1906 -0.0816  0.1313
28850W        W44984   1.592   7.902   5.233  0.0474  0.2087 -0.0646
28851W        W44985   7.573  14.357  12.620 -0.0331  0.3932 -0.0009
28852W        W44986   1.445  14.742  14.801 -0.0365 -0.2644 -0.1463
28853W        W44987  15.125  17.256  12.268 -0.1220  0.1508 -0.1737
28854W        W44988  16.542   4.614   3.753 -0.1104 -0.4152 -0.0328
28855W        W44989  11.072  12.042  13.196 -0.1183 -0.2308 -0.1746
28856W        W44990   4.843   7.956   4.132  0.3447  0.2216  0.3197
28857W        W44991  13.990   0.024  12.641  0.0070 -0.3548 -0.0909
28858W        W44992   8.277  17.858   1.355  0.2413 -0.0263 -0.0458
28859W        W44993   6.649  11.405   3.690  0.0032 -0.1557 -0.0477
28860W        W44994   5.205  11.522  12.122  0.2396 -0.1409 -0.0106
28861W        W44995  16.953   9.108  11.896 -0.1020 -0.1012  0.0476
28862W        W44996  17.764   7.709   3.794 -0.2182  0.1035  0.0661
28863W        W44997  11.188   5.920   0.217 -0.0256  0.2056  0.1887
28864W        W44998  13.069  11.854  13.115 -0.1309  0.1301  0.0810
28865W        W44999  10.027   9.970  13.450  0.0633 -0.1734 -0.3195
28866W        W45000  13.820   9.227   0.588  0.4329  0.3046  0.1843
28867W        W45001  16.011  10.077   1.513 -0.1162 -0.0888  0.0792
28868W        W45002   4.761  15.319   5.421  0.0798 -0.2062  0.0797
28869W        W45003  15.768  17.180   5.679  0.0531  0.3234  0.3759
28870W        W45004  17.934  13.561  13.173  0.0510 -0.0327 -0.0224
28871W        W45005   4.348   8.298  16.147 -0.0512  0.0319 -0.3204
28872W        W45006  16.504   5.373   4.196  0.0248 -0.0536  0.0309
28873W        W45007   7.335   0.037   2.381  0.0852 -0.2605 -0.2908
28874W        W45008   5.614   9.394   0.659  0.1348 -0.1101  0.2188
28875W        W45009   5.240   5.848   1.874  0.4020  0.0619  0.0157
28876W        W45010  16.490   8.499  14.071 -0.2714  0.0032 -0.1721
28877W        W45011  13.842   1.089   4.139  0.0629 -0.0548 -0.0215
28878W        W45012   9.464  10.185  15.031 -0.0365  0.0719  0.1532
28879W        W45013  13.761  17.509  11.917 -0.1510 -0.0972  0.2405
28880W        W45014  13.268   6.523   1.673  0.2604  0.0605  0.0423
28881W        W45015   1.073   7.666   4.835  0.0162 -0.3213  0.0435
28882W        W45016   4.790  13.258   3.289  0.0979  0.2507 -0.2236
28883W        W45017   5.673   0.857  12.769 -0.0875 -0.0213  0.0909
28884W        W45018   8.281  14.048  16.231 -0.1686  0.2102  0.1536
28885W        W45019   6.092  10.731   0.580  0.0546 -0.3962 -0.0867
28886W        W45020   3.960   9.206  15.011 -0.1357 -0.1461  0.3549
28887W        W45021   7.439   1.139  11.823 -0.3329 -0.0673  0.0262
28888W        W45022  16.388   6.771  14.692  0.0688 -0.2442  0.1309
28889W        W45023  15.618  13.027  12.473  0.2758  0.1203  0.2828
28890W        W45024  13.734   6.414   1.333 -0.2449  0.0528 -0.1754
28891W        W45025  15.778   6.257   3.128  0.1490 -0.1583  0.0409
28892W        W45026  15.474   1.798  12.175  0.1865  0.2173 -0.0799
28893W        W45027   7.215  14.058   5.202  0.0971 -0.3458  0.3685
28894W        W45028  12.557  17.779  13.659 -0.0879 -0.2292  0.2002
28895W        W45029   7.576   8.389   4.417 -0.2514 -0.1151 -0.0432
28896W        W45030   7.193   2.364   5.161 -0.2320 -0.2000  0.2686
28897W        W45031  12.029  12.926  14.324 -0.1669  0.0408 -0.0014
28898W        W45032   1.981   6.171   5.414  0.5082 -0.1647  0.3086
28899W        W45033  17.319  17.142   2.441  0.0063 -0.0098 -0.0100
28900W        W45034  14.158   1.626  15.278 -0.0186 -0.5323 -0.0992
28901W        W45035  15.616  10.132   5.147  0.1739 -0.1453 -0.0396
28902W        W45036   3.620  10.070   3.189  0.0698  0.0737  0.3036
28903W        W45037   8.818   6.389  11.135  0.2193  0.1323 -0.0709
28904W        W45038   4.914  15.343   4.896 -0.1230 -0.0960 -0.2105
28905W        W45039  11.479  15.602   5.301 -0.2873  0.0511 -0.1983
28906W        W45040  10.999   5.031   2.396  0.0421  0.5019 -0.2203
28907W        W45041  12.439  13.825  14.189 -0.0407 -0.1147 -0.0421
28908W        W45042   5.699  10.726   0.904 -0.0528 -0.0056 -0.2241
28909W        W45043   2.879   1.341   1.008 -0.0015  0.0741 -0.1885
28910W        W45044   7.438  17.487  15.156  0.3256  0.0531  0.0343
28911W        W45045  16.723  14.638   4.017 -0.0565 -0.3278  0.1616
28912W        W45046  18.103   7.531  14.945  0.0234 -0.1306  0.0507
28913W        W45047   5.803   9.885   5.076 -0.0857  0.0738 -0.1341
28914W        W45048   5.456   9.352  13.456 -0.1375  0.3163  0.1746
28915W        W45049  13.155  10.935  11.300 -0.0212  0.1765  0.0091
28916W        W45050  14.061   0.185   4.642 -0.1867 -0.0279 -0.2513
28917W        W45051   7.566  12.169  11.458  0.0490 -0.0310  0.0175
28918W        W45052   0.064  14.862   2.191 -0.0433  0.4751  0.1495
28919W        W45053   7.320  15.007   2.271 -0.0260 -0.1762  0.1654
28920W        W45054   1.738  12.382   1.508 -0.2777 -0.1634  0.0430
28921W        W45055  12.504   1.513   3.528  0.0815  0.3177  0.2443
28922W        W45056  16.182   7.439  11.987  0.0772  0.0323  0.1963
28923W        W45057   6.761   6.613  14.134  0.0034 -0.0339 -0.0007
28924W        W45058  14.594   9.851  11.828 -0.2007  0.1001 -0.0761
28925W        W45059  15.311   5.304  14.593  0.1325  0.2068  0.2971
28926W        W45060  11.494   4.226   4.059 -0.0757  0.1756  0.0893
28927W        W45061  11.770  15.946   3.992  0.2336 -0.0650  0.2288
28928W        W45062   3.930  17.333   0.062  0.0105  0.1674 -0.0155
28929W        W45063   0.784  13.868  11.518  0.0349 -0.2961  0.1643
28930W        W45064   9.018   3.689  15.791  0.2265  0.1943  0.0062
28931W        W45065   6.180   6.326  11.940  0.1642  0.2500 -0.0520
28932W        W45066  16.437   4.247   0.708 -0.1623 -0.0217 -0.0526
28933W        W45067  17.733  11.325   5.611  0.1057  0.2524  0.2951
28934W        W45068  17.698   1.269   0.678  0.0708  0.0524  0.0192
28935W        W45069   2.606  14.190  13.822  0.0389  0.0170  0.0189
28936W        W45070   0.085   6.268   2.514  0.0681 -0.2690 -0.0192
28937W        W45071   6.818  13.174  11.903  0.0257  0.1364  0.2189
28938W        W45072   8.147   2.531   5.162  0.1858  0.2319 -0.0498
28939W        W45073   8.738   6.562  14.794  0.0754  0.3911  0.1858
28940W        W45074   6.505  17.165   4.720  0.1540 -0.1406 -0.3046
28941W        W45075   5.932   7.459  13.985 -0.0770 -0.0641 -0.0493
28942W        W45076   8.689   7.261   1.586 -0.3233  0.0699 -0.1136
28943W        W45077  14.295   7.579   0.053  0.0167 -0.1254  0.0255
28944W        W45078   5.039  14.183  14.775 -0.0075 -0.0032  0.0303
28945W        W45079  11.748   9.585  15.214  0.0189 -0.0231 -0.1281
28946W        W45080  10.450   2.465  14.593 -0.0110  0.2695 -0.2786
28947W        W45081  13.102  10.404  15.948 -0.3006 -0.0997  0.1121
28948W        W45082  17.943   1.233   5.405  0.1640 -0.1230  0.0806
28949W        W45083  10.800   8.980  12.096 -0.2977  0.0258  0.1864
28950W        W45084   4.546  16.901   2.664 -0.0548  0.0036  0.1973
28951W        W45085   5.300  15.475   1.306  0.3981 -0.1759 -0.0848
28952W        W45086   4.256  10.536   1.706 -0.1436  0.0055  0.0956
28953W        W45087  12.820   4.367   2.022  0.0302  0.0804 -0.2146
28954W        W45088  11.830  12.460   4.193 -0.0865 -0.4822  0.4355
28955W        W45089  17.615  10.960  13.918  0.0200  0.1724  0.1046
28956W        W45090   5.060  17.729  13.652  0.0257  0.0510  0.1049
28957W        W45091   8.068  11.522  10.771  0.0820  0.0995  0.0044
28958W        W45092   3.955  16.164   5.114 -0.0509  0.0131 -0.1585
28959W        W45093   5.254  10.329   3.465  0.2339 -0.0785  0.1887
28960W        W45094  12.434   4.177   0.409  0.0844 -0.1086 -0.0959
28961W        W45095  10.856   7.529  11.771  0.2544 -0.1442  0.2050
28962W        W45096  11.784   0.045  13.351 -0.1220 -0.0437 -0.0087
28963W        W45097  12.020   0.293   2.285 -0.2697  0.0941 -0.1296
28964W        W45098   7.838   2.180   0.752  0.2433  0.2238 -0.0195
28965W        W45099   4.361  11.828   1.308  0.3838  0.0555 -0.0544
28966W        W45100   0.284   4.802  16.233  0.0171 -0.2075  0.0641
28967W        W45101  10.418   5.394   6.264 -0.1574 -0.0872  0.1852
28968W        W45102  15.025   9.841  14.937  0.4435 -0.1409 -0.0981
28969W        W45103  16.217   9.261  13.651  0.0441 -0.2171  0.1279
28970W        W45104   7.843   4.338  11.371 -0.1453 -0.0890  0.0429
28971W        W45105   2.744   3.028   3.481 -0.2653  0.0012  0.3045
28972W        W45106   0.224   6.202   5.918 -0.4106 -0.0833  0.4595
28973W        W45107   9.221   6.097  16.045  0.1478 -0.1405 -0.1381
28974W        W45108   4.036   5.778  11.217  0.1624  0.0699 -0.1609
28975W        W45109  16.952   0.093   2.585  0.1913 -0.2566  0.2402
28976W        W45110  15.034  14.357  11.849  0.0495 -0.2810  0.0937
28977W        W45111   1.114  11.887   5.706 -0.0146  0.1249 -0.1921
28978W        W45112   8.429   0.268   4.534  0.3486 -0.0265  0.1274
28979W        W45113   9.463  13.739   1.596  0.1552 -0.0273 -0.2058
28980W        W45114   7.427  14.448   5.389  0.1136  0.1602 -0.1229
28981W        W45115   0.959  10.759   4.068  0.0664  0.0141 -0.1753
28982W        W45116   9.083   3.864   0.220  0.0331  0.0972 -0.0841
28983W        W45117  10.010   4.175   1.566 -0.1719 -0.1201  0.0869
28984W        W45118  13.212  15.067   3.162  0.0776 -0.3120 -0.0517
28985W        W45119   2.834   3.626  11.299 -0.0603 -0.2546  0.3653
28986W        W45120   1.575  17.519  14.975 -0.4010  0.1682  0.0592
28987W        W45121  17.675  16.471  16.487 -0.0382  0.1980  0.2260
28988W        W45122  16.758  13.115  11.770  0.0256 -0.0363  0.1190
28989W        W45123  15.298   4.490  16.031  0.1681  0.1729 -0.0813
28990W        W45124   9.328   9.395   2.038  0.2504 -0.1126 -0.1294
28991W        W45125  16.746  16.886   5.541  0.0084  0.3402 -0.3236
28992W        W45126  15.949   1.400   4.220 -0.2439  0.2479 -0.0295
28993W        W45127   7.211   9.162   2.506 -0.0699 -0.0000  0.3355
28994W        W45128   3.189   8.168  11.680 -0.1346  0.1851 -0.1459
28995W        W45129   9.369   2.069  11.892  0.4195 -0.0447 -0.3575
28996W        W45130   6.006   6.610  10.627 -0.3217 -0.1832  0.0416
28997W        W45131   5.816   3.564  13.971 -0.0156  0.0591  0.1529
28998W        W45132   4.180   0.876   3.605  0.0116 -0.1930 -0.3813
28999W        W45133   8.660  12.823   4.945 -0.0433 -0.3753 -0.2855
29000W        W45134  11.321   9.647   1.900 -0.0289 -0.2248  0.1418
29001W        W45135   8.887   9.488   4.015 -0.4571 -0.0098  0.1228
29002W        W45136   5.468   9.906   3.245  0.0149  0.2000 -0.2375
29003W        W45137   2.751   9.741   1.168  0.1787 -0.0846  0.1403
29004W        W45138  13.551  12.274  13.832 -0.2509 -0.0176  0.1404
29005W        W45139   3.345  11.441   0.334  0.0978 -0.4532 -0.1731
29006W        W45140  17.631   5.419  15.423  0.0323 -0.5185 -0.0981
29007W        W45141  12.235  14.143   4.867 -0.0751  0.1791 -0.0129
29008W        W45142  14.257  15.769   2.533 -0.0626  0.0615 -0.1066
29009W        W45143  16.420   2.654  16.098  0.0093  0.1386  0.2589
29010W        W45144   6.139  12.846  13.541  0.0700 -0.0578 -0.1447
29011W        W45145   5.594  17.452   4.372 -0.0011  0.1390  0.1756
29012W        W45146   5.777   4.836   0.271 -0.1672 -0.0751 -0.1765
29013W        W45147   4.596   9.944  11.936 -0.0926  0.1652  0.4203
29014W        W45148   2.472  14.076  13.061 -0.0407 -0.4781 -0.1280
29015W        W45149  13.968  15.355   4.880 -0.0185 -0.4805  0.1883
29016W        W45150   5.778   5.988  15.889  0.0329  0.0645  0.1526
29017W        W45151  14.496  15.082   6.018 -0.0967 -0.0427  0.0384
29018W        W45152  17.261  16.696   2.296  0.1054 -0.1469 -0.3415
29019W        W45153   3.354   1.379   5.439 -0.3144  0.3475  0.0881
29020W        W45154   9.550   5.340   3.190 -0.1360 -0.2686 -0.0583
29021W        W45155   6.463   1.572   0.921  0.1811 -0.2150  0.2094
29022W        W45156  11.253  10.226   4.777 -0.3272  0.3844  0.0547
29023W        W45157   6.892   1.263  15.732  0.1982 -0.1713 -0.1756
29024W        W45158   8.577  10.991  11.795  0.0080  0.0898  0.1743
29025W        W45159   6.170   3.572   0.517 -0.1032  0.1059 -0.5256
29026W        W45160   8.144   1.169   5.890  0.0588  0.0105  0.1337
29027W        W45161   7.746  12.081  15.048  0.0644  0.2632 -0.2072
29028W        W45162   5.444  16.836   4.095 -0.3163 -0.0730  0.0270
29029W        W45163   4.868  17.209  14.922  0.1658  0.1418 -0.2802
29030W        W45164  14.901   9.594  11.059 -0.1694  0.2108  0.2658
29031W        W45165   1.982   0.736   1.722  0.0463 -0.1384  0.0579
29032W        W45166   8.668   6.759  15.716 -0.0768 -0.2520  0.1654
29033W        W45167   9.854   7.643   1.661  0.0966  0.0952  0.3515
29034W        W45168   7.659  12.507  12.939  0.1148 -0.2683  0.0627
29035W        W45169  11.629  15.759   2.975 -0.0316  0.2982 -0.1595
29036W        W45170   2.566  15.474  12.487  0.3709 -0.0613 -0.0494
29037W        W45171   8.854   0.115   3.862  0.1501  0.2613 -0.2523
29038W        W45172  15.391  12.164   4.939 -0.0079 -0.1151 -0.2317
29039W        W45173   6.099   9.681  15.534 -0.4271 -0.0401 -0.0076
29040W        W45174   5.054   7.095  16.068 -0.0726  0.0119 -0.2183
29041W        W45175  15.103  13.082  14.296 -0.1064 -0.1716  0.0884
29042W        W45176   9.676   5.075   1.684 -0.1642 -0.0130  0.2138
29043W        W45177   0.171   4.442   2.744  0.0898  0.3125  0.0969
29044W        W45178  13.470   5.898  11.529 -0.2051 -0.1875  0.0003
29045W        W45179   1.739   7.865   5.722  0.0365  0.0513 -0.1200
29046W        W45180   9.241  13.275  15.128  0.1067 -0.1838  0.0485
29047W        W45181   6.058   9.927   2.280 -0.0239  0.1707 -0.3085
29048W        W45182   3.647  17.537   4.710  0.1612 -0.0133 -0.0650
29049W        W45183   4.848  12.105   4.213  0.0756  0.2336  0.0314
29050W        W45184   6.665  10.025  15.596  0.0704  0.1739  0.1752
29051W        W45185   6.990  15.371  13.504 -0.1083  0.1873 -0.1214
29052W        W45186   1.214   2.726  15.598  0.0876  0.1681 -0.1886
29053W        W45187  17.186   2.113  16.476 -0.0119  0.0727  0.0335
29054W        W45188  15.570  10.304  14.332 -0.0849 -0.1701 -0.1333
29055W        W45189  11.261   5.245   4.172 -0.2203  0.1909 -0.1055
29056W        W45190  17.212   3.662  15.014  0.1188 -0.0487  0.1852
29057W        W45191  13.608   2.694  12.950 -0.1088  0.2435  0.0288
29058W        W45192  13.704  15.984   5.947 -0.3507 -0.1580  0.1431
29059W        W45193  15.891   5.503   1.031 -0.2011 -0.2167 -0.3341
29060W        W45194   7.467  13.481   1.309 -0.0433  0.0730  0.1666
29061W        W45195   0.085   6.546   3.926 -0.1263 -0.1768  0.2406
29062W        W45196   5.818   9.308  10.950 -0.3457 -0.0611  0.2728
29063W        W45197   4.886   0.827  14.118  0.2070  0.2354 -0.0237
29064W        W45198   8.913   5.518  16.539  0.3249  0.0716 -0.0389
29065W        W45199   5.244  17.224   1.355  0.0586  0.0013  0.3945
29066W        W45200   6.149  14.935  14.942  0.1754  0.2235 -0.0409
29067W        W45201  17.706  13.193   3.535  0.2089  0.1352  0.0717
29068W        W45202  15.671   8.627   4.550 -0.1560  0.1105  0.0255
29069W        W45203   8.404  17.662  14.760  0.0229 -0.0556 -0.2109
29070W        W45204   3.666   9.340  15.439  0.0474  0.2913 -0.3646
29071W        W45205   2.616   7.791   5.153 -0.0273 -0.2042  0.0130
29072W        W45206  13.468  11.578   3.298  0.1250  0.0283 -0.1723
29073W        W45207   4.851   6.275  15.627  0.1101 -0.0943 -0.0887
29074W        W45208   0.647   7.785   2.729 -0.1307 -0.0168 -0.0500
29075W        W45209  16.900  11.469   4.756 -0.0939  0.3994  0.2568
29076W        W45210   8.502  16.094  15.221  0.1160 -0.2028 -0.0101
29077W        W45211   4.292   4.879   4.531 -0.0122 -0.2370  0.2306
29078W        W45212   8.621  13.726  16.459 -0.1335  0.0186  0.1597
29079W        W45213   9.382  13.211   4.165 -0.2638 -0.1227 -0.0188
29080W        W45214   0.969   9.767   0.909 -0.3262  0.0261 -0.0513
29081W        W45215   0.519  11.702  11.175 -0.2821 -0.1433 -0.1081
29082W        W45216  13.513  12.338  12.567  0.1724 -0.0056 -0.1024
29083W        W45217  15.984   4.974   1.064 -0.0292  0.1899 -0.1578
29084W        W45218  13.913  16.109  13.908  0.0813  0.6962  0.0624
29085W        W45219   4.791   7.904   2.070  0.0448  0.1350 -0.3041
29086W        W45220   8.996   3.527  15.196  0.2702  0.1835 -0.0002
29087W        W45221   0.375  13.687   1.887  0.0294 -0.0709  0.1312
29088W        W45222  12.533   4.577  13.182  0.1345  0.0113 -0.3649
29089W        W45223   5.593   5.926  13.744  0.2423  0.1896  0.0384
29090W        W45224   6.537  15.715  15.319  0.0647  0.0341 -0.3416
29091W        W45225   6.084   1.492   3.926  0.1311 -0.3068  0.0520
29092W        W45226   2.328   8.577  15.057  0.1874  0.0250  0.4968
29093W        W45227  15.460  10.830   4.292  0.4087  0.1009 -0.1354
29094W        W45228  15.488  12.586   0.639 -0.0749  0.1905 -0.2699
29095W        W45229  12.279  11.932   2.288 -0.1489  0.2183 -0.0659
29096W        W45230   9.449   7.913  12.277  0.1272  0.0228  0.1508
29097W        W45231  17.001   2.320  14.143 -0.0360  0.3419 -0.0840
29098W        W45232  16.155   5.788   5.540  0.2859 -0.3048  0.0623
29099W        W45233  10.271  11.483  16.114  0.0848 -0.1873  0.1172
29100W        W45234  15.091  10.920  13.844 -0.1619 -0.1276  0.1378
29101W        W45235  10.783  14.029   3.536  0.0959 -0.0946  0.0942
29102W        W45236  15.974   8.091   2.978 -0.2088 -0.0640 -0.0072
29103W        W45237   8.958   9.111   2.296 -0.3334 -0.0267 -0.0739
29104W        W45238   7.944  14.893   4.168 -0.2330 -0.2346 -0.2091
29105W        W45239  13.687   3.434   0.509 -0.2189 -0.0691  0.1611
29106W        W45240   4.163   9.895  16.042 -0.1566  0.1654 -0.1141
29107W        W45241  15.226  16.345   3.527 -0.3526 -0.0428 -0.3840
29108W        W45242   3.802   7.649   4.176 -0.2989 -0.0951  0.3006
29109W        W45243   3.470   3.987  15.143 -0.0161  0.0949 -0.0821
29110W        W45244   6.484   1.843   2.094  0.3771  0.0150  0.0502
29111W        W45245  11.651  10.848   0.404 -0.0186 -0.1371 -0.1175
29112W        W45246   4.955  16.459   1.866  0.0014  0.1899 -0.0091
29113W        W45247  13.227  11.677  12.656  0.0546 -0.2915 -0.0098
29114W        W45248  16.789   8.762   3.362  0.1519 -0.0793 -0.0890
29115W        W45249   7.464   6.416  14.777  0.0498  0.1313  0.1983
29116W        W45250   2.869   3.268   4.728  0.2259 -0.2676 -0.2130
29117W        W45251  16.612  16.903  14.079  0.0722 -0.0779 -0.1819
29118W        W45252   4.191  18.111  12.181 -0.0134 -0.2156 -0.1192
29119W        W45253  14.777  14.207   4.584  0.0731  0.0546 -0.0899
29120W        W45254   8.812  10.654   4.972 -0.1406 -0.0733  0.0650
29121W        W45255  10.935   5.590  15.462 -0.1507  0.1958 -0.2418
29122W        W45256   5.543  11.307  16.280  0.1185 -0.1743  0.2490
29123W        W45257  17.805  16.279   1.049 -0.0111  0.1079  0.0428
29124W        W45258  11.653   8.459  12.014 -0.0726  0.3137 -0.0760
29125W        W45259   7.815  10.165   0.176  0.1813  0.0163 -0.0211
29126W        W45260   6.183   5.237  16.112  0.0482  0.2876  0.0734
29127W        W45261   6.494  15.765  14.485  0.1654  0.3048 -0.2954
29128W        W45262   2.605   3.243  11.798  0.1886 -0.1086 -0.0888
29129W        W45263   6.534   5.441  11.852  0.0915 -0.0878 -0.1043
29130W        W45264  10.928  10.264  11.843 -0.1699  0.2362  0.2492
29131W        W45265  12.037  11.825   0.895 -0.0608  0.1700 -0.0376
29132W        W45266  17.252  13.924   1.045  0.1641 -0.0307 -0.0251
29133W        W45267   2.607   2.244  12.073  0.1081  0.0087  0.2031
29134W        W45268   8.903  16.466   2.320  0.0708 -0.2330 -0.1656
29135W        W45269  10.745  10.259  16.304  0.2310  0.1333 -0.0015
29136W        W45270   0.541   6.481  13.430 -0.1887 -0.2370 -0.2131
29137W        W45271  10.234  12.487  13.082 -0.0923 -0.0239 -0.2248
29138W        W45272   8.834   1.548   0.296 -0.0755  0.2512 -0.0789
29139W        W45273   8.739   9.196   4.411  0.2219 -0.0389 -0.1054
29140W        W45274   6.802   3.310   1.778 -0.1999  0.1737 -0.3761
29141W        W45275   5.904  15.311   1.476  0.0398  0.0065 -0.3770
29142W        W45276  16.558   7.187  14.518  0.0650  0.2008  0.0739
29143W        W45277   1.871  11.789   3.612  0.0157 -0.2283 -0.4177
29144W        W45278   9.616   4.974  13.465  0.0510  0.1049  0.2698
29145W        W45279   8.839   8.178  10.690 -0.2777 -0.1259  0.1277
29146W        W45280  17.273  14.242   4.767  0.1229 -0.1133  0.0614
29147W        W45281   5.179  14.619  16.136  0.1377  0.0395 -0.2747
29148W        W45282   6.467   8.910  10.609 -0.0924  0.1019 -0.0466
29149W        W45283   5.651  12.759   4.184  0.0469 -0.0752 -0.2580
29150W        W45284   2.954   8.820  16.412 -0.0155 -0.1124 -0.0396
29151W        W45285   4.494  16.472  13.845 -0.3506  0.0360  0.2480
29152W        W45286  15.600  12.740   5.128  0.1302  0.1388 -0.1881
29153W        W45287   5.362   8.727  11.506 -0.1771 -0.1454  0.0018
29154W        W45288   4.999  18.124  12.768 -0.3512 -0.1314 -0.0976
29155W        W45289   8.413   8.719   0.077 -0.1001  0.1052 -0.0075
29156W        W45290   4.682   3.828   3.660  0.1595  0.1249 -0.0061
29157W        W45291  16.403   8.969  16.293  0.3694 -0.1446  0.4190
29158W        W45292   4.120   3.722   5.324 -0.0062 -0.1928  0.0478
29159W        W45293   9.007   8.017  14.235  0.0018 -0.0152 -0.2703
29160W        W45294  15.844  17.941  14.797  0.1836  0.1987 -0.3174
29161W        W45295   1.720   7.219   4.225  0.0196  0.1498 -0.2436
29162W        W45296   8.411   4.388   2.042 -0.0084 -0.2212 -0.1494
29163W        W45297   3.287   9.865   0.206  0.2892 -0.3488 -0.0837
29164W        W45298  16.788   3.201  10.878  0.4884  0.0543 -0.0938
29165W        W45299  10.968  10.223  11.336 -0.2073 -0.2769 -0.0675
29166W        W45300   8.076  11.761  15.978 -0.1634 -0.0325 -0.1035
29167W        W45301   2.189   5.988   2.284  0.0549  0.0501  0.1223
29168W        W45302  14.689   5.508  14.792 -0.1671  0.1602 -0.0701
29169W        W45303   2.809  16.313  16.429 -0.0429  0.1998 -0.0020
29170W        W45304  11.617  11.713   3.299  0.1605  0.0291  0.2438
29171W        W45305  17.850   7.461   0.884 -0.3503  0.1509  0.1925
29172W        W45306  11.615   0.424   4.858 -0.0024  0.3352 -0.1716
29173W        W45307   6.892  14.018   5.627 -0.1198  0.0828 -0.0802
29174W        W45308   8.617   0.912  14.676 -0.2449  0.0749  0.2240
29175W        W45309  17.214  13.917   3.791  0.1154  0.0426 -0.0504
29176W        W45310  15.599  11.348  12.600 -0.3006  0.3144 -0.0098
29177W        W45311  12.104   7.111  13.501 -0.0096  0.2100  0.1314
29178W        W45312   2.519   6.181   0.528  0.3732 -0.0725 -0.0403
29179W        W45313  17.854  12.155  13.172 -0.0694 -0.0076  0.5052
29180W        W45314  13.376  17.633   5.713  0.0111 -0.1142 -0.1104
29181W        W45315  18.101   0.130  13.468  0.0475 -0.0969 -0.0273
29182W        W45316  15.363  15.047   4.485  0.2282  0.0920  0.1018
29183W        W45317   5.395  17.809  12.700 -0.1938  0.2526  0.2613
29184W        W45318   0.963   1.836  10.609 -0.0008 -0.0496 -0.1508
29185W        W45319   1.276   7.139  16.511 -0.0985 -0.2886 -0.1197
29186W        W45320  11.195   7.481  14.323  0.0341 -0.3016  0.0665
29187W        W45321   1.368   8.418  15.496  0.1417 -0.3561  0.0625
29188W        W45322   7.047  16.811  12.621  0.0116  0.1649 -0.0606
29189W        W45323  16.852  14.861  12.037  0.0711 -0.0328  0.1769
29190W        W45324  10.997  17.738  15.317 -0.1280 -0.0267 -0.0813
29191W        W45325  14.450  13.194  13.015  0.2926 -0.0937 -0.0086
29192W        W45326  13.174   1.096   2.927 -0.1890 -0.0471  0.2998
29193W        W45327  17.397  18.151   3.678 -0.0449  0.0852  0.0493
29194W        W45328   9.542  12.922  16.083  0.0345  0.1276 -0.0262
29195W        W45329  10.880  11.069   4.301 -0.0836 -0.1697 -0.1537
29196W        W45330   0.139   8.521   1.870 -0.0247 -0.0286 -0.4594
29197W        W45331   8.049   0.195  15.316 -0.3204 -0.0127 -0.1777
29198W        W45332   6.903   9.033  10.958 -0.2057  0.1189 -0.0391
29199W        W45333   6.801   7.192  14.061 -0.1035  0.1543 -0.1563
29200W        W45334  10.492  13.985  15.576  0.0747 -0.0521 -0.0367
29201W        W45335   8.449  11.730   1.761  0.0038  0.1234 -0.0089
29202W        W45336   6.444   8.863  15.432 -0.0152  0.2005 -0.1706
29203W        W45337   6.000  12.798  14.018  0.1642  0.0901 -0.2280
29204W        W45338  11.720   6.226  14.392  0.0669 -0.4570 -0.4204
29205W        W45339   5.294  11.455   1.377  0.3532  0.1042  0.0804
29206W        W45340   4.186  17.457   3.911  0.0796  0.2579  0.1876
29207W        W45341  17.322  17.977  12.830  0.1702  0.1477 -0.1637
29208W        W45342  16.286  13.217   0.470 -0.0479  0.2594 -0.2710
29209W        W45343  12.348  12.418   2.162  0.1024  0.1190 -0.0320
29210W        W45344  12.757  10.628   1.180 -0.1800 -0.2518 -0.2168
29211W        W45345   0.706   5.332   4.524 -0.0248  0.0909  0.1478
29212W        W45346   1.321   2.985   4.881 -0.2090  0.0866  0.1509
29213W        W45347  18.011   7.818  15.550  0.1078  0.0908  0.0336
29214W        W45348   2.254   8.330  16.112  0.1065 -0.0074  0.0704
29215W        W45349  16.936  17.469  13.433  0.1184 -0.0495  0.3471
29216W        W45350   4.199  12.514   0.572  0.4208 -0.0963  0.1062
29217W        W45351   2.145  11.471  13.556  0.1352 -0.1544  0.0464
29218W        W45352  10.073  13.253  11.046 -0.2559 -0.1266 -0.0604
29219W        W45353  11.869  14.378   0.911  0.2117 -0.0965 -0.0790
29220W        W45354   6.821   3.066   3.260  0.1875  0.0066 -0.1273
29221W        W45355  12.154   7.129  14.362  0.0753 -0.0524  0.1847
29222W        W45356  16.293   1.285  12.069 -0.1945 -0.3004  0.1009
29223W        W45357   7.844  17.724  11.786 -0.1517  0.0595  0.3126
29224W        W45358   0.216  11.629   5.279 -0.2447  0.0215 -0.0464
29225W        W45359   6.666  14.272  15.467  0.2082 -0.0192  0.0614
29226W        W45360   3.302   2.487   4.294 -0.1025 -0.1838  0.2098
29227W        W45361   5.762  15.642   4.541 -0.0951 -0.1981  0.0268
29228W        W45362   1.276   6.106   3.111 -0.0523  0.0557  0.1228
29229W        W45363   5.820   1.429  15.520 -0.0205 -0.0259  0.0517
29230W        W45364   6.066   6.607   0.969 -0.1389  0.1294  0.0197
29231W        W45365  13.116  11.213   4.430  0.1306 -0.2494 -0.1754
29232W        W45366   9.430  15.089  12.677 -0.1003 -0.0272  0.3022
29233W        W45367  13.253   5.470   4.577 -0.0246  0.1415 -0.0812
29234W        W45368   1.145  18.109  16.265 -0.1996  0.2536 -0.1111
29235W        W45369   3.658   2.206   3.095 -0.0503 -0.1910  0.1813
29236W        W45370   8.564  13.055  14.591  0.1270 -0.0235 -0.5220
29237W        W45371  13.906   4.255  13.229 -0.0735 -0.1058  0.0205
29238W        W45372  10.162   2.450  13.104 -0.3970  0.1937  0.0944
29239W        W45373   3.021   2.991  13.221  0.2640 -0.4474  0.2711
29240W        W45374  12.585   2.659   1.506 -0.2943  0.0389 -0.0136
29241W        W45375   3.064  14.295   1.200 -0.0392 -0.0391  0.2278
29242W        W45376  13.327  13.928  13.394 -0.0274 -0.4023  0.2089
29243W        W45377   5.613  17.627   2.207  0.1934  0.1420 -0.1730
29244W        W45378   7.546   0.503   1.709 -0.1272 -0.1522 -0.0556
29245W        W45379   9.712   6.535  13.503 -0.1802 -0.4532 -0.4080
29246W        W45380  11.781   9.695  13.624  0.3984 -0.0916  0.2591
29247W        W45381   1.984   6.070  15.676 -0.1671 -0.1212  0.4771
29248W        W45382   1.654   5.874  13.237 -0.0091  0.0292 -0.1991
29249W        W45383   1.438   0.871   3.188  0.0077 -0.2096 -0.2174
29250W        W45384  14.843   3.471  13.883  0.1891  0.1368  0.1203
29251W        W45385   5.132   5.663  12.849 -0.1780 -0.0095  0.1086
29252W        W45386  10.451  10.088   2.015  0.0568  0.1040 -0.1405
29253W        W45387   4.852   6.756  13.856  0.3922 -0.2054  0.0174
29254W        W45388  12.338  11.942  12.116 -0.1598 -0.2622  0.4114
29255W        W45389  17.491   2.246  11.585  0.2306 -0.3454  0.3621
29256W        W45390   9.650  13.395  16.386 -0.0707  0.1878  0.1247
29257W        W45391   2.531   9.643  11.094  0.0038  0.0078 -0.0261
29258W        W45392  13.903  12.948   2.776 -0.0425  0.3581 -0.2804
29259W        W45393   8.188  12.909  14.857  0.2336 -0.0218  0.2336
29260W        W45394   5.293   0.225  15.709 -0.1097 -0.1320  0.1566
29261W        W45395   7.121   9.390  14.751  0.0025 -0.0538  0.0895
29262W        W45396   4.893  14.141   3.996  0.1191  0.2179  0.0272
29263W        W45397   1.535  10.726  15.738  0.1006  0.0144 -0.0439
29264W        W45398  16.137   5.242   5.005  0.3966 -0.0001 -0.0293
29265W        W45399  13.669   9.015  11.475 -0.0936 -0.2358  0.2889
29266W        W45400  14.659  14.123  15.639  0.1528 -0.0634 -0.0313
29267W        W45401  14.025   4.704  15.440  0.0948  0.2060  0.0511
29268W        W45402  10.688   1.167  15.951  0.1976  0.0812  0.3304
29269W        W45403   7.559  12.086   2.736  0.2101  0.0887  0.2078
29270W        W45404   3.271   9.488  14.160  0.1054 -0.0258  0.1093
29271W        W45405   8.950   4.595   4.089  0.1842  0.3055  0.0196
29272W        W45406  14.913   4.610   1.715 -0.2144  0.1300  0.0486
29273W        W45407  11.106   7.805  12.706  0.0324 -0.1802 -0.4705
29274W        W45408   0.961  11.949  10.336 -0.0775  0.0154 -0.2523
29275W        W45409  12.192   9.210   5.003 -0.2405  0.1768  0.1247
29276W        W45410  13.004  17.227   3.707  0.2547  0.1993 -0.0830
29277W        W45411  15.575   9.988  13.399  0.0539  0.0735 -0.2116
29278W        W45412  13.916   0.892   1.401  0.0684  0.0405  0.3095
29279W        W45413   4.096   4.273   1.229  0.0644  0.1181  0.0702
29280W        W45414   4.505   4.274   3.492  0.0915  0.1808  0.2944
29281W        W45415  10.358  14.866  12.535 -0.1824 -0.0020  0.1905
29282W        W45416  10.007   1.771   0.693 -0.1652  0.0171  0.0958
29283W        W45417  12.782  14.118   2.762 -0.2286  0.0365 -0.0651
29284W        W45418  17.298  15.977   1.251  0.2220 -0.2507 -0.0913
29285W        W45419  13.258  14.502   4.067 -0.4941  0.2641 -0.1036
29286W        W45420   4.533   5.306   3.617  0.0263  0.0393  0.0664
29287W        W45421   2.936   2.487  15.500  0.0080  0.1341  0.0916
29288W        W45422  16.583   4.956   1.274  0.1930  0.3437  0.0813
29289W        W45423  10.538   1.332  12.255  0.0763  0.0219 -0.0857
29290W        W45424   6.539   6.441   0.295  0.0503 -0.0862 -0.4075
29291W        W45425   0.358  17.743   1.337  0.0898 -0.0710  0.0969
29292W        W45426  11.230  14.106   5.745  0.0114  0.1992 -0.0852
29293W        W45427  16.185  15.545   3.358  0.1953 -0.1820 -0.0961
29294W        W45428   0.599   9.254  14.209 -0.1901 -0.2007 -0.0566
29295W        W45429   5.916   4.514   5.257  0.0365  0.0352  0.2619
29296W        W45430   5.140   5.052   2.447 -0.0893  0.0715  0.0719
29297W        W45431  12.398   2.368   0.746  0.0258  0.0631 -0.1828
29298W        W45432   2.389  12.836   2.227  0.0750 -0.0219  0.2019
29299W        W45433   1.782  14.376   5.305  0.2747 -0.3001 -0.2215
29300W        W45434  13.847   8.211   1.656 -0.2148  0.0672 -0.1767
29301W        W45435  16.966  14.303   2.296  0.0148 -0.3377 -0.2211
29302W        W45436   6.215   5.818   4.773 -0.2677  0.2074 -0.2926
29303W        W45437  11.894  15.970   1.698 -0.0033  0.0114 -0.2180
29304W        W45438  10.390   9.455  16.472 -0.0368  0.3512  0.4551
29305W        W45439   7.757  12.091  16.236  0.1203 -0.3755  0.0465
29306W        W45440  13.846   8.839  12.939 -0.0443 -0.2447  0.0708
29307W        W45441   6.460   9.858   3.702 -0.1539 -0.2122 -0.2079
29308W        W45442  10.927   7.955   0.016  0.1528 -0.0499  0.0392
29309W        W45443   7.096   9.621  15.426  0.0036 -0.2269  0.2147
29310W        W45444   1.289   0.547  15.519  0.1573 -0.1196  0.1232
29311W        W45445  17.928  10.674  14.283  0.0844  0.2710 -0.0731
29312W        W45446   5.783   1.483   3.502  0.3187 -0.1935 -0.0736
29313W        W45447   9.231  10.623  15.924  0.1499 -0.1152  0.1972
29314W        W45448  13.717   7.962  15.516 -0.0407 -0.1820  0.0455
29315W        W45449   2.411   2.800  11.998 -0.2733 -0.1313  0.1140
29316W        W45450   5.024  16.015  11.762  0.0817 -0.2604  0.0831
29317W        W45451  10.897   9.887   2.111 -0.0938  0.1586  0.3046
29318W        W45452  15.255   3.197  14.848 -0.1111  0.1096 -0.3731
29319W        W45453  16.995   5.199  12.912  0.4057  0.3635 -0.1707
29320W        W45454   9.184   4.022   6.070 -0.0946 -0.0817 -0.0513
29321W        W45455   9.088   1.130   2.123 -0.1625 -0.0085  0.0506
29322W        W45456  15.224  14.711   1.302 -0.1127  0.0622 -0.1224
29323W        W45457  12.610  15.859   1.757  0.2239 -0.1620  0.1899
29324W        W45458   7.459  16.552   5.048  0.0881  0.2550  0.3243
29325W        W45459   6.980   4.583  15.891 -0.1053  0.0205 -0.1362
29326W        W45460  17.570  10.728  12.925  0.1530  0.0158  0.3444
29327W        W45461   5.943   7.914   3.737  0.2002  0.0062  0.2982
29328W        W45462  17.551  11.532   1.261  0.0651 -0.0474  0.1091
29329W        W45463  14.665   5.583   3.038  0.0687 -0.1207 -0.1586
29330W        W45464   1.175   0.156   5.396 -0.1243  0.3235 -0.0390
29331W        W45465  11.676   9.193  15.657 -0.0225 -0.0279  0.1106
29332W        W45466   6.796  14.016   2.897  0.0923 -0.2913  0.2903
29333W        W45467  12.216   4.789   5.340  0.1086 -0.1488  0.1837
29334W        W45468   8.965   8.454   3.263  0.1417  0.0877 -0.2160
29335W        W45469   0.757  13.054   4.320  0.1999 -0.0129 -0.0068
29336W        W45470  12.474   8.892  15.424  0.1498 -0.0545 -0.2020
29337W        W45471  16.721   4.593  12.106  0.0561 -0.2252  0.0754
29338W        W45472   2.437  15.441  15.135  0.1551 -0.1274  0.1420
29339W        W45473  14.441  15.543   4.928 -0.0006 -0.1471  0.0465
29340W        W45474   8.423  16.208  13.912  0.2351  0.4913 -0.1295
29341W        W45475   3.613   6.089  11.168  0.0304  0.3107 -0.0523
29342W        W45476   6.590  12.272  15.731 -0.0375 -0.2510  0.3677
29343W        W45477  14.388   8.767   5.932  0.1155 -0.2293 -0.0792
29344W        W45478  17.709  13.407  15.215 -0.0272 -0.0244  0.0066
29345W        W45479  10.161   4.010   4.391  0.0105 -0.2394 -0.1196
29346W        W45480  11.513   6.861   1.243  0.3444 -0.1752 -0.2500
29347W        W45481   4.297  13.668  15.313 -0.1066 -0.0614 -0.1798
29348W        W45482  10.267   3.979   2.046  0.0815 -0.1300  0.1832
29349W        W45483  13.964   4.650   0.677  0.1059  0.1594  0.2870
29350W        W45484  16.873   8.217   1.605 -0.1643 -0.1492  0.1376
29351W        W45485  10.176  14.302  12.641 -0.0416 -0.2431  0.0325
29352W        W45486  12.079   6.418   5.407  0.0477  0.0195  0.5806
29353W        W45487   3.603   4.621  15.951 -0.2751 -0.1387  0.0929
29354W        W45488  10.816  12.020   0.091  0.1872 -0.0663  0.1068
29355W        W45489   0.237   6.473  14.889  0.0261  0.1855 -0.2271
29356W        W45490   9.595   4.094  13.067  0.2689  0.0746 -0.0106
29357W        W45491  13.024   7.281   1.633 -0.1451  0.0625  0.3787
29358W        W45492   6.577  17.692  12.775 -0.2539 -0.2976  0.2253
29359W        W45493   7.006   0.983  12.742 -0.1183  0.0676  0.1878
29360W        W45494   4.135   4.708  11.113 -0.2083  0.1032 -0.0137
29361W        W45495   1.593   2.837   1.861 -0.1138 -0.0075  0.0353
29362W        W45496  13.818  14.309  15.315  0.4409 -0.2291  0.0055
29363W        W45497   8.695   1.150   1.802 -0.0287  0.0444  0.0894
29364W        W45498  16.436   8.928   3.807 -0.2042  0.1962 -0.4703
29365W        W45499  13.131  14.736  13.894 -0.0178  0.1735  0.1324
29366W        W45500   5.445  13.253   2.878 -0.0141  0.1239  0.1978
29367W        W45501  12.313   7.359  13.050 -0.1462  0.1935  0.0393
29368W        W45502   2.231   7.370  14.188  0.3331  0.2704 -0.0586
29369W        W45503   0.565  16.323  14.249 -0.0291  0.2545 -0.1274
29370W        W45504   2.155   5.772  11.760  0.2237 -0.0727 -0.0890
29371W        W45505   8.446   1.836   0.276  0.0926  0.1076  0.2878
29372W        W45506  18.107  10.440  15.344 -0.5128 -0.0432  0.1101
29373W        W45507  10.074   4.766  14.726  0.1631 -0.3386 -0.4513
29374W        W45508  15.103  17.382   0.951  0.0585  0.0275 -0.1536
29375W        W45509  15.491  13.176   3.834  0.1016 -0.1350 -0.3424
29376W        W45510  12.744   7.041  16.393  0.1807  0.0224 -0.1770
29377W        W45511   7.615  10.844   4.976  0.4030  0.0919 -0.0898
29378W        W45512  12.502  13.327   3.756 -0.0421 -0.0009  0.1860
29379W        W45513   8.721   3.199   2.463 -0.3069  0.3156  0.1580
29380W        W45514  17.058  16.206   2.230 -0.1136 -0.1986  0.0759
29381W        W45515  17.184  13.032  13.575  0.0445  0.0189 -0.2432
29382W        W45516  14.921  16.292   0.219 -0.1007 -0.1248 -0.0591
29383W        W45517   3.524   5.985   5.649 -0.2815 -0.2593  0.1307
29384W        W45518   6.369  17.588   0.525  0.0708  0.0874  0.1956
29385W        W45519  12.406   7.974   4.711 -0.0036  0.1872 -0.0365
29386W        W45520   6.723  16.414  13.073  0.0316 -0.3780  0.0626
29387W        W45521   1.771   6.030   1.850 -0.1005  0.1385  0.0513
29388W        W45522  12.005   6.201  11.997  0.2171 -0.0664 -0.2418
29389W        W45523  17.602   8.407   2.579 -0.2623  0.1111  0.2617
29390W        W45524   3.702  14.688  14.522 -0.0028 -0.0333 -0.1243
29391W        W45525   0.576  11.153   4.016 -0.0321  0.0827 -0.3354
29392W        W45526   0.316  14.836   5.617  0.0875  0.2138  0.3037
29393W        W45527   1.702   8.342  11.227  0.1255  0.2185  0.2342
29394W        W45528   8.505  15.257  14.030 -0.0775  0.1202 -0.2383
29395W        W45529   9.708  16.574   0.976  0.1024  0.1395 -0.0486
29396W        W45530   1.136   4.207   5.527 -0.0974 -0.1650 -0.2543
29397W        W45531   0.135   5.921  11.325  0.0199  0.2210  0.0362
29398W        W45532   5.698   6.355   1.949  0.1591  0.0497 -0.0515
29399W        W45533  14.237  12.336   4.210 -0.1044 -0.1396  0.1364
29400W        W45534   6.618   2.790  15.396  0.1857  0.0669 -0.0163
29401W        W45535   4.737   1.843   2.333  0.0761  0.1406  0.0281
29402W        W45536   1.126   0.424   3.017 -0.1233 -0.3622  0.0975
29403W        W45537  15.730  11.827   3.172 -0.2373 -0.0277  0.0901
29404W        W45538   1.762  16.079  15.678  0.0608 -0.1278  0.2438
29405W        W45539   2.596  15.442   4.162  0.1486 -0.2467  0.0510
29406W        W45540   1.102  11.052   2.503 -0.1486  0.1332  0.1584
29407W        W45541  17.400  17.226   0.038  0.1471  0.1331 -0.0365
29408W        W45542  12.519  11.006  15.287 -0.1447  0.2290 -0.0410
29409W        W45543   9.275  10.868  13.314 -0.0532 -0.1544  0.1507
29410W        W45544  14.769   6.677  10.427 -0.2415  0.1347 -0.1209
29411W        W45545   6.163   9.016   2.811 -0.0491 -0.1195  0.1998
29412W        W45546  14.344  13.568  14.183 -0.0036 -0.1511  0.0299
29413W        W45547  10.661  13.193   3.494 -0.1663  0.0179 -0.1380
29414W        W45548   1.274   4.620   1.815  0.3299  0.2044  0.0516
29415W        W45549  13.625   6.760  12.913 -0.2236 -0.2984  0.1082
29416W        W45550   8.167  11.478   1.460  0.2081  0.0328  0.0677
29417W        W45551  11.939   9.178  14.912 -0.0670  0.2524 -0.0503
29418W        W45552  10.878  13.538  16.290  0.3538 -0.0173  0.1680
29419W        W45553  13.034   6.832   5.248 -0.1257 -0.1408 -0.2824
29420W        W45554  16.291  16.157  11.830 -0.1601 -0.1424  0.0026
29421W        W45555  14.519   6.861   2.873  0.0864  0.2908  0.0600
29422W        W45556  16.623   9.495   2.169  0.4323  0.1271  0.1013
29423W        W45557   6.712  11.075   1.599  0.0170  0.0993  0.0741
29424W        W45558   0.242   4.112  14.351  0.1106 -0.2614  0.3172
29425W        W45559   2.618  16.965  13.815  0.1350  0.4470 -0.0611
29426W        W45560   6.738  12.176   1.546  0.3091  0.2189 -0.0238
29427W        W45561   2.341   7.308   2.865  0.3514  0.1503  0.2907
29428W        W45562  11.235   5.472   4.769 -0.0382  0.1407  0.0915
29429W        W45563   7.230   0.482   3.001  0.1832  0.0091 -0.1195
29430W        W45564   0.168  16.557  13.630  0.0993  0.1384  0.0108
29431W        W45565   8.390  17.834  13.679 -0.1974 -0.2364 -0.2307
29432W        W45566   4.391  11.305   4.266  0.2952  0.1449 -0.2228
29433W        W45567   3.020   9.975  12.743 -0.0825  0.0574  0.0801
29434W        W45568   2.912   7.483   3.761 -0.0757  0.3330  0.4719
29435W        W45569   4.259  15.908   3.819 -0.1788  0.2108  0.2957
29436W        W45570  18.117  16.300   0.313 -0.2286 -0.2990 -0.0687
29437W        W45571   4.945  11.429   4.178  0.1869  0.2565  0.1229
29438W        W45572   2.712   2.912   2.581 -0.2634  0.2483 -0.0613
29439W        W45573  16.309  16.670  15.092 -0.2277  0.0564  0.3424
29440W        W45574   0.182   0.978  13.990 -0.2506  0.1858 -0.4286
29441W        W45575   0.595   9.733   1.994  0.2457 -0.2984 -0.0575
29442W        W45576   6.715   4.399  15.479  0.1079  0.2827 -0.0956
29443W        W45577  16.720  12.193   3.490 -0.0566 -0.1118  0.2077
29444W        W45578   1.837  10.510   3.095  0.0694  0.1934 -0.0350
29445W        W45579  17.554  14.515   5.134  0.1687  0.4563 -0.1019
29446W        W45580  10.021   7.900  14.000  0.2444 -0.0340 -0.1329
29447W        W45581   0.545  16.776  16.297 -0.1390 -0.0614 -0.0987
29448W        W45582  12.264   2.709  12.041  0.1998 -0.0977 -0.1790
29449W        W45583  12.661   0.030  13.163 -0.1587  0.1268  0.0399
29450W        W45584  12.619   6.175  11.360  0.4825 -0.0711 -0.0793
29451W        W45585   3.761  17.280   3.670  0.0441 -0.0744 -0.0015
29452W        W45586   7.121   6.284   4.770 -0.0516  0.0165 -0.1029
29453W        W45587  13.304  10.624  14.566  0.3493 -0.1320  0.0191
29454W        W45588  12.678  13.439  12.609 -0.0815  0.3536 -0.2246
29455W        W45589   2.192   0.664  15.799 -0.3445  0.1876  0.2503
29456W        W45590  10.513   2.025  14.832 -0.1702 -0.0438  0.0365
29457W        W45591   5.770   3.834  15.707  0.0306 -0.2747 -0.2993
29458W        W45592   6.031   2.974   6.255 -0.2224 -0.3876  0.0706
29459W        W45593  13.582  11.831  13.586  0.2071  0.0286  0.2205
29460W        W45594  13.785   0.435  11.760  0.2619  0.0693  0.0969
29461W        W45595   2.295  11.468   2.927  0.1682 -0.0721 -0.1792
29462W        W45596   5.270   5.481  14.557 -0.0506  0.0822 -0.0794
29463W        W45597   6.305  16.217   4.847  0.3760 -0.0672  0.2370
29464W        W45598  13.901  15.974  14.412  0.4951  0.4176  0.0640
29465W        W45599   0.771   2.718   2.108  0.1205 -0.0224 -0.0223
29466W        W45600  17.389   0.139  15.734  0.2225 -0.3945  0.0192
29467W        W45601   5.156   1.616   3.035  0.2327 -0.2579  0.0514
29468W        W45602   9.221   8.472   4.318  0.0732 -0.0223  0.0591
29469W        W45603  16.635  16.792  12.384 -0.1615  0.2417 -0.0947
29470W        W45604   3.488   0.259  13.120 -0.1948 -0.0311  0.2022
29471W        W45605  16.338  14.787   3.748  0.0748 -0.0990  0.1452
29472W        W45606  15.786   8.276   1.469  0.2268 -0.0764  0.1613
29473W        W45607  13.210  16.436  14.058  0.1150  0.5306  0.0675
29474W        W45608   7.488   7.976  12.919 -0.0029 -0.3188 -0.0669
29475W        W45609  10.880  13.020   0.564 -0.1098  0.0972 -0.1453
29476W        W45610   9.536   1.022  14.241 -0.1251  0.1212 -0.4496
29477W        W45611  17.320   6.386  14.821  0.0084 -0.1976  0.1614
29478W        W45612   1.340   6.037   4.452  0.0643 -0.0916  0.1657
29479W        W45613   8.036  10.484  14.904 -0.1496  0.1208  0.0637
29480W        W45614  17.562   0.607   0.164  0.3433 -0.0991 -0.0734
29481W        W45615  14.577  11.089   3.769 -0.1546  0.0477  0.1153
29482W        W45616   7.507   4.786   5.190 -0.2631  0.2575  0.0337
29483W        W45617   1.428   9.622   4.129 -0.0085 -0.0998  0.2078
29484W        W45618   4.477  16.766   5.617  0.2440 -0.1800 -0.0266
29485W        W45619  13.688   4.680   2.112 -0.0158  0.1565  0.0118
29486W        W45620   6.330  16.679  11.551 -0.2821 -0.1060  0.0590
29487W        W45621  16.774  18.016   3.795 -0.0267 -0.1900  0.2790
29488W        W45622   4.952   4.292   4.332 -0.1836  0.2548  0.0301
29489W        W45623  18.174   5.978   5.146 -0.1427  0.2755 -0.2108
29490W        W45624  18.175  13.596  14.092 -0.1115  0.1032  0.0061
29491W        W45625  11.798  16.530   1.807  0.2467 -0.0020 -0.0453
29492W        W45626  14.767   4.105  12.258  0.3528  0.1126  0.0992
29493W        W45627   8.524   1.976  16.020 -0.0164 -0.1167 -0.4066
29494W        W45628  16.233  10.005  14.653  0.0276 -0.1433 -0.0272
29495W        W45629   2.367   3.596   5.161  0.1476 -0.0573  0.0829
29496W        W45630  16.338  17.443  16.356 -0.2457  0.2958  0.0461
29497W        W45631  10.106   7.498  12.526  0.0028 -0.2672 -0.1292
29498W        W45632  16.853   1.828  12.881 -0.3648 -0.1196 -0.0085
29499W        W45633   4.229  11.481   0.554  0.3227  0.2608 -0.2889
29500W        W45634   2.445   6.500  11.454  0.0674  0.1030  0.1351
29501W        W45635  11.723  14.659   4.690  0.2237 -0.0695  0.2270
29502W        W45636   9.604   2.083  12.358 -0.0394 -0.2323  0.1483
29503W        W45637  15.135   1.429  13.428 -0.0647 -0.1721 -0.2023
29504W        W45638   8.281   1.352   2.506  0.1174  0.0089  0.0684
29505W        W45639   1.945  13.512  16.450  0.1916  0.0546 -0.0745
29506W        W45640   8.700   7.800   2.933  0.1682 -0.0719 -0.2000
29507W        W45641   5.735   6.853   5.080 -0.0254 -0.0154  0.0964
29508W        W45642   4.274  14.917  11.694 -0.2847 -0.0440 -0.0115
29509W        W45643   7.650  10.258  15.399  0.0232  0.1234  0.0872
29510W        W45644   3.142   6.409  14.022 -0.3489  0.1429  0.1914
29511W        W45645  10.557  12.842   4.306 -0.1808 -0.2134  0.2414
29512W        W45646   7.197  14.115  12.984 -0.0759  0.2491 -0.2479
29513W        W45647  10.264   3.775  13.075 -0.2432 -0.2429  0.0584
29514W        W45648  14.570  11.845  16.321  0.0248 -0.0598 -0.0421
29515W        W45649  13.185  14.077   4.407  0.0008 -0.1674  0.1327
29516W        W45650   3.979   6.303   1.564 -0.1869 -0.1711 -0.0768
29517W        W45651  16.616   0.541  12.900  0.0991  0.2378  0.0906
29518W        W45652   3.818   0.781   0.363  0.0879 -0.1706 -0.3903
29519W        W45653   5.710  10.102   1.607  0.1501  0.0442 -0.1111
29520W        W45654  10.127   1.308  12.666 -0.1592 -0.3578 -0.1861
29521W        W45655  15.918  13.422  10.618  0.3275  0.1581 -0.3092
29522W        W45656  14.979   9.345   5.099  0.3050  0.2585  0.2005
29523W        W45657   7.178  13.986  11.744 -0.0710  0.3901  0.0886
29524W        W45658  16.560  12.605  11.382  0.1947  0.1575  0.3916
29525W        W45659   1.258  17.890   4.769  0.2765  0.0805  0.1449
29526W        W45660  15.843   3.851   5.518 -0.0919 -0.1792  0.0564
29527W        W45661   0.782  13.194  15.312  0.0212  0.1666  0.0227
29528W        W45662   3.724  17.945  14.615 -0.0595 -0.1807  0.2912
29529W        W45663   2.713   1.164  11.778 -0.0780 -0.2097  0.2477
29530W        W45664  14.103   7.875  13.431 -0.0325 -0.1878 -0.0635
29531W        W45665  14.711   9.916   1.134  0.1554 -0.3987 -0.1831
29532W        W45666   3.300  16.962   3.459  0.3331 -0.0589  0.1811
29533W        W45667   0.644   6.424   1.123  0.0017  0.1459  0.1855
29534W        W45668   7.345   5.237   3.712 -0.0727  0.1595 -0.3517
29535W        W45669  18.159  14.120   5.604 -0.0232 -0.0692 -0.0708
29536W        W45670  14.535  15.528   0.443  0.0223 -0.1813  0.1326
29537W        W45671  16.814   0.494   2.238  0.2344 -0.3911  0.1933
29538W        W45672   8.012   1.633  14.673 -0.0391 -0.3928  0.3947
29539W        W45673   0.239  15.069   0.509 -0.1690 -0.0397  0.1083
29540W        W45674  13.198  16.340   4.238 -0.0969  0.0099  0.1249
29541W        W45675  12.976  11.304   5.702 -0.1842 -0.0861 -0.0727
29542W        W45676  12.322  16.114  12.140  0.0651 -0.0641 -0.2955
29543W        W45677   9.782  12.795  11.604  0.0244 -0.0804 -0.0804
29544W        W45678   0.331  12.913  13.627 -0.0003 -0.2289 -0.0569
29545W        W45679   5.882  10.492  14.632 -0.1712 -0.1336 -0.1802
29546W        W45680   8.972   8.882   0.007 -0.0585  0.0013  0.2589
29547W        W45681   4.807  10.566  11.894 -0.0810 -0.1733 -0.1001
29548W        W45682   6.940   6.187   2.165 -0.0021 -0.0604  0.1875
29549W        W45683   3.073   7.655   1.955 -0.0532  0.1237 -0.0264
29550W        W45684  10.031  10.020  15.932 -0.1088 -0.1093 -0.3820
29551W        W45685   6.263  14.333   3.212 -0.1653 -0.1146 -0.1449
29552W        W45686   9.480   0.096  13.962 -0.2352  0.0341 -0.3829
29553W        W45687  15.813   8.267  15.544 -0.0107 -0.0604  0.1386
29554W        W45688   6.328   3.539   2.376 -0.2473  0.0743  0.1569
29555W        W45689   5.754   0.698  14.825  0.2919 -0.2246  0.1078
29556W        W45690  10.342   4.176  14.927 -0.1565 -0.0657 -0.0214
29557W        W45691  13.085   9.568  12.089  0.2915 -0.0939  0.1126
29558W        W45692  17.867   0.795   3.206  0.4798  0.1732  0.2515
29559W        W45693  11.993   2.379  12.471 -0.0846  0.1031 -0.1433
29560W        W45694   8.779  16.907  11.736  0.1168  0.1311  0.0695
29561W        W45695  16.384   9.959   2.887  0.1964  0.1815 -0.2518
29562W        W45696   1.979   5.294   0.688 -0.0098 -0.0374  0.1249
29563W        W45697  17.957   4.474  11.070 -0.0136  0.0636  0.1809
29564W        W45698   6.063  17.867  13.488  0.1944 -0.2479 -0.1687
29565W        W45699  10.490  15.274   3.312 -0.0790 -0.1144 -0.0840
29566W        W45700   1.421  16.241  16.081 -0.3461  0.3710  0.1894
29567W        W45701  15.208   6.635   0.208  0.3557 -0.1476 -0.1789
29568W        W45702   1.808   6.921   2.002  0.0174 -0.0765 -0.0760
29569W        W45703  13.633  15.924  16.461 -0.4174  0.2776  0.0321
29570W        W45704  15.085  11.301   3.919  0.1212 -0.0674 -0.0953
29571W        W45705   4.887   1.746  11.563 -0.1305  0.1153 -0.0370
29572W        W45706   2.238  16.231   2.050  0.1868 -0.2032  0.0508
29573W        W45707  13.314  11.063   2.272  0.0891  0.0357 -0.0196
29574W        W45708  17.310   5.617   2.181  0.2205 -0.0705 -0.1134
29575W        W45709   2.013   7.725   3.687  0.0605  0.1383  0.0862
29576W        W45710   4.347   0.207   4.871  0.1353  0.1425  0.2310
29577W        W45711   5.931   7.429  15.035 -0.2038  0.0944 -0.1263
29578W        W45712  14.588   8.655  13.402 -0.0033  0.0582  0.0770
29579W        W45713   2.686   1.269  13.088  0.0121 -0.0025  0.6146
29580W        W45714   1.296   3.524   4.829  0.1826  0.0145  0.0517
29581W        W45715   0.976  10.526   4.509  0.1147 -0.1134  0.0093
29582W        W45716   8.749   2.071  16.449  0.2322 -0.1638 -0.0153
29583W        W45717   5.759  11.434  15.862 -0.2784  0.1745  0.0922
29584W        W45718   6.618   1.787  13.828  0.1005  0.1698  0.2436
29585W        W45719  17.479   3.938   3.866  0.0912  0.0857  0.1513
29586W        W45720   4.119  12.313  13.414 -0.0104 -0.4027 -0.2300
29587W        W45721   9.825  17.761   4.484 -0.1495 -0.1628  0.1300
29588W        W45722   1.650   4.732  14.404  0.3651  0.1143 -0.2790
29589W        W45723  14.372   6.022  16.420 -0.1763 -0.0511  0.0580
29590W        W45724   6.006   6.126   2.290 -0.3762 -0.0886 -0.0732
29591W        W45725  11.414   4.861  12.501 -0.3902 -0.1500  0.1442
29592W        W45726   8.199   5.339   1.751  0.0904  0.3137 -0.0198
29593W        W45727  10.126  17.395  14.581 -0.2592 -0.0759  0.1374
29594W        W45728   7.771   8.517  14.978 -0.0987 -0.1363 -0.1398
29595W        W45729   7.455   3.091  12.896  0.2758  0.1356 -0.0170
29596W        W45730  15.265   4.730   5.551 -0.2892 -0.0243 -0.1214
29597W        W45731  12.772   9.338   0.449 -0.0570  0.2312 -0.0376
29598W        W45732  13.460  17.524   0.146  0.0922  0.1568 -0.0994
29599W        W45733  17.613   8.553  13.224 -0.1189  0.2314  0.0659
29600W        W45734   5.140   5.755  13.519 -0.0001  0.2985 -0.0193
29601W        W45735   7.639   6.275   1.023 -0.0784  0.2110  0.4573
29602W        W45736   4.782   7.181  14.884 -0.0260  0.0955  0.1742
29603W        W45737   2.420  16.558   4.476  0.2018 -0.0843  0.2235
29604W        W45738  15.497   2.391   0.648 -0.1625  0.2228  0.0960
29605W        W45739  10.204  12.524   1.083 -0.2245  0.1016  0.1457
29606W        W45740   4.312  16.026  13.979 -0.1203 -0.1079 -0.3124
29607W        W45741   5.711   1.102  16.286  0.2215 -0.1177  0.2289
29608W        W45742  11.234   3.183   0.295  0.0012 -0.0746 -0.2306
29609W        W45743   1.209   8.402   3.694  0.0567 -0.1452 -0.0792
29610W        W45744  10.907   7.376   2.420 -0.2148 -0.1145 -0.0716
29611W        W45745  17.712   5.287   0.098 -0.1075 -0.0055 -0.1536
29612W        W45746   6.421  11.298   1.244 -0.0759  0.0853 -0.1770
29613W        W45747   7.751  12.240  14.524  0.0759 -0.2754 -0.2290
29614W        W45748  11.559  15.743  12.649 -0.4526  0.0668  0.0450
29615W        W45749   4.156  16.977   3.558 -0.2585  0.1488 -0.1181
29616W        W45750  10.638  16.721   3.841 -0.1493  0.4061 -0.4730
29617W        W45751  16.992  10.152   2.958 -0.1420 -0.0175 -0.1569
29618W        W45752  16.496   1.046  12.587  0.3064  0.1693 -0.1220
29619W        W45753   3.784   4.991  12.582  0.1077 -0.0524 -0.1661
29620W        W45754  15.450   2.659  12.064  0.1085 -0.2094 -0.1246
29621W        W45755   1.018  13.757   5.112 -0.0273 -0.0290  0.1441
29622W        W45756  13.478   3.963   1.465  0.0905  0.0322 -0.1446
29623W        W45757  17.946   7.064  13.639 -0.0857 -0.1345  0.2328
29624W        W45758   4.535  12.929   5.489  0.0965  0.0559 -0.2612
29625W        W45759   3.216  11.245   1.390 -0.0386 -0.0763 -0.4325
29626W        W45760   1.746  10.874  13.049  0.1651 -0.0112  0.1203
29627W        W45761  15.604   5.995  15.553  0.3748  0.0183  0.0609
29628W        W45762   3.981  18.136   5.293 -0.1524 -0.1529 -0.5970
29629W        W45763   5.859   0.947  12.271  0.0528 -0.2369 -0.1592
29630W        W45764  11.912  16.052  13.921 -0.0863 -0.0068  0.1848
29631W        W45765   9.217  17.239  12.013  0.2934  0.2309  0.3429
29632W        W45766  13.963   4.699  12.394 -0.0164  0.1606  0.2798
29633W        W45767  14.300  17.109  14.053  0.2632 -0.2103  0.3134
29634W        W45768  18.159  11.193   5.337 -0.0001  0.0318 -0.2552
29635W        W45769  11.185  10.575   4.054  0.0165  0.0120  0.1560
29636W        W45770  12.656   9.350   2.150 -0.1468 -0.0115  0.0736
29637W        W45771  11.293  12.715  16.019  0.4851 -0.0689 -0.1042
29638W        W45772  11.568   9.130   4.509 -0.0152  0.0746  0.0881
29639W        W45773   6.680   0.327   2.959 -0.0671 -0.0738  0.0919
29640W        W45774  16.177   2.812   4.823 -0.0660 -0.0613  0.1225
29641W        W45775   0.039  12.477  14.754  0.0691 -0.1102 -0.1235
29642W        W45776  12.402  17.325   5.419 -0.2912 -0.2472  0.1867
29643W        W45777   1.015  10.474   2.594 -0.0353 -0.2131  0.0660
29644W        W45778   4.546   1.937   3.177 -0.3159  0.4789 -0.2964
29645W        W45779  14.677   2.448   0.649  0.0180  0.0175  0.3529
29646W        W45780   7.346   1.752   2.883 -0.3159  0.0805  0.0070
29647W        W45781   9.989   8.408   2.688 -0.0167 -0.0346  0.0830
29648W        W45782   5.888  13.247  14.858  0.2468  0.0658  0.2742
29649W        W45783   7.991   5.565  12.289 -0.0760 -0.1694  0.0937
29650W        W45784   4.780   8.421   5.081  0.0069 -0.2366 -0.0924
29651W        W45785   8.044   0.335   1.100  0.0394 -0.1248  0.1919
29652W        W45786  12.422  17.113  12.211 -0.0322 -0.2493  0.2177
29653W        W45787   1.081   5.366  14.938  0.1667  0.0649  0.0675
29654W        W45788   8.221   3.414  10.985 -0.0375 -0.3537 -0.0970
29655W        W45789  13.868  16.937  10.945  0.0949 -0.0713  0.4199
29656W        W45790   0.421   6.981  15.366  0.0868 -0.0086 -0.2374
29657W        W45791   6.161   2.561  13.169 -0.2123 -0.1206  0.0999
29658W        W45792  18.082  17.684   4.211  0.2020  0.1057  0.0371
29659W        W45793  12.923  15.756  13.148  0.0284 -0.1414 -0.1212
29660W        W45794  14.897  12.496  12.167 -0.0563  0.1607  0.1197
29661W        W45795  17.555  10.476  11.657 -0.1990  0.0378 -0.1061
29662W        W45796   0.107   5.231  13.712  0.1540 -0.2441 -0.0839
29663W        W45797  13.306   1.115   1.468 -0.2379 -0.1396 -0.1055
29664W        W45798  12.199  10.205   2.523  0.1840  0.0414 -0.0381
29665W        W45799  14.170   1.131   4.876 -0.1123 -0.1690 -0.1115
29666W        W45800  11.045  12.285  10.940  0.0235  0.1761 -0.1814
29667W        W45801  15.075   0.247  14.672 -0.2279 -0.0198  0.2958
29668W        W45802   8.496   5.855  15.276  0.0429 -0.1286  0.0995
29669W        W45803   5.905  13.598  12.170 -0.2470 -0.0344 -0.1794
29670W        W45804  12.946   8.686   9.729  0.1172  0.1795 -0.2577
29671W        W45805   3.533   8.808  14.566  0.0791 -0.0870  0.0081
29672W        W45806   9.567   4.330   3.342  0.0588 -0.0947  0.0580
29673W        W45807  14.572   0.635   5.796  0.1165  0.0255  0.2569
29674W        W45808   3.669  10.733   4.355 -0.0846  0.0963 -0.1467
29675W        W45809  12.475   3.600  11.926 -0.2258 -0.0205  0.0889
29676W        W45810   5.438   4.412  13.048 -0.3607 -0.1036  0.0893
29677W        W45811  14.437  10.105   1.505  0.0758  0.0933 -0.3146
29678W        W45812  17.978  14.552  11.722  0.0806 -0.1623 -0.0338
29679W        W45813   1.895   2.053  15.776 -0.2072 -0.2092 -0.4465
29680W        W45814   8.830  15.963  11.868 -0.1877 -0.3269  0.2070
29681W        W45815   3.813  11.202   0.185 -0.1955 -0.1321 -0.1139
29682W        W45816   1.064  12.516  12.269  0.1184  0.4033 -0.0700
29683W        W45817  15.803  17.409   4.554 -0.3050  0.0913  0.3612
29684W        W45818   8.174  10.728   4.136 -0.2379 -0.0320  0.1742
29685W        W45819   3.888  18.122   1.917 -0.0561  0.2518  0.1416
29686W        W45820  11.430   9.991  13.189 -0.2184  0.1858  0.1005
29687W        W45821   3.043   2.266  16.530 -0.0949 -0.0634 -0.0826
29688W        W45822  14.432  11.543  15.901  0.1015 -0.0463 -0.0405
29689W        W45823  11.406  13.502   0.056  0.0250  0.2607 -0.0086
29690W        W45824  14.178  15.808  13.607  0.0717  0.1032 -0.1444
29691W        W45825   2.437   2.781   3.856 -0.1037 -0.0839 -0.0529
29692W        W45826  11.084  10.381   1.941 -0.2161  0.2906  0.0597
29693W        W45827  12.383  12.410  13.477 -0.0949  0.0725 -0.1831
29694W        W45828  11.843   9.985   2.245 -0.1732  0.2543 -0.1224
29695W        W45829   2.277  17.606   0.872  0.1404 -0.1951  0.2349
29696W        W45830  12.795  15.567  13.631 -0.2594  0.1664 -0.0607
29697W        W45831  17.161  11.346  12.960 -0.0513  0.1166  0.2091
29698W        W45832  14.646  17.178   3.042  0.2360  0.1616 -0.0949
29699W        W45833   1.441   3.056   4.385 -0.1931  0.0512  0.2198
29700W        W45834   5.827  13.352   3.320  0.0432 -0.0919  0.0663
29701W        W45835   8.290   3.503   0.441  0.1064  0.0087  0.2703
29702W        W45836   3.344   6.123   4.668 -0.0904  0.0393 -0.3261
29703W        W45837  17.327  14.734  12.195  0.1692  0.1004 -0.2093
29704W        W45838  12.966  13.747   2.508  0.0519 -0.0786 -0.1640
29705W        W45839  16.154  17.538  15.909 -0.2213  0.0170 -0.3198
29706W        W45840  14.472  17.676  16.334  0.0344 -0.1583  0.2258
29707W        W45841  13.847  14.588   5.823  0.2911  0.1125 -0.0357
29708W        W45842   8.473  11.494  15.237 -0.0793 -0.2465  0.0121
29709W        W45843   2.609   7.746   0.839  0.1122  0.0837 -0.3083
29710W        W45844   6.280  16.105  12.416  0.0604  0.0079  0.0995
29711W        W45845  10.023   6.574  10.664  0.1023  0.2393 -0.0991
29712W        W45846   0.596  15.555  15.437 -0.0553 -0.0018  0.0826
29713W        W45847  11.608  11.160  12.891 -0.0931  0.1437 -0.1405
29714W        W45848  15.438  15.857  12.665 -0.2287  0.0317 -0.1079
29715W        W45849  10.118  10.929   1.344 -0.2928 -0.0221  0.2309
29716W        W45850  10.526  14.537  11.596 -0.0975 -0.0440  0.0195
29717W        W45851   4.556  15.456   3.000 -0.3492 -0.0346  0.2423
29718W        W45852  14.165  16.874   5.811 -0.3353  0.2705 -0.1544
29719W        W45853   1.275   3.260   0.531  0.1273  0.1242  0.1381
29720W        W45854   7.123  10.487   9.918 -0.1310  0.0217 -0.2650
29721W        W45855  11.638  16.146   2.107 -0.1529 -0.1438 -0.2379
29722W        W45856   0.487  14.492   2.363  0.2291  0.0505 -0.1843
29723W        W45857   3.257   0.995  12.424  0.1990  0.2452  0.1193
29724W        W45858  14.401  15.391  13.943 -0.2582 -0.0746  0.2619
29725W        W45859   1.968  14.368   0.808 -0.3351 -0.0253  0.1765
29726W        W45860  17.376   4.524   2.384  0.0465  0.0591 -0.2373
29727W        W45861   5.308   2.255   1.084 -0.0043 -0.1240  0.0409
29728W        W45862   5.856  15.870   5.781 -0.1478  0.3869 -0.1380
29729W        W45863   9.837   6.853  16.073  0.0990  0.2322  0.0125
29730W        W45864  17.768   6.111  12.979 -0.1195  0.3120  0.4088
29731W        W45865   7.736  13.830   3.131 -0.0153 -0.0058  0.1153
29732W        W45866  14.032  17.679   6.127 -0.0376 -0.2198 -0.1853
29733W        W45867   8.831  12.059  10.674 -0.0904  0.3682 -0.2103
29734W        W45868  10.871   0.633  14.234  0.0903  0.1838  0.0707
29735W        W45869   8.919  12.881  15.462  0.2385 -0.2387  0.3617
29736W        W45870   1.049   5.439   1.968  0.3536  0.1307  0.2271
29737W        W45871  12.433   4.231  13.968  0.0986  0.3654 -0.1157
29738W        W45872   6.868  16.862  16.134 -0.1569 -0.2329  0.3274
29739W        W45873  16.188  10.648   2.517 -0.0973  0.0661 -0.0441
29740W        W45874   8.681   9.525  14.671 -0.1391 -0.1862  0.2143
29741W        W45875   1.383   2.772   1.225  0.1519  0.1177  0.0668
29742W        W45876  17.235   9.476  15.194 -0.0770  0.2890 -0.0572
29743W        W45877   6.176  17.183   2.753  0.3203  0.2779 -0.1184
29744W        W45878  14.420  11.897  12.530  0.4095 -0.1058  0.3530
29745W        W45879  11.910  10.569  14.584 -0.0518 -0.0202  0.2490
29746W        W45880   1.640  13.706   4.249  0.0837 -0.2371 -0.1327
29747W        W45881   9.505  13.272  11.850  0.0220 -0.1269  0.1861
29748W        W45882  18.167   3.715   5.126 -0.1343  0.3103  0.3906
29749W        W45883  13.028  18.089   4.029  0.1015  0.0497 -0.0411
29750W        W45884  17.721   0.941   1.594  0.1112  0.0651  0.1605
29751W        W45885  15.946   6.821   3.947  0.1873 -0.4002  0.1681
29752W        W45886   9.597   3.424  12.587 -0.0973  0.2844 -0.2293
29753W        W45887  12.056   8.178   0.678  0.1543 -0.1062  0.0556
29754W        W45888  15.496  12.144   1.811 -0.0911  0.0546  0.0670
29755W        W45889   4.469  11.916   1.848 -0.0364 -0.0172  0.0336
29756W        W45890   1.850   9.355  15.415 -0.0477  0.1216 -0.0784
29757W        W45891   7.564   5.779   1.081  0.2715  0.0651 -0.1065
29758W        W45892   0.268  11.354  10.835 -0.0733  0.2673 -0.1417
29759W        W45893  16.544   5.528  13.139 -0.0915 -0.1241 -0.0053
29760W        W45894   4.406   2.257  13.822 -0.0426 -0.0742  0.1191
29761W        W45895  11.708   6.110   0.358 -0.0563 -0.1682  0.2213
29762W        W45896   4.561   3.333   3.589  0.2041  0.0060  0.4463
29763W        W45897  14.800   9.105   4.690  0.2592  0.2746 -0.0058
29764W        W45898   1.488   8.384  12.634 -0.1639 -0.1172  0.3159
29765W        W45899  16.602  15.090  15.248 -0.0775  0.2272  0.0120
29766W        W45900  14.847   8.841  13.009  0.0306  0.1328  0.0233
29767W        W45901   5.920   9.735   4.081 -0.1057  0.1331 -0.0874
29768W        W45902  13.433   2.191   1.015  0.1737  0.0889 -0.2201
29769W        W45903   2.753   7.412  15.400  0.1382  0.3149 -0.0681
29770W        W45904   7.590   7.037  14.126  0.3046 -0.1910 -0.0594
29771W        W45905   6.329  16.259  14.353 -0.0821 -0.0328 -0.0151
29772W        W45906  15.850  13.883   5.633  0.0474  0.1123  0.2847
29773W        W45907  14.754   4.523  13.026 -0.0019  0.0083  0.0635
29774W        W45908   7.313  12.556   1.960  0.0420 -0.2946 -0.3194
29775W        W45909   8.961  14.337  14.192  0.2770  0.0527 -0.1990
29776W        W45910   8.082   8.326   0.151 -0.3061 -0.1488  0.1292
29777W        W45911  15.765   4.206  15.976  0.0993  0.0619 -0.1111
29778W        W45912   0.369   2.076  15.780  0.1580 -0.4305  0.2442
29779W        W45913   1.658   6.417  16.003  0.1009  0.4388  0.0060
29780W        W45914  14.321   9.171   0.954  0.1108  0.2497  0.0100
29781W        W45915  16.211   5.440   3.751  0.1691  0.1839 -0.3247
29782W        W45916   4.357   3.411  11.590  0.2528 -0.2437 -0.3930
29783W        W45917  15.686  14.244  13.826  0.1081  0.0292 -0.2090
29784W        W45918  11.948   6.456   3.801  0.1310 -0.2061  0.1812
29785W        W45919   9.279   5.071   3.958 -0.1353  0.3498  0.0947
29786W        W45920  13.105  17.116   1.237  0.0855 -0.1372 -0.1071
29787W        W45921   3.929  12.267   4.643 -0.0635 -0.1279  0.0420
29788W        W45922   5.226   3.711   2.309 -0.2758 -0.2292 -0.3285
29789W        W45923   6.517   2.279  13.534  0.2764  0.2138  0.3179
29790W        W45924   2.370  13.273  12.124 -0.3625 -0.1475  0.3194
29791W        W45925   6.919   5.563   4.726 -0.1199  0.0413  0.1557
29792W        W45926  16.264   6.398  12.560  0.1042 -0.1331 -0.2514
29793W        W45927   5.208   7.094  14.118  0.0144  0.1555  0.3377
29794W        W45928   1.222  10.584  13.260  0.1486  0.1618 -0.1216
29795W        W45929  12.733   5.289   2.912 -0.0614 -0.0226 -0.0088
29796W        W45930   1.704   1.308   1.138 -0.0488 -0.1590 -0.2407
29797W        W45931   8.821  10.895  13.528  0.1747  0.1232 -0.1520
29798W        W45932   2.301   7.226   5.136  0.0894 -0.0229  0.1376
29799W        W45933  17.185  18.066   4.565 -0.2916  0.1242  0.2928
29800W        W45934   5.686  10.644   2.519  0.0688 -0.4064 -0.0718
29801W        W45935   3.916   4.066   5.841 -0.1948  0.2289 -0.4257
29802W        W45936   8.278   0.831  11.358 -0.0725 -0.1798 -0.1381
29803W        W45937   0.072   7.200   2.594  0.1630  0.0653 -0.2127
29804W        W45938  15.148  10.258  11.220 -0.0290 -0.1348 -0.1280
29805W        W45939   5.845  13.087   3.740  0.2321  0.0579 -0.2027
29806W        W45940  13.903  11.045  13.843 -0.2473 -0.1760  0.0099
29807W        W45941   7.445   9.881  11.521 -0.2914  0.0381 -0.0351
29808W        W45942   2.371   0.890  12.619 -0.1354  0.3693  0.1867
29809W        W45943  14.482   0.656   2.684 -0.2209  0.1518  0.2273
29810W        W45944   3.280  12.238   5.929 -0.0461  0.0004  0.0541
29811W        W45945   0.828   1.760  12.409 -0.1299 -0.1140 -0.3129
29812W        W45946   1.009   7.985  16.256 -0.0543  0.2722  0.1702
29813W        W45947  17.847   8.095  15.131  0.0496 -0.0360  0.0343
29814W        W45948  13.853  18.119  16.192 -0.3170 -0.0398  0.0831
29815W        W45949  10.963  13.764  14.396 -0.3783 -0.5088  0.1796
29816W        W45950  16.705   7.284  12.748  0.2005  0.1076 -0.2017
29817W        W45951  13.877   2.743  14.442  0.2866 -0.0327 -0.1399
29818W        W45952  14.152  12.941   4.858 -0.2883  0.0025 -0.0868
29819W        W45953  15.203   8.917  10.772 -0.1710  0.2428  0.0685
29820W        W45954   6.453  14.603   1.265  0.1751 -0.2906 -0.1638
29821W        W45955   8.341  13.676  14.559  0.0818 -0.1713  0.1341
29822W        W45956  11.428   2.849   0.612 -0.1667 -0.2331 -0.0341
29823W        W45957   5.568   4.355   0.073  0.0475 -0.0331  0.1771
29824W        W45958   6.592  16.650   4.788  0.0206  0.0048  0.1816
29825W        W45959  17.415   4.979   0.344  0.1216  0.0588  0.0378
29826W        W45960   6.065  13.828   3.570 -0.0850 -0.0854 -0.0747
29827W        W45961  10.209   2.629  12.059  0.0421  0.0321  0.1976
29828W        W45962  15.754  11.886   4.239 -0.1701  0.2846  0.1670
29829W        W45963  15.007  10.397  14.075 -0.0356  0.1905  0.0004
29830W        W45964   1.567  10.978  13.545  0.1206 -0.1815  0.1327
29831W        W45965   0.235  12.022   0.970  0.1073 -0.0371  0.2465
29832W        W45966   2.265  11.869   1.308  0.0098 -0.0608  0.2632
29833W        W45967  15.846   0.943  16.111 -0.2568 -0.2780 -0.2001
29834W        W45968  17.969   6.465   1.158  0.2507  0.0747 -0.3764
29835W        W45969   0.454  13.583  11.863  0.2540 -0.0476  0.4126
29836W        W45970   4.827   6.222  11.597 -0.2457 -0.0410 -0.2084
29837W        W45971   6.117   8.232  14.182 -0.0217 -0.2578  0.0088
29838W        W45972   9.072  13.789   0.159 -0.2864  0.1242  0.1571
29839W        W45973  11.951   9.665  15.723 -0.5253 -0.0083 -0.0497
29840W        W45974   4.729   1.624  13.015 -0.0378 -0.2223  0.1669
29841W        W45975  13.742   5.405  13.086 -0.0233  0.0221 -0.2611
29842W        W45976   9.999   2.687   4.501  0.2031 -0.4157  0.1009
29843W        W45977  17.168   3.041   1.720 -0.0266  0.3235  0.0271
29844W        W45978   8.344   4.009  12.500 -0.1019 -0.1004  0.1538
29845W        W45979   0.340   5.156   3.364 -0.1342 -0.2662 -0.1496
29846W        W45980  12.636  12.403  13.923 -0.2243  0.0730 -0.1426
29847W        W45981   9.539  15.617  15.899 -0.0399 -0.2665  0.1291
29848W        W45982   5.589   5.323   3.556 -0.0251  0.0614 -0.1991
29849W        W45983  18.096  13.482  15.772 -0.0299  0.0787  0.0517
29850W        W45984   9.540   1.702   4.520  0.0326  0.5638 -0.0698
29851W        W45985  17.912   1.697  14.580  0.0815 -0.0909 -0.2372
29852W        W45986  18.117   6.195   3.489 -0.4119  0.1961 -0.1548
29853W        W45987  17.537  18.107   1.189 -0.2011  0.2085  0.2062
29854W        W45988   2.840  11.752  15.504  0.0092 -0.0766  0.2694
29855W        W45989   9.791  17.684  12.080  0.0369  0.0297 -0.1529
29856W        W45990   2.906  17.468  12.764  0.0211 -0.0699  0.1869
29857W        W45991   2.341   9.429   3.227 -0.0159  0.2139  0.2009
29858W        W45992  14.822   6.774  16.502 -0.1234  0.1525  0.0741
29859W        W45993   7.614  18.160   4.185  0.1285  0.0887  0.0909
29860W        W45994   5.426  16.622  15.068  0.4436 -0.5789 -0.0698
29861W        W45995   9.230   7.590   0.355 -0.2084  0.2890 -0.3155
29862W        W45996  17.200  10.438  13.114  0.1436 -0.3504  0.1898
29863W        W45997  10.162   3.827  14.538  0.2594  0.1138 -0.2845
29864W        W45998   6.007   7.949  15.755  0.1680 -0.0177 -0.2908
29865W        W45999  11.626  15.129  15.976  0.0325 -0.0094 -0.0189
29866W        W46000  11.000   4.450  13.378 -0.0341  0.0485  0.0874
29867W        W46001   0.147  12.817  15.187  0.0151  0.0193 -0.1540
29868W        W46002   7.520   5.925  15.924 -0.1823 -0.0293 -0.3112
29869W        W46003  10.868   2.778   2.063  0.2977  0.0765  0.1786
29870W        W46004   0.953   0.355  13.542  0.2152 -0.3729  0.2605
29871W        W46005  13.903   4.618  14.333 -0.1687  0.0544 -0.2316
29872W        W46006  18.074  11.804   2.453 -0.1769 -0.1668  0.1042
29873W        W46007   2.144   3.243   4.013 -0.1808 -0.2398  0.1770
29874W        W46008  13.763  17.116  13.647 -0.1140  0.0012 -0.3731
29875W        W46009   9.159  13.344  13.247  0.2409 -0.1690  0.0264
29876W        W46010  17.214  15.270  12.206  0.2092  0.1749  0.0424
29877W        W46011  11.410   5.070   3.208 -0.1113  0.0045 -0.0485
29878W        W46012  15.279   6.966  15.628  0.1486 -0.0873 -0.1519
29879W        W46013  10.848  12.295  12.187  0.0884 -0.0081 -0.1839
29880W        W46014   4.405   5.310   0.843 -0.4320 -0.1110  0.0056
29881W        W46015   0.644   9.362   4.521 -0.0412 -0.2703  0.1025
29882W        W46016   1.169   7.964  12.629  0.1265 -0.3670  0.2925
29883W        W46017   0.595   9.388  16.151  0.1320  0.0304 -0.1174
29884W        W46018  13.545  16.744   5.636  0.4486  0.0993  0.1507
29885W        W46019   3.629  15.523  14.011 -0.1089 -0.0217  0.0063
29886W        W46020  12.095   3.169   5.211  0.0876  0.0099 -0.1627
29887W        W46021   2.789   1.002   4.090 -0.2450 -0.1732  0.0546
29888W        W46022   6.426   8.092   5.050 -0.0322  0.0167  0.0888
29889W        W46023  12.739   8.424   4.992 -0.2431  0.3133  0.1333
29890W        W46024  10.748   5.630   6.557  0.3388  0.0343 -0.0057
29891W        W46025   9.042   9.924  14.630  0.0307  0.1155  0.2161
29892W        W46026   2.444   5.515   1.067 -0.0130  0.1714 -0.0582
29893W        W46027   1.591   3.578  15.053 -0.3257 -0.2982 -0.1029
29894W        W46028   7.794   9.446   5.443  0.0234  0.0289 -0.0450
29895W        W46029   4.236   3.549   4.851 -0.1378  0.1808 -0.1281
29896W        W46030   6.403   5.277  14.315  0.1944 -0.3994  0.1145
29897W        W46031   1.138   7.004  12.302  0.1375 -0.0684  0.2875
29898W        W46032  16.548  15.019  12.654  0.2196  0.0208 -0.0238
29899W        W46033   2.529  10.749   5.351  0.0099  0.1432 -0.2373
29900W        W46034   1.131   2.756  16.087 -0.1733  0.0893  0.0844
29901W        W46035  11.837   8.593  12.591 -0.0338  0.2136  0.0579
29902W        W46036  13.557  16.121  12.588 -0.0681 -0.0767 -0.1032
29903W        W46037  14.395   0.728  13.909 -0.0357  0.0288 -0.0350
29904W        W46038  14.199  12.706  15.095 -0.3527 -0.0219 -0.0095
29905W        W46039   9.814  15.768  11.579  0.0537  0.5007  0.1261
29906W        W46040   5.371  11.494   4.706 -0.0788  0.1620  0.2078
29907W        W46041   3.699  11.639  15.904 -0.1019  0.0232 -0.1835
29908W        W46042   2.041  11.418   5.786 -0.0839  0.1409 -0.1913
29909W        W46043  10.908   7.790   4.872  0.2026 -0.1733 -0.0938
29910W        W46044   4.583   4.994   3.072  0.0826 -0.2847  0.0111
29911W        W46045  10.871  15.013   0.551 -0.1835 -0.0467  0.1800
29912W        W46046   3.464   7.212   0.086  0.0996  0.1046  0.3761
29913W        W46047  12.596  11.158   3.284 -0.2157 -0.1153  0.0294
29914W        W46048   1.456   9.920   0.727  0.4600 -0.1442  0.0063
29915W        W46049   1.206  13.799   5.983 -0.2227  0.1005  0.0823
29916W        W46050  13.938   2.135   1.560 -0.0526 -0.1413 -0.4305
29917W        W46051   9.434  11.168   0.912  0.0901 -0.0227 -0.1433
29918W        W46052   0.317   7.346  11.482  0.4921  0.3041 -0.1283
29919W        W46053   4.508   1.052  13.576  0.0598  0.1089  0.3386
29920W        W46054   4.938   9.371  10.852 -0.2424 -0.0396 -0.1136
29921W        W46055  11.951   4.407   4.802  0.2348  0.0705 -0.0241
29922W        W46056   1.100  16.954   3.261  0.3121 -0.1480 -0.0987
29923W        W46057   4.939   8.273   3.352 -0.2718 -0.0691  0.0007
29924W        W46058   1.475   7.937  15.820  0.0849 -0.1340 -0.2551
29925W        W46059   2.088  10.357   5.301 -0.0006  0.0203  0.0682
29926W        W46060   5.515  10.235   4.279  0.0066  0.4844  0.2407
29927W        W46061   1.441  17.558  13.414  0.1905 -0.2418 -0.0014
29928W        W46062  12.671  17.699   1.942  0.4187  0.1205  0.1083
29929W        W46063   8.290   1.239   0.728 -0.1869  0.0883 -0.0962
29930W        W46064   0.797   0.876  14.293 -0.0676  0.0213  0.2346
29931W        W46065  16.834  16.127  14.330 -0.1025 -0.0868 -0.0181
29932W        W46066  15.615   7.024  14.721 -0.0905  0.2512 -0.0048
29933W        W46067   5.250  11.097  11.590 -0.0003 -0.3020 -0.0299
29934W        W46068   3.685  10.535   0.756  0.0054  0.4293 -0.1362
29935W        W46069   2.935  12.026  14.083  0.3524  0.0564  0.0119
29936W        W46070   2.159  17.219  12.694 -0.2590  0.0842  0.1181
29937W        W46071  13.950  16.877  14.270  0.0342 -0.1874  0.0818
29938W        W46072  17.588  13.662   2.265  0.0148  0.4321  0.0144
29939W        W46073  11.487  10.478   0.894 -0.0710 -0.0728  0.1721
29940W        W46074   5.969  11.788  14.024 -0.2650 -0.1660 -0.0278
29941W        W46075  10.772  11.404   3.711  0.0935  0.0806  0.3794
29942W        W46076   3.639   3.721   1.917  0.0428 -0.0406 -0.1234
29943W        W46077  13.338  12.969  16.062 -0.4331 -0.1568  0.1336
29944W        W46078   7.902  14.983  11.881  0.0708 -0.1459  0.0794
29945W        W46079  12.150   6.383  11.526 -0.0214 -0.1399 -0.1970
29946W        W46080   1.477  16.596   3.195  0.2049 -0.1358  0.1429
29947W        W46081   9.354   4.225   4.386 -0.2039 -0.1066 -0.1091
29948W        W46082  17.543  17.919  12.311  0.2346  0.2829  0.0969
29949W        W46083  16.994  14.894   5.247  0.1975 -0.1695 -0.2081
29950W        W46084   4.122   2.393   6.271  0.0707  0.1520 -0.0583
29951W        W46085   7.277   1.646  14.920  0.3544 -0.1360  0.1724
29952W        W46086   0.683  16.452  13.796  0.0496  0.2266  0.1784
29953W        W46087  13.228  15.450   4.027 -0.3882  0.0413 -0.0866
29954W        W46088   6.513  11.897   0.585  0.0493  0.1260  0.0403
29955W        W46089  13.634  12.064   3.267 -0.1122 -0.0006 -0.1562
29956W        W46090  14.652   3.330   0.477  0.1147 -0.0398  0.0641
29957W        W46091   0.651  12.395  15.550 -0.3896 -0.1999  0.2905
29958W        W46092   6.199  16.333  15.851 -0.2769  0.0066  0.0551
29959W        W46093  14.746   8.734   2.686 -0.1601  0.2217 -0.1214
29960W        W46094   5.110  15.749  14.849  0.3026  0.0913 -0.2847
29961W        W46095  14.659  16.468  14.685 -0.2177  0.0518  0.1356
29962W        W46096   5.538   8.149   3.151 -0.3723  0.1029 -0.1714
29963W        W46097   1.365   5.590   0.242  0.2782  0.0504  0.0838
29964W        W46098  15.482   5.498  15.515  0.2180  0.1207 -0.1028
29965W        W46099  12.994   2.777  14.239  0.0257 -0.1994  0.0329
29966W        W46100   0.160   2.694  11.325  0.1817  0.0992  0.3052
29967W        W46101  13.463  10.123   4.716 -0.0393 -0.0193 -0.1670
29968W        W46102   3.910   6.781  11.657  0.2077  0.2735  0.0186
29969W        W46103  17.172  11.497   5.457 -0.0049  0.0213  0.1215
29970W        W46104  16.772  16.521  14.973 -0.0943  0.0067 -0.0472
29971W        W46105  15.301  15.087   0.343  0.1296  0.0364 -0.0474
29972W        W46106   3.794   9.703   4.913 -0.1308  0.0802  0.0319
29973W        W46107  17.173   2.844   3.289  0.0284 -0.0505  0.1029
29974W        W46108   6.443   4.252  12.714 -0.0258  0.1728 -0.3273
29975W        W46109  10.100   3.190   3.037 -0.0262 -0.2899 -0.3191
29976W        W46110   6.435   3.758   1.386  0.3250 -0.3330  0.1409
29977W        W46111  11.901  15.961  15.383 -0.3043  0.1945 -0.0986
29978W        W46112   7.578   6.526  12.984 -0.2627 -0.2039 -0.0023
29979W        W46113  12.016  12.413   1.753 -0.1612 -0.0453  0.2829
29980W        W46114  13.748  11.666   3.671 -0.1774  0.1058  0.0792
29981W        W46115  10.025   5.468  11.287  0.2604 -0.4422 -0.1758
29982W        W46116   6.156  14.342  15.307  0.1893 -0.1704  0.1367
29983W        W46117   9.706   9.601  12.462  0.4261  0.2512 -0.0891
29984W        W46118  10.050  14.271   3.873 -0.1797  0.2905  0.1331
29985W        W46119   9.470   8.603  11.208 -0.0841  0.0556  0.1284
29986W        W46120  12.516  15.816  16.095 -0.0958  0.0700 -0.1681
29987W        W46121   4.694   9.823  13.216  0.0116 -0.1671  0.2496
29988W        W46122  16.710   1.170   3.703 -0.0169 -0.0974 -0.0496
29989W        W46123   8.623  13.805   0.483 -0.1298 -0.2719 -0.0732
29990W        W46124   8.533   0.380   3.551 -0.3234  0.1242 -0.0647
29991W        W46125   0.649   6.825  15.800  0.0360 -0.3552  0.0342
29992W        W46126   1.936  11.228   0.650  0.2388 -0.1256 -0.0930
29993W        W46127   7.290   6.019  12.865 -0.1781  0.0109 -0.2070
29994W        W46128   8.819  16.855  15.046  0.0690  0.0996  0.1623
29995W        W46129  11.537  13.991  12.411 -0.2345 -0.3911 -0.1836
29996W        W46130   6.423  14.468   4.690 -0.0022 -0.0528  0.2476
29997W        W46131   4.711  14.518  13.054  0.0504  0.2033 -0.0117
29998W        W46132   7.251  10.755  15.464 -0.0063 -0.4002 -0.0819
29999W        W46133   9.636   3.121   0.279 -0.0514  0.0467 -0.0826
30000W        W46134  16.871   5.187   2.652 -0.0745 -0.0449 -0.0450
30001W        W46135   4.910  10.559  14.494  0.1089  0.1412  0.1048
30002W        W46136   9.066   4.679  15.977 -0.0442  0.0172 -0.0395
30003W        W46137  13.441   4.312   5.234 -0.0168 -0.1659 -0.3629
30004W        W46138   1.182   9.906   3.707 -0.0434  0.0754  0.1563
30005W        W46139   0.793  11.298  14.074  0.1664 -0.3060 -0.2396
30006W        W46140  16.764   8.225   5.015  0.0520  0.0287  0.4935
30007W        W46141  16.581   8.846   1.995 -0.2701  0.1972  0.0580
30008W        W46142   2.553   8.298   4.349  0.2357  0.0755  0.0053
30009W        W46143   4.329  13.889   2.077  0.1949  0.1768 -0.1255
30010W        W46144  18.023   0.656  15.331 -0.0851 -0.3646 -0.1629
30011W        W46145   4.581   3.552   2.324 -0.1965  0.1555  0.3260
30012W        W46146   8.411   7.871  12.483  0.1333 -0.0939 -0.2184
30013W        W46147  15.687   7.952  11.496 -0.1794  0.1021 -0.1294
30014W        W46148   3.626   7.052  13.409 -0.0521 -0.1841  0.1540
30015W        W46149   0.806   5.228   2.499  0.1408 -0.0014  0.2227
30016W        W46150   2.947  15.451  11.989 -0.1994  0.1509 -0.3318
30017W        W46151  17.699   2.279  15.245 -0.1396 -0.1300 -0.1678
30018W        W46152  12.369   6.718   0.054 -0.1917 -0.0288  0.0105
30019W        W46153   6.950   9.400  11.332 -0.0073 -0.0953 -0.1142
30020W        W46154   7.202   5.441  15.415  0.1756 -0.3821  0.0357
30021W        W46155  15.537   8.656  13.563  0.1309  0.0570 -0.0470
30022W        W46156  18.109   8.256   3.754 -0.0410 -0.1413  0.2132
30023W        W46157  11.567   9.947   0.922  0.3207 -0.1678 -0.0528
30024W        W46158  15.699   3.416   5.123  0.0287  0.0774  0.0475
30025W        W46159  10.366  12.017   2.552  0.0351  0.0484 -0.0184
30026W        W46160  17.452   7.070   0.847  0.3165 -0.0143 -0.0143
30027W        W46161  13.879  15.572   3.554  0.1104  0.1515 -0.0742
30028W        W46162   3.569   8.617  14.132 -0.0247  0.0894 -0.0960
30029W        W46163   3.336  16.798  12.728  0.2185  0.1089 -0.2126
30030W        W46164  11.657   4.725   1.756  0.2026 -0.0197 -0.0893
30031W        W46165   3.431  12.853  12.661 -0.2265 -0.0177  0.3682
30032W        W46166   8.589   8.205   0.138  0.1057  0.0387  0.1047
30033W        W46167   6.571  15.196   1.899  0.1030  0.0316 -0.1417
30034W        W46168  13.813   8.604  12.264  0.0099 -0.0184 -0.0860
30035W        W46169   2.622  17.118  12.344  0.4200 -0.1639  0.1382
30036W        W46170  11.257   6.841   4.814 -0.0613 -0.0675 -0.4437
30037W        W46171  11.082  12.297   5.397 -0.1419  0.2222 -0.2660
30038W        W46172   0.776  14.492  14.308 -0.3132  0.1802  0.0232
30039W        W46173   5.932   4.005   0.182  0.0549 -0.1952  0.3791
30040W        W46174   5.865  10.979  15.981  0.1923 -0.1209 -0.1525
30041W        W46175  13.697  16.943  12.695 -0.0678 -0.0313  0.1993
30042W        W46176  17.795  10.687   3.174 -0.0571  0.0312  0.0413
30043W        W46177  10.895   3.185  12.324 -0.1691 -0.0274  0.3072
30044W        W46178   0.570   0.760   4.197  0.0735  0.0492 -0.0102
30045W        W46179   7.076   4.100  15.319  0.2276 -0.0836  0.0561
30046W        W46180   7.568   9.869   4.709 -0.0678 -0.3096 -0.1534
30047W        W46181   5.331   6.233   3.924  0.1435 -0.2502  0.4008
30048W        W46182  14.456   5.694  12.657 -0.0481  0.0374 -0.0725
30049W        W46183   2.925   6.270   0.135  0.0041 -0.2594 -0.1121
30050W        W46184  16.180   3.848   0.901  0.0224 -0.0742 -0.0798
30051W        W46185  17.352   8.354   2.095 -0.0987  0.2381 -0.1689
30052W        W46186   5.111   3.756   3.360  0.1180 -0.2696  0.1845
30053W        W46187  10.237   0.391   0.027 -0.0890  0.0645  0.1648
30054W        W46188  13.954   0.022   3.958  0.0142  0.1325 -0.0632
30055W        W46189  10.182   0.925  16.093  0.2013 -0.1032 -0.1487
30056W        W46190   9.153  11.338   2.962  0.1387  0.3010 -0.2444
30057W        W46191  12.778  15.979  12.011 -0.0762  0.2093  0.1853
30058W        W46192  13.236  13.452  13.702 -0.0415 -0.0828  0.1587
30059W        W46193  15.823  15.427   5.526 -0.1971  0.0816 -0.0929
30060W        W46194   2.349  15.420   1.018  0.1550 -0.1664  0.0576
30061W        W46195  12.409  10.057  14.243 -0.0866 -0.1893 -0.1287
30062W        W46196   5.251  15.850  13.330 -0.0025 -0.2707  0.0271
30063W        W46197   5.006   9.353  12.673 -0.0628 -0.0857  0.1259
30064W        W46198  14.099  14.382  14.871  0.1444  0.0168 -0.2232
30065W        W46199  14.114  13.323   0.002 -0.0892  0.0319 -0.0038
30066W        W46200   1.409  14.691   0.061 -0.0929  0.1333  0.0696
30067W        W46201   3.802   9.735  11.674 -0.0075 -0.3575 -0.2522
30068W        W46202   2.023  13.385   5.197  0.0076  0.0526 -0.1292
30069W        W46203   3.231   5.940  13.689 -0.1155 -0.0155  0.0074
30070W        W46204   9.748  13.338  15.498  0.0163 -0.1222  0.1108
30071W        W46205   8.565   6.339  15.372  0.0525  0.1329 -0.3073
30072W        W46206   7.905   8.796  16.490 -0.0479 -0.0998 -0.2910
30073W        W46207  12.127   7.827   5.449 -0.1866 -0.0384  0.1594
30074W        W46208  11.456   8.701  15.442 -0.2400 -0.0944  0.0198
30075W        W46209  17.128   2.873  14.047  0.2619 -0.1901 -0.0147
30076W        W46210  13.514   2.671   5.669  0.1868  0.0688 -0.1370
30077W        W46211   5.914   9.382   2.295 -0.2922  0.1485  0.1087
30078W        W46212  17.911  12.661  13.149  0.1554  0.0384 -0.0189
30079W        W46213   5.656   2.621  13.090 -0.0434  0.3969  0.1215
30080W        W46214  13.740   8.223   0.695 -0.2253  0.1146 -0.0642
30081W        W46215  17.852   7.739   1.935  0.3194  0.1223 -0.0126
30082W        W46216   8.256   2.936   3.646 -0.2751  0.1333  0.2442
30083W        W46217   9.395  17.090   5.416 -0.1745  0.0914  0.2669
30084W        W46218   4.195  15.534  14.915  0.1781  0.1713  0.1432
30085W        W46219   5.000  11.977   0.758  0.2896  0.1034 -0.2718
30086W        W46220  11.763  10.201   9.803  0.0453  0.2571  0.0888
30087W        W46221  17.668   6.883  16.360 -0.2586 -0.2938 -0.2158
30088W        W46222  15.127  16.189  15.964  0.2613  0.2537 -0.1989
30089W        W46223  13.986   7.006   3.147  0.1714 -0.0484  0.1063
30090W        W46224  16.043   4.259   4.989 -0.3727 -0.3093  0.1155
30091W        W46225  16.416   4.127  14.595 -0.0750  0.2356  0.0087
30092W        W46226   5.842  16.011   2.129 -0.1946  0.0453 -0.1228
30093W        W46227  13.080  16.610  14.655 -0.0395 -0.3449 -0.1289
30094W        W46228   2.059   5.594   1.932  0.0299 -0.1065 -0.1114
30095W        W46229   6.153  10.711  13.869  0.1485 -0.1130 -0.2689
30096W        W46230   0.133   2.010   3.385 -0.0033  0.1042 -0.1599
30097W        W46231   2.456   9.644   3.740  0.1993  0.1260 -0.0228
30098W        W46232   6.896  15.693   2.858 -0.0255 -0.0064 -0.0475
30099W        W46233   1.741   6.446  15.449  0.0746  0.2423  0.2953
30100W        W46234  10.637  13.080  16.456 -0.1027  0.2423 -0.0155
30101W        W46235  13.007  17.915   6.382  0.1816  0.0317 -0.2399
30102W        W46236  12.100  10.253  12.745 -0.1792 -0.0777  0.1980
30103W        W46237  12.436   1.830  14.236 -0.1182  0.0095 -0.1509
30104W        W46238   7.314   3.912  16.176 -0.0928  0.3488 -0.1854
30105W        W46239   3.684   2.764   4.430 -0.0641 -0.0514 -0.1213
30106W        W46240   0.299  10.186   1.120  0.0722  0.3279 -0.1593
30107W        W46241  12.666  10.524  14.157  0.0961  0.1171  0.0674
30108W        W46242  14.458  10.166   2.390  0.0422 -0.2575 -0.1983
30109W        W46243   7.734   0.867   5.029 -0.1121  0.0520  0.0841
30110W        W46244   1.096  15.098  15.436  0.1255 -0.2065  0.1366
30111W        W46245   2.985  10.280   0.014 -0.0373  0.0124  0.1481
30112W        W46246   1.904   8.510  12.923 -0.0833  0.0201 -0.1758
30113W        W46247   5.160  10.074  14.622  0.1573 -0.1425  0.3088
30114W        W46248  10.534   2.552   2.367 -0.1894 -0.2675  0.0352
30115W        W46249  17.335  15.904  13.640 -0.0532 -0.2310 -0.0140
30116W        W46250  11.772   0.978  12.470  0.2760  0.0814  0.0825
30117W        W46251  15.529   9.106  16.115 -0.4203 -0.3276  0.5373
30118W        W46252   9.630  11.431   3.018 -0.2394  0.1374 -0.0023
30119W        W46253   3.411   6.651  15.434 -0.3255  0.0472  0.1772
30120W        W46254  13.952   4.250   5.180  0.1321  0.2116 -0.0937
30121W        W46255  14.291   0.807  16.358  0.2220 -0.0425 -0.1504
30122W        W46256   7.424   6.224   5.171  0.1051  0.0743  0.0276
30123W        W46257   9.246   6.181   2.743 -0.0879 -0.2573 -0.2760
30124W        W46258   5.296   4.013   1.007  0.1682  0.3704  0.0588
30125W        W46259  17.903   1.726   0.501  0.0753 -0.1503 -0.1565
30126W        W46260  10.112  11.987  16.025  0.0509  0.3449 -0.0778
30127W        W46261   0.179  17.249   6.361 -0.0042  0.0013 -0.2562
30128W        W46262   4.251  13.838   5.310 -0.2059 -0.0285 -0.0441
30129W        W46263   6.139  15.846  15.609  0.2139  0.0150  0.1883
30130W        W46264   3.984   4.032  15.367  0.1666  0.0881  0.2956
30131W        W46265  13.776   3.374   3.955  0.1468 -0.0196  0.1195
30132W        W46266   9.038  15.187  13.819  0.0514  0.1244 -0.1379
30133W        W46267  16.059   7.774   1.912 -0.0065 -0.1327  0.1368
30134W        W46268   1.855   2.080   2.567 -0.3768  0.1281 -0.1377
30135W        W46269   4.864  16.477  15.976  0.1538  0.2037 -0.4742
30136W        W46270  15.394  15.135   3.468  0.2712  0.1454  0.2023
30137W        W46271   3.295  11.883   3.861  0.0724  0.0470 -0.0731
30138W        W46272  11.604  12.899  11.939 -0.2080  0.3254 -0.2035
30139W        W46273   3.865  11.810  13.364  0.1341  0.0231  0.2310
30140W        W46274   5.933   3.125   0.592  0.1705  0.0145 -0.0611
30141W        W46275  15.337  15.871   4.994  0.0968  0.0429  0.3522
30142W        W46276   6.266   5.791   2.779 -0.3355 -0.0255 -0.1870
30143W        W46277   2.177   4.117   5.106 -0.0746 -0.0931  0.2976
30144W        W46278  15.622   2.490   2.274 -0.1728  0.4588  0.1225
30145W        W46279  15.862  14.012  13.331 -0.0707 -0.0204 -0.0331
30146W        W46280   0.935  13.187  14.724 -0.0854 -0.0416  0.1790
30147W        W46281  17.555  10.649   0.667 -0.0990  0.0623 -0.6587
30148W        W46282  15.020   3.638   4.293  0.1297 -0.2129  0.1935
30149W        W46283  16.098   3.892  12.742  0.3400 -0.0160 -0.2250
30150W        W46284   5.687   4.713   6.050 -0.1105  0.2776 -0.1048
30151W        W46285   1.585   3.090  14.778  0.0937 -0.2529  0.0578
30152W        W46286   3.215  17.234  11.536 -0.1288 -0.1223  0.1433
30153W        W46287   8.025  10.097   2.094 -0.1977 -0.2040  0.0555
30154W        W46288  16.317   8.426   0.778 -0.2398 -0.1485  0.0777
30155W        W46289   6.160  11.369  13.625  0.2936  0.2089  0.1065
30156W        W46290  17.466   4.906   4.134 -0.1362 -0.1800  0.1923
30157W        W46291   0.050   8.300   9.727 -0.1857  0.1521 -0.0464
30158W        W46292   3.862  16.884  11.887 -0.1261  0.0502  0.0412
30159W        W46293  14.141  13.074   1.123 -0.1986  0.3494  0.0165
30160W        W46294  13.143   7.535  14.419  0.0763  0.1614  0.2479
30161W        W46295   3.925   6.948  14.147 -0.0563  0.0934 -0.3830
30162W        W46296  13.462   0.342   5.238  0.1162  0.0586  0.3486
30163W        W46297  15.014   7.598  14.215  0.3992 -0.1264 -0.0714
30164W        W46298  11.991   7.994  14.373  0.1010  0.0620  0.1309
30165W        W46299  11.226  14.244   4.710  0.0672  0.1191 -0.1290
30166W        W46300   3.251  17.617   2.361  0.1015  0.2900 -0.0649
30167W        W46301  16.732  13.873  16.354 -0.0469 -0.0786 -0.0679
30168W        W46302   2.092   0.092  12.516 -0.1244  0.1121  0.1447
30169W        W46303   9.142   3.125   0.116 -0.2142 -0.2078 -0.0581
30170W        W46304   0.855  12.301   0.371  0.0555 -0.3548  0.2311
30171W        W46305   7.855   0.221  13.861 -0.2747  0.0941 -0.1766
30172W        W46306  10.612   7.044  11.579  0.1205  0.1149  0.0164
30173W        W46307   5.058   5.482   0.411 -0.0956 -0.0837  0.1246
30174W        W46308   4.011  15.780   0.464  0.3222 -0.3661 -0.0012
30175W        W46309   3.397  16.472  15.812 -0.2932 -0.1994  0.0361
30176W        W46310  18.153  14.694   3.914 -0.2422  0.1077 -0.1519
30177W        W46311  10.207  13.372   4.449  0.1257  0.3287 -0.2534
30178W        W46312  11.203   6.741   0.841  0.2813  0.3196 -0.2046
30179W        W46313  11.235   0.649   3.708 -0.1405  0.1959 -0.0186
30180W        W46314  11.996  13.658   5.603 -0.0314 -0.1567  0.4400
30181W        W46315   9.426  12.006  13.155 -0.1165  0.1614  0.1485
30182W        W46316   4.206   1.484  14.131 -0.0977  0.0604  0.1952
30183W        W46317   5.576   7.143   1.602 -0.0717  0.2205 -0.0404
30184W        W46318   6.331  15.975   4.066 -0.0117  0.2760  0.2965
30185W        W46319  18.160  15.176  13.263  0.0671 -0.0603 -0.1878
30186W        W46320  13.225  15.961   0.209  0.0403  0.1830  0.1754
30187W        W46321  10.510   1.609  11.454 -0.0917 -0.2364 -0.2456
30188W        W46322   0.685   2.896  11.962  0.1073 -0.0247 -0.3883
30189W        W46323  10.254  14.126  16.006  0.2619 -0.4281  0.0330
30190W        W46324  13.256   9.307   0.587 -0.0608  0.1557  0.1696
30191W        W46325   0.178  15.178  15.487 -0.0129 -0.2161  0.0244
30192W        W46326  13.567  17.449  12.836  0.0396 -0.3471  0.2485
30193W        W46327   3.374   5.691  14.227 -0.2450 -0.1325  0.1232
30194W        W46328  11.185  15.264   1.222 -0.0556 -0.2745 -0.1322
30195W        W46329  14.094   0.655  15.942  0.1458 -0.1586 -0.0192
30196W        W46330  14.613  12.897  16.419  0.1242  0.5644 -0.1319
30197W        W46331   3.755   2.600  11.960 -0.0609  0.1183 -0.1275
30198W        W46332  10.916  10.955   1.690 -0.0866 -0.1236  0.0044
30199W        W46333   6.133   7.512  13.405 -0.4499  0.0239  0.2422
30200W        W46334  12.583   1.389   0.691  0.2362 -0.0607  0.1545
30201W        W46335   4.954   0.572   3.030 -0.3173 -0.2326 -0.1489
30202W        W46336   2.607  13.636   2.097  0.1277  0.0792  0.1120
30203W        W46337   4.758   1.800   0.118  0.3577  0.0042  0.1416
30204W        W46338  15.085   2.076   1.501  0.2578  0.0437 -0.0351
30205W        W46339  16.491  15.197  14.550  0.1765  0.0363 -0.0660
30206W        W46340  13.113   3.487   0.432  0.1309  0.1821  0.1858
30207W        W46341   2.226   2.218  12.960 -0.0565  0.3050  0.1254
30208W        W46342   9.549   4.706  13.865 -0.2479 -0.2598  0.1052
30209W        W46343  13.370  11.102  12.854  0.0084 -0.0911  0.1041
30210W        W46344  16.719   3.311   1.638 -0.0662 -0.2003 -0.1399
30211W        W46345   3.277  11.795  12.699 -0.2872 -0.1843  0.0840
30212W        W46346   4.080   2.002  15.774 -0.3870  0.2662 -0.3122
30213W        W46347   0.730   8.577   3.889 -0.0724  0.2703  0.2871
30214W        W46348   2.639   9.224   0.696  0.1692 -0.1320  0.0691
30215W        W46349  17.597   0.664   1.945  0.3056 -0.0357 -0.5368
30216W        W46350  16.287   2.816   3.448 -0.2178 -0.2621 -0.3205
30217W        W46351   8.905  15.352   1.540 -0.1294  0.1116 -0.0567
30218W        W46352  13.319  14.035   2.721 -0.2367  0.0175 -0.0934
30219W        W46353   7.612  10.626  15.810  0.0526 -0.3387 -0.2668
30220W        W46354  11.743   2.066   5.731  0.0642 -0.5085 -0.1452
30221W        W46355   5.119  14.425   1.070  0.0891  0.1611 -0.2476
30222W        W46356   0.756   2.030  16.397  0.0872 -0.0243 -0.2857
30223W        W46357  16.351   4.317   0.203  0.2010 -0.0654 -0.0794
30224W        W46358  14.696  15.690  16.073 -0.3594 -0.1454  0.0197
30225W        W46359  16.948   6.232   0.269 -0.2535 -0.2482  0.0490
30226W        W46360  11.476  11.665   4.204 -0.1276  0.0310  0.0419
30227W        W46361  15.082   3.292   0.250 -0.0481  0.1626  0.3217
30228W        W46362  11.394   2.203  14.298 -0.0051  0.1560  0.1072
30229W        W46363  11.660   6.995   2.038  0.2828 -0.1582  0.0654
30230W        W46364   7.911   1.047   2.435 -0.0027  0.2222 -0.0408
30231W        W46365  11.705  11.664   1.250  0.1605 -0.0951 -0.0515
30232W        W46366   4.620  11.096   0.843  0.2915 -0.1734  0.1043
30233W        W46367  10.776   8.593  14.250 -0.1254 -0.0367  0.1390
30234W        W46368   6.645  12.241  11.892  0.2875 -0.1560 -0.1345
30235W        W46369  13.651   2.692  11.909 -0.3555 -0.1843 -0.1646
30236W        W46370  17.825   5.273   4.506  0.0292 -0.1249 -0.0870
30237W        W46371   8.488   9.167  12.950  0.3152 -0.1102  0.4997
30238W        W46372   3.243   8.538   5.232  0.0377  0.1032 -0.3181
30239W        W46373   3.998   8.716  14.402 -0.1794 -0.1102  0.1090
30240W        W46374  13.821  12.185   3.763  0.0753 -0.1051  0.0085
30241W        W46375   9.703  17.173   0.174  0.0970  0.0418 -0.3383
30242W        W46376   6.613  12.837  14.987 -0.1425  0.0199 -0.3534
30243W        W46377   7.774  17.998   2.513  0.1288  0.0175  0.1069
30244W        W46378   2.288   1.097   2.530  0.1931  0.0356  0.5057
30245W        W46379  14.158  14.895  16.033 -0.0632 -0.4060 -0.0820
30246W        W46380   7.664  10.681  15.182  0.1976 -0.1422  0.0987
30247W        W46381   6.341   2.568   6.323  0.0628 -0.0939 -0.2073
30248W        W46382  15.441  17.012   3.566  0.1530 -0.0443  0.0067
30249W        W46383  10.437   6.796  14.151 -0.3745 -0.0130  0.1224
30250W        W46384   3.829  17.353  11.685  0.0284  0.1447 -0.0331
30251W        W46385   3.790   3.302  12.336 -0.1174 -0.3233  0.0680
30252W        W46386   7.633  11.560  15.866  0.2319 -0.2038  0.0947
30253W        W46387   7.252   4.667  13.471 -0.3408 -0.2004 -0.2488
30254W        W46388   5.071   9.527  16.229 -0.1738  0.0647 -0.1008
30255W        W46389  15.973  16.253   5.665 -0.2966 -0.0425 -0.0260
30256W        W46390  14.662  12.102   4.028  0.0688 -0.0781  0.3195
30257W        W46391   9.431   2.989  14.843  0.1429 -0.0877  0.2670
30258W        W46392  14.949   2.177   4.916 -0.0727 -0.0126 -0.0448
30259W        W46393  17.479   0.738  12.569 -0.2387  0.3814 -0.1514
30260W        W46394  14.408   9.266  10.444 -0.0314 -0.0748  0.0480
30261W        W46395   4.832  16.134  14.058 -0.0588 -0.0039  0.4834
30262W        W46396   7.255   2.823   3.364  0.1349  0.1807  0.0456
30263W        W46397  16.835   6.510  16.399  0.4557 -0.1214  0.0428
30264W        W46398   3.647  11.890   3.463 -0.1088  0.0794 -0.0111
30265W        W46399   1.025   3.549  12.423  0.0713  0.2451 -0.0526
30266W        W46400   7.588   2.443   1.129  0.2670 -0.1580 -0.4040
30267W        W46401   0.168   2.237   2.649 -0.0971  0.0342  0.1793
30268W        W46402  10.237  13.376  14.744  0.0088 -0.1168  0.2365
30269W        W46403  14.537  14.382   4.045 -0.0028  0.1554 -0.1117
30270W        W46404  13.522   3.115   4.515 -0.0511 -0.0086 -0.0935
30271W        W46405   9.168   6.234  14.171 -0.0102 -0.0402  0.1174
30272W        W46406  10.788   7.033   0.779  0.2214  0.0903 -0.2974
30273W        W46407  12.227  17.428  13.373 -0.2827 -0.0399  0.1050
30274W        W46408   9.380   9.108   4.817 -0.2524 -0.3091 -0.2843
30275W        W46409  17.252  17.024   1.185  0.2036 -0.0269  0.1085
30276W        W46410   8.961   2.395  11.957 -0.1532 -0.0994  0.2043
30277W        W46411   9.695   3.578   1.871  0.1092  0.0549 -0.1524
30278W        W46412  10.988  10.223  12.418  0.3009 -0.0877 -0.0784
30279W        W46413   8.236   4.295   3.626  0.1999  0.0990  0.0820
30280W        W46414   9.677  16.237   0.623 -0.0496 -0.0432  0.2283
30281W        W46415  16.297  13.190   3.036  0.3726 -0.1007  0.0156
30282W        W46416   1.972   4.400  14.134  0.3642 -0.1376 -0.3580
30283W        W46417  14.409  14.330   4.981 -0.1568  0.1858  0.1503
30284W        W46418  13.265   0.849  15.052  0.3853 -0.1735  0.3013
30285W        W46419   8.160  11.661   4.284  0.1459  0.1687  0.0531
30286W        W46420   0.136  15.164  14.980  0.3599  0.0535 -0.0102
30287W        W46421   3.211   6.302  16.183 -0.1156  0.0991 -0.1509
30288W        W46422  16.167  10.089   0.235  0.1653 -0.0865  0.0209
30289W        W46423  15.429   5.774  13.647 -0.0731  0.1587 -0.0562
30290W        W46424   4.782   8.705  15.313  0.0107 -0.0543  0.0005
30291W        W46425   0.325   5.479  15.355 -0.2475  0.0568 -0.1020
30292W        W46426  13.855  10.327  15.702 -0.2422 -0.1073 -0.0243
30293W        W46427  15.030   2.129  16.175 -0.0756 -0.0447 -0.1436
30294W        W46428   3.745  12.394   0.302  0.5440  0.0797  0.0341
30295W        W46429   6.134  11.117  13.109 -0.2924  0.2122 -0.1829
30296W        W46430   8.940   6.612  16.087  0.1163  0.2428 -0.0407
30297W        W46431   6.029   3.208   1.984 -0.0881  0.0323 -0.2847
30298W        W46432   2.965  14.687  16.066 -0.0672 -0.0231  0.4190
30299W        W46433   5.550  11.763  11.180 -0.2843 -0.1320  0.5427
30300W        W46434   9.932   4.954   5.371  0.1250 -0.0074  0.1278
30301W        W46435   8.520   0.318   0.822 -0.2596  0.1732  0.0825
30302W        W46436  15.707  13.435   5.663 -0.0066  0.1678 -0.3219
30303W        W46437   9.088   4.788   0.003  0.0679 -0.2181  0.0345
30304W        W46438   8.778   8.236   1.371  0.0157  0.1985  0.1489
30305W        W46439  16.680   4.580  16.419  0.0305  0.1911  0.1621
30306W        W46440  11.955  11.780   0.414 -0.1297 -0.3672  0.0700
30307W        W46441   2.616   2.254   3.299 -0.0479 -0.2764  0.0154
30308W        W46442  11.435   8.696  13.514  0.2013 -0.1834 -0.0660
30309W        W46443   8.394   7.551   3.823  0.2215 -0.0536 -0.1082
30310W        W46444   2.141  16.287   5.852  0.0249 -0.0734  0.0828
30311W        W46445   2.527  17.706   1.838  0.2877  0.0450  0.0150
30312W        W46446   6.755  12.666  16.045  0.2002 -0.0211  0.1646
30313W        W46447   3.869   5.908   3.859  0.0394 -0.1088 -0.3641
30314W        W46448   3.460  14.597  15.026  0.2032  0.0842  0.1662
30315W        W46449  11.937   7.685  13.178 -0.2862  0.2136  0.0385
30316W        W46450   4.960   1.893   1.106 -0.1768  0.4170  0.0938
30317W        W46451   5.328   7.384  14.887  0.4723 -0.0488  0.1041
30318W        W46452  17.087  14.726   1.704  0.2220 -0.1320  0.0879
30319W        W46453  11.102   9.139  13.579  0.1858 -0.0653  0.0076
30320W        W46454   9.321  17.443   4.392  0.1063  0.1226 -0.1717
30321W        W46455  11.615  14.011  16.192 -0.0992 -0.2034  0.3457
30322W        W46456  17.767   3.619  11.094  0.3775 -0.3479  0.4607
30323W        W46457  15.975   6.971  13.233 -0.2157 -0.2748 -0.4281
30324W        W46458  11.158   3.932   0.294 -0.1140 -0.0813  0.1246
30325W        W46459  17.613  18.058  16.128  0.0263 -0.1467  0.0137
30326W        W46460   5.243   7.005   4.379 -0.2639 -0.1025 -0.0960
30327W        W46461  12.393   5.268   1.837 -0.2807  0.0702 -0.0014
30328W        W46462   5.287   6.056  13.140 -0.2885 -0.0665  0.1452
30329W        W46463  12.201   5.540   2.650 -0.2709  0.0382 -0.3768
30330W        W46464  12.123  15.323  14.178  0.1987  0.1549  0.1762
30331W        W46465   5.138   1.884   1.986 -0.0507  0.0974 -0.0263
30332W        W46466  10.167  16.988   4.742  0.0748  0.2955  0.1002
30333W        W46467  13.187   5.503   0.225 -0.1635  0.0707 -0.0351
30334W        W46468   6.658   0.693   3.580  0.3793 -0.1422  0.1305
30335W        W46469  12.261   6.184   2.114 -0.4370 -0.0671 -0.0015
30336W        W46470   3.227   0.608  15.303  0.3143 -0.2445 -0.0261
30337W        W46471  12.516  10.126   1.980  0.0610 -0.0793 -0.0086
30338W        W46472   9.133  14.009   1.882  0.2644  0.0690 -0.0473
30339W        W46473  14.823  14.282  14.195 -0.0579  0.0685 -0.2012
30340W        W46474  13.868   5.085   2.592 -0.0495  0.1135  0.0363
30341W        W46475  16.519   4.787   0.310  0.1899 -0.1476  0.0558
30342W        W46476   5.360  10.222   2.458  0.1204  0.2079  0.0470
30343W        W46477   1.681  13.374  10.563  0.2167  0.0558 -0.1271
30344W        W46478  12.990   3.867   1.590 -0.1726  0.1450  0.2571
30345W        W46479  13.052   8.878   0.823 -0.1477 -0.0733 -0.1248
30346W        W46480   5.672  17.390  12.592 -0.4428  0.1730  0.1137
30347W        W46481   0.212   0.979  15.515  0.2293 -0.4132 -0.1573
30348W        W46482   8.668  15.509  14.472  0.1010 -0.1532 -0.4223
30349W        W46483  11.614  11.588  12.578  0.1135  0.3486 -0.0698
30350W        W46484   7.382  12.022  15.875 -0.3059  0.1904 -0.0925
30351W        W46485   7.120  14.298   1.003  0.4352 -0.2198 -0.0540
30352W        W46486   6.174  11.326   5.340  0.1429 -0.2864 -0.0261
30353W        W46487  15.972   0.622   0.137 -0.1283 -0.0770  0.1445
30354W        W46488   9.781   8.750   0.317  0.1340 -0.2455  0.0959
30355W        W46489   5.934  10.644   1.898 -0.2527  0.1320 -0.0518
30356W        W46490   0.691   5.063  14.771  0.1499  0.0627 -0.0640
30357W        W46491  17.557   5.711   4.705  0.0160 -0.0947  0.0164
30358W        W46492  17.275   6.300   3.094  0.0684  0.0977  0.1072
30359W        W46493   3.230   1.815   3.279 -0.0035 -0.2807 -0.0457
30360W        W46494   5.215   3.386  11.367  0.2595 -0.1687  0.1463
30361W        W46495   8.974  14.451   4.584  0.0678  0.4036 -0.3320
30362W        W46496  14.051   7.348   4.584  0.0809 -0.1246 -0.4859
30363W        W46497  12.227  16.789   5.506  0.3001 -0.0086  0.3707
30364W        W46498   7.322   3.442  14.833  0.0558 -0.2032  0.1528
30365W        W46499  18.098   7.584  13.668 -0.0604  0.1702 -0.0714
30366W        W46500  14.478   0.795  13.097 -0.1347 -0.1199 -0.2531
30367W        W46501  17.585   2.273  13.328 -0.0723 -0.2506 -0.2660
30368W        W46502   2.040   7.234   3.788  0.1016  0.0190 -0.1709
30369W        W46503  13.341   9.625  15.787  0.0784 -0.2884 -0.1139
30370W        W46504   8.476  17.065   3.922 -0.1304 -0.2015 -0.0128
30371W        W46505   2.042   1.337   0.315 -0.1683 -0.1833 -0.4790
30372W        W46506   5.414   5.375  13.375  0.1148 -0.2721  0.0808
30373W        W46507   0.287   9.687  15.934 -0.1920 -0.0759 -0.1084
30374W        W46508   7.110  13.700  12.497 -0.1806  0.0115 -0.1938
30375W        W46509  11.342   8.582  14.420 -0.1117 -0.1953 -0.1730
30376W        W46510   3.446  13.263   3.689  0.1763  0.0561 -0.0661
30377W        W46511  14.573   6.867   0.396 -0.2031  0.3104  0.2502
30378W        W46512  13.059   0.209  12.756 -0.3988 -0.1291  0.1595
30379W        W46513   7.538   6.945   0.596  0.1837 -0.2382 -0.0228
30380W        W46514   2.210  14.512  11.337  0.0039 -0.2405  0.3609
30381W        W46515  12.449   6.743  14.092  0.0773  0.1249 -0.0181
30382W        W46516   8.056  10.957  15.604  0.1037 -0.0468  0.2105
30383W        W46517   1.548  12.194   4.146 -0.0365 -0.0376 -0.0050
30384W        W46518  16.165   8.144  13.927  0.0905 -0.2320  0.0140
30385W        W46519  12.647  17.338  12.609 -0.1044 -0.0491  0.0965
30386W        W46520  13.796   1.796   5.109 -0.0651 -0.1225  0.1659
30387W        W46521  13.830  11.365   0.992 -0.1397 -0.1212 -0.0903
30388W        W46522  13.530  15.130   2.222  0.0135 -0.0358 -0.1146
30389W        W46523   4.067   0.825  13.068  0.1611 -0.1608 -0.3854
30390W        W46524   1.724  13.297   3.038 -0.0754 -0.0265 -0.1600
30391W        W46525  10.291   1.224  13.125 -0.1195 -0.1628 -0.0289
30392W        W46526   8.921  11.522   5.000 -0.0797 -0.1476  0.2635
30393W        W46527   5.987  11.861   2.668 -0.1718  0.0967  0.0729
30394W        W46528   8.616  14.090  14.722 -0.1153 -0.2474 -0.1316
30395W        W46529   9.937  14.735  12.776 -0.0726 -0.0945  0.0112
30396W        W46530   8.358   0.837   2.796  0.1429 -0.2113  0.0562
30397W        W46531  16.297  14.392  13.474  0.1244 -0.0104 -0.1481
30398W        W46532   5.489  13.021   2.438  0.3081 -0.1942 -0.0522
30399W        W46533  16.647   6.482   4.425 -0.5656  0.2479  0.1145
30400W        W46534  13.140  10.973  12.245 -0.0077  0.0281  0.0723
30401W        W46535   8.352  12.428   5.056 -0.1012 -0.1293 -0.0788
30402W        W46536   8.884   3.973  13.450  0.2384 -0.1274  0.4251
30403W        W46537   4.657  15.281  11.620 -0.1998  0.0721 -0.2791
30404W        W46538  10.102   6.592   2.355 -0.0822 -0.0032 -0.1938
30405W        W46539   4.701   1.315  11.602 -0.1000  0.0550  0.2348
30406W        W46540  15.964   8.673   4.108 -0.2363 -0.1369  0.0109
30407W        W46541   6.670  16.914   4.189  0.1012 -0.0125 -0.0044
30408W        W46542  10.312   8.837   5.701 -0.2639 -0.1567 -0.0419
30409W        W46543   7.845   6.956   2.021 -0.0080  0.0618  0.0131
30410W        W46544   3.308   7.070   3.164 -0.1138 -0.3868  0.1489
30411W        W46545  15.806  14.740   2.803  0.2502 -0.0087  0.1702
30412W        W46546   3.884   9.807  15.536 -0.0859  0.0443  0.0543
30413W        W46547  14.845   0.863   5.371 -0.2359  0.0048 -0.1923
30414W        W46548  16.119   6.744   0.688  0.1518  0.1283  0.1266
30415W        W46549  10.939   8.075   2.620 -0.3008  0.4181 -0.0147
30416W        W46550  16.140   8.097  11.157  0.3256  0.1708  0.1638
30417W        W46551  12.669  16.033   4.490 -0.2153 -0.1360 -0.1793
30418W        W46552   1.132   3.070   2.035 -0.0198 -0.0592  0.1285
30419W        W46553   9.231   4.523  13.364  0.0767 -0.0544  0.0504
30420W        W46554  16.589   2.654   5.678  0.0215 -0.0266 -0.0669
30421W        W46555   1.068   8.795   1.071 -0.0886  0.1241  0.0180
30422W        W46556  15.764   7.666   2.745 -0.3993 -0.3149  0.0957
30423W        W46557   2.088  16.872  12.175 -0.0690 -0.2560 -0.2103
30424W        W46558   0.360  12.172   0.478 -0.0568 -0.0677  0.5324
30425W        W46559   7.050  10.745   0.704  0.0233 -0.0539  0.0236
30426W        W46560   5.186  16.869  11.709 -0.4034 -0.3667 -0.1158
30427W        W46561  17.914   2.309   3.990 -0.3388 -0.2668  0.0545
30428W        W46562  15.005   8.435   3.054 -0.2323  0.1035  0.0941
30429W        W46563  17.593   3.175   4.013  0.2758 -0.1084  0.1570
30430W        W46564   6.813  16.171  14.560  0.2430 -0.3158  0.2737
30431W        W46565   8.976  14.925   1.823 -0.0863 -0.1341  0.0304
30432W        W46566   1.705  13.897  16.130 -0.2370 -0.0448 -0.2389
30433W        W46567  12.251   8.010   2.318 -0.3559 -0.2189  0.1997
30434W        W46568   4.431   5.387  13.125 -0.2277  0.0741  0.1849
30435W        W46569   3.591   9.312  13.724 -0.1825 -0.0089  0.2293
30436W        W46570   7.955  11.033  14.156 -0.2143 -0.4347  0.0651
30437W        W46571   1.187   0.118  14.734 -0.0135 -0.0844  0.4494
30438W        W46572   9.868   1.718  12.499 -0.2880  0.2558  0.1283
30439W        W46573  12.607   4.753   2.975  0.1114  0.3093 -0.1578
30440W        W46574  10.433   0.849   2.193 -0.1308 -0.0832 -0.0646
30441W        W46575   5.586   2.280   2.753 -0.2917 -0.0337 -0.0325
30442W        W46576   4.570  17.399  12.816  0.2866  0.0754  0.0969
30443W        W46577   8.272  14.627  13.530  0.0222  0.0702 -0.0514
30444W        W46578  13.568   6.159  15.312  0.1552 -0.1436  0.1076
30445W        W46579  15.598  17.206   3.161  0.0416 -0.0414  0.1644
30446W        W46580   4.037  16.278  16.441  0.0833 -0.1533 -0.1069
30447W        W46581   7.660   4.941   4.690  0.1339  0.2208  0.3006
30448W        W46582  12.321   2.283   4.465  0.2031  0.2483 -0.1717
30449W        W46583   2.973   1.404   4.903 -0.4194  0.1968 -0.1325
30450W        W46584   6.959   4.399  13.116  0.2073 -0.2357  0.2625
30451W        W46585   9.463   9.024  10.166 -0.1469  0.3682  0.4740
30452W        W46586   1.444  17.283  16.483  0.1641  0.1516 -0.0496
30453W        W46587   6.414  16.553   5.220  0.0846  0.0126  0.0783
30454W        W46588   8.265  10.912  12.181 -0.1406 -0.4047  0.0922
30455W        W46589  10.396  16.462   5.293  0.2414  0.2401 -0.1064
30456W        W46590   0.077  17.218   0.374 -0.1293  0.1287 -0.0445
30457W        W46591   3.665   5.703   3.457 -0.1674 -0.2349 -0.0375
30458W        W46592  11.525   0.591   1.289  0.1397 -0.1090 -0.1423
30459W        W46593  15.799  10.318  11.770  0.0574  0.0972  0.0114
30460W        W46594  15.237   7.697   0.016 -0.1063  0.2736 -0.0774
30461W        W46595  16.945  10.867   5.347  0.0160  0.1102  0.0547
30462W        W46596   6.352   0.728  15.337 -0.1657  0.1569 -0.0830
30463W        W46597   9.934  11.280   1.003 -0.0514  0.0651  0.4397
30464W        W46598   4.058   7.820  14.380 -0.1236  0.1440  0.1286
30465W        W46599   5.661  15.098   3.089 -0.0343  0.0314 -0.1916
30466W        W46600   6.932   4.852  12.258 -0.3665 -0.0531 -0.2143
30467W        W46601   0.702  14.266   5.202 -0.1033  0.2625  0.1436
30468W        W46602   4.878   4.454  12.295  0.0488  0.1080  0.1188
30469W        W46603   5.682   2.587   0.236 -0.0479  0.1978 -0.0690
30470W        W46604  16.123   7.719   0.560  0.1582 -0.1830  0.0391
30471W        W46605  11.797  16.054   5.052 -0.0838  0.1907  0.0223
30472W        W46606  11.816  14.360   4.066 -0.3677 -0.0461  0.0349
30473W        W46607   5.600   6.340  12.950 -0.0363  0.0761 -0.1979
30474W        W46608   3.352  10.324  15.146 -0.0415 -0.2228  0.0645
30475W        W46609  13.801   3.845  12.932 -0.2528 -0.1514  0.3968
30476W        W46610  17.296  10.001  15.343  0.1140 -0.0008  0.1456
30477W        W46611   1.112  16.775  15.390 -0.0226 -0.0071 -0.1395
30478W        W46612   1.099   3.146   3.068 -0.2502 -0.0671 -0.1932
30479W        W46613  14.253  17.963   5.800 -0.1985  0.1882  0.2471
30480W        W46614   5.411   3.258  16.245  0.2078 -0.0553  0.0811
30481W        W46615   9.663  14.969   3.477  0.3149 -0.0922  0.0732
30482W        W46616  14.393   7.361   0.507  0.1791 -0.0853 -0.0639
30483W        W46617  11.063   2.750   1.505 -0.1626 -0.1770 -0.0537
30484W        W46618  12.674  10.509   3.982  0.0483 -0.0410 -0.0842
30485W        W46619  10.605   8.597   4.102  0.1387 -0.1489  0.0025
30486W        W46620   2.583  13.301   4.090  0.3642  0.0478 -0.1785
30487W        W46621  15.459  12.387  12.940 -0.3702  0.2494  0.2292
30488W        W46622   4.066   8.885   5.171  0.1218 -0.0338  0.2438
30489W        W46623  10.624  10.106   0.222  0.0599 -0.2709  0.0350
30490W        W46624   9.439  11.269   2.302  0.4025  0.0292  0.1015
30491W        W46625   1.135  14.883   5.138  0.0318  0.0726  0.0319
30492W        W46626  13.848  16.372   5.520  0.1541  0.0054 -0.5143
30493W        W46627   5.140  14.164   5.921  0.0598  0.0404 -0.1999
30494W        W46628   4.791   9.781  14.728 -0.0653  0.1681 -0.3664
30495W        W46629  17.669   5.797   0.230 -0.0705 -0.0071  0.0865
30496W        W46630   4.031   4.709  13.931  0.0982  0.1183 -0.0255
30497W        W46631   9.417  13.768   3.022  0.0479  0.0173  0.0307
30498W        W46632  17.709  17.000  14.610 -0.1148 -0.0381 -0.0272
30499W        W46633  15.320   6.760  11.918  0.1083  0.0964 -0.0988
30500W        W46634   5.600   3.445   2.077  0.2558 -0.1435  0.1786
30501W        W46635   8.699   6.681   4.233  0.3843  0.0433 -0.2695
30502W        W46636   1.068   6.100  15.676  0.1282  0.2592  0.0410
30503W        W46637   5.568  16.637   2.597  0.0643  0.1690 -0.1011
30504W        W46638  12.167   6.969   1.992 -0.3206 -0.0943 -0.1111
30505W        W46639   5.206   6.561   0.326  0.2807 -0.2463 -0.1463
30506W        W46640   6.400   6.409  12.521 -0.2519 -0.2558  0.2503
30507W        W46641  17.585   8.927   3.281 -0.0091  0.1666 -0.2535
30508W        W46642   4.522  13.024  11.544  0.3174 -0.4357 -0.1193
30509W        W46643  16.347  15.578   2.551 -0.3693 -0.0297 -0.0827
30510W        W46644   2.227   1.650   4.579  0.0993  0.0791 -0.1246
30511W        W46645   3.762   9.665  15.040  0.0733  0.0356 -0.1186
30512W        W46646  12.964   1.463  11.762  0.1227  0.0867 -0.0350
30513W        W46647   2.002   1.268   4.351  0.4308  0.0656 -0.1330
30514W        W46648  15.476   7.311   1.342  0.2159 -0.1422  0.0662
30515W        W46649   6.402   0.206   3.398 -0.2167 -0.3813  0.1303
30516W        W46650   4.596   2.634   5.125 -0.0554  0.1842 -0.0849
30517W        W46651  16.081  17.955  11.903 -0.0374 -0.1852 -0.0174
30518W        W46652   4.004  15.173   5.902  0.1795 -0.1781 -0.0057
30519W        W46653  14.009  14.123  16.477  0.0958  0.1128 -0.0486
30520W        W46654   6.078  17.805  15.651  0.0000  0.3922  0.1804
30521W        W46655   7.387  15.949   1.975  0.1411 -0.0348  0.0155
30522W        W46656   0.182   3.826   1.088 -0.1459  0.0262  0.1452
30523W        W46657   6.840  11.733  14.588  0.0785 -0.1010  0.1017
30524W        W46658   8.848   9.799   2.959 -0.1750  0.0717  0.0102
30525W        W46659   4.530  14.894  14.320 -0.1535 -0.0954 -0.2322
30526W        W46660  15.213   3.737   1.626 -0.1442 -0.1987  0.0277
30527W        W46661  17.787   1.307  14.226  0.0254  0.2026 -0.3174
30528W        W46662   6.668  15.182  13.080  0.4051 -0.1466 -0.1244
30529W        W46663  15.983   1.662   1.287 -0.0113  0.1247  0.1417
30530W        W46664   1.724  11.265   4.387 -0.2530  0.0590 -0.1451
30531W        W46665   9.490  18.084   0.831  0.1608 -0.0421 -0.0177
30532W        W46666   3.441   8.128  13.846 -0.0550 -0.0970  0.2079
30533W        W46667   9.300   8.124  12.842  0.1766  0.2792  0.0109
30534W        W46668   0.146  17.443   2.699 -0.2231 -0.0135  0.2502
30535W        W46669   5.796   2.947  16.388  0.4790  0.0026 -0.2455
30536W        W46670  12.143  14.148   1.258  0.0440 -0.1104 -0.1394
30537W        W46671  11.318   3.615   0.602 -0.2822  0.0088  0.0969
30538W        W46672  17.975  17.309   0.797  0.0314  0.1599 -0.3240
30539W        W46673  11.525   3.605  13.408 -0.1246 -0.1264  0.1296
30540W        W46674  11.820  15.000   2.848  0.0830  0.2281  0.4548
30541W        W46675  10.510  14.607   4.116  0.1925 -0.1038 -0.0066
30542W        W46676   9.170   3.019   0.616 -0.1467  0.0674  0.4304
30543W        W46677   3.704  15.101   2.803 -0.2829  0.0012  0.0792
30544W        W46678   3.138  14.535  15.462  0.0193  0.0077 -0.1563
30545W        W46679  16.157   5.515  14.834  0.0770  0.3273  0.1055
30546W        W46680  12.579  14.481   4.883  0.2196  0.5320 -0.0168
30547W        W46681   4.439   6.022   0.178 -0.2345  0.0471  0.1383
30548W        W46682  12.666  15.142  16.441 -0.0926 -0.0551  0.2509
30549W        W46683   4.479  12.867   0.382  0.1489  0.2517  0.1169
30550W        W46684   3.296   6.781   2.112 -0.1757  0.2234 -0.0739
30551W        W46685   1.226   4.356  13.767 -0.1554  0.0910  0.0123
30552W        W46686   8.983   5.137  11.547  0.2938  0.0135  0.1523
30553W        W46687  13.610   1.829  12.385  0.3662 -0.2405  0.0789
30554W        W46688   1.703  10.924   4.052 -0.0325 -0.0917 -0.1623
30555W        W46689   6.517  14.648   3.638 -0.0632 -0.1256 -0.1359
30556W        W46690   2.931   5.877   3.696 -0.3381  0.1607 -0.1233
30557W        W46691  17.313  14.753   2.983  0.0930  0.2326  0.0062
30558W        W46692  17.661  16.475  12.727 -0.1013  0.5252 -0.0601
30559W        W46693  13.997  11.136  12.775 -0.2031  0.0865  0.1424
30560W        W46694  13.264  16.644   1.078 -0.0560  0.1713 -0.3306
30561W        W46695  15.679   4.625  16.290  0.3514 -0.0859  0.0532
30562W        W46696   6.928   5.960  14.777 -0.1332 -0.0388 -0.1769
30563W        W46697  15.306   7.810  13.226  0.1376 -0.1698  0.0406
30564W        W46698  12.069   9.465  11.254  0.1308 -0.0418  0.0236
30565W        W46699  11.827  16.612   5.216  0.0321  0.0908  0.1643
30566W        W46700   3.486   1.402  12.406 -0.0408 -0.1825  0.0923
30567W        W46701   6.308   1.193  16.503  0.1336 -0.2330  0.1924
30568W        W46702  14.537  17.808  13.392 -0.2364  0.1351  0.0125
30569W        W46703   3.057   5.259   1.587  0.2582  0.2291 -0.0333
30570W        W46704  10.188   6.057   3.234  0.0873  0.0769 -0.2020
30571W        W46705   3.776   1.721  16.111  0.2815  0.1173  0.1006
30572W        W46706  17.429   0.963   2.345 -0.1751  0.0630  0.2669
30573W        W46707   5.182   8.667   0.538 -0.0807  0.5374 -0.0401
30574W        W46708   6.431   2.055   0.714 -0.0165  0.3148  0.2248
30575W        W46709   3.552   0.287   4.047 -0.1679 -0.3138  0.1363
30576W        W46710  16.642   3.713  13.740 -0.0019 -0.0075  0.1460
30577W        W46711  13.059  14.281   0.178  0.2458 -0.5147  0.1236
30578W        W46712   4.335   4.636   5.570  0.1033 -0.0082 -0.0605
30579W        W46713   7.786   7.063   3.231 -0.1024 -0.1123 -0.4026
30580W        W46714  11.294   4.935  16.476  0.1449  0.0990  0.0008
30581W        W46715  13.686  13.323   3.056 -0.2671  0.0535 -0.2213
30582W        W46716   1.634  14.054   6.081 -0.0509  0.0653 -0.1340
30583W        W46717  15.134  12.656   1.353  0.1269  0.0894  0.1930
30584W        W46718   9.388  10.791  11.277 -0.1338  0.0409  0.1368
30585W        W46719   6.828   5.712  16.184  0.1918  0.1017 -0.0656
30586W        W46720  10.277  14.069   3.400  0.0544  0.1099 -0.0571
30587W        W46721  13.907  11.402  14.217 -0.0434  0.1286  0.3117
30588W        W46722   4.147  17.438   4.412  0.1967  0.1215 -0.0514
30589W        W46723   9.003  15.338   4.079  0.2196  0.0634  0.1380
30590W        W46724  15.817  10.506  13.308  0.0781 -0.1061  0.1051
30591W        W46725   2.818   0.575   0.359 -0.1064 -0.0114 -0.2365
30592W        W46726  10.046   8.114  15.994  0.0499  0.1510  0.1818
30593W        W46727   8.629   9.756   0.279 -0.0618 -0.0360  0.0979
30594W        W46728  13.974  11.041   3.584 -0.0578  0.1720  0.0743
30595W        W46729   1.141   3.544   1.484  0.2772 -0.1477  0.1414
30596W        W46730   9.628  15.054   5.879 -0.3535  0.1623 -0.0556
30597W        W46731   9.261   5.454   0.363 -0.1907  0.1062 -0.0402
30598W        W46732  15.029  13.505   2.929  0.2771 -0.0387 -0.0501
30599W        W46733  18.005   6.846   0.166  0.2261 -0.0084 -0.4368
30600W        W46734   2.857   7.122  10.861  0.1129  0.0926 -0.2180
30601W        W46735  12.488   9.457   1.298  0.0868  0.2219  0.0275
30602W        W46736   9.143   1.185   1.609  0.3569 -0.1556 -0.0906
30603W        W46737   6.989   8.044  14.587  0.0610  0.3062 -0.1483
30604W        W46738   3.338   6.121  11.715 -0.0726  0.2820  0.0983
30605W        W46739  17.854   8.239   2.063 -0.0294  0.3680 -0.0286
30606W        W46740   3.621  11.162   2.342  0.3807 -0.0171  0.2653
30607W        W46741  13.016   7.076  14.647  0.0413  0.0900  0.0637
30608W        W46742   8.212   3.430  13.306 -0.1042 -0.0110  0.0332
30609W        W46743   3.303   0.861   1.862 -0.0919  0.3130 -0.0231
30610W        W46744   4.479  16.969  13.100 -0.2832  0.0191 -0.1760
30611W        W46745  16.751  16.388  12.777 -0.0517  0.0990  0.0393
30612W        W46746  15.414   0.135  16.166  0.1991 -0.1453  0.0573
30613W        W46747  14.464  17.955  14.475 -0.0073 -0.2903  0.0328
30614W        W46748  13.281   2.420  16.115  0.4258  0.0273 -0.1743
30615W        W46749  17.919   9.804  15.956 -0.1353  0.0908  0.2398
30616W        W46750  11.249   9.608  16.466 -0.2732 -0.1953  0.1832
30617W        W46751   4.319   8.965  13.043 -0.0229 -0.0187 -0.0304
30618W        W46752   0.251   6.520  15.359  0.1688 -0.1696 -0.0628
30619W        W46753   0.992  10.196  11.261 -0.1137 -0.2413  0.1013
30620W        W46754  13.433  13.957  14.917 -0.0959 -0.1380 -0.1079
30621W        W46755   1.362   0.987  12.204  0.2257  0.0701  0.2384
30622W        W46756   9.935   7.589   3.998  0.4214  0.0465  0.1210
30623W        W46757   1.073   4.872  15.214  0.0490 -0.0878  0.0588
30624W        W46758   6.286   5.335  12.831  0.0533  0.1962 -0.2422
30625W        W46759  15.390   8.097   9.814  0.0131  0.1258  0.0599
30626W        W46760   0.832  16.510   5.659  0.0689 -0.2364  0.2386
30627W        W46761   4.606  12.396  14.305  0.2819  0.1096  0.3854
30628W        W46762  11.357  12.975   4.819 -0.0726 -0.1056  0.0117
30629W        W46763   1.745   0.418   0.742 -0.0315  0.1296 -0.0705
30630W        W46764   1.807   0.053  12.077 -0.3549 -0.0799 -0.0467
30631W        W46765   2.729   8.876  11.558  0.0267  0.1104 -0.0506
30632W        W46766  14.579  15.965   5.931  0.3149 -0.0085 -0.0033
30633W        W46767   1.377   0.926   0.502  0.5264 -0.2709 -0.0254
30634W        W46768  14.317   4.515  14.015  0.0585 -0.1727 -0.0035
30635W        W46769  17.792   4.238  12.261 -0.1406  0.0546  0.3654
30636W        W46770   1.464  10.796  13.972 -0.0305 -0.0592  0.0047
30637W        W46771   2.884  13.492   1.713  0.0349 -0.2572 -0.1430
30638W        W46772   8.987  10.018   0.642 -0.0602  0.0072 -0.0268
30639W        W46773  15.129   5.702  13.221 -0.0109  0.1685 -0.0429
30640W        W46774  15.551  12.843  14.668 -0.0918  0.0566  0.2090
30641W        W46775  12.977   4.114   4.318  0.1218  0.1058  0.0630
30642W        W46776   4.082  16.173  13.012  0.2237 -0.2262 -0.1849
30643W        W46777  12.887   1.537   4.491 -0.3157  0.0758 -0.0605
30644W        W46778   2.203  11.603   5.319  0.0295 -0.1733  0.2251
30645W        W46779   8.121  10.113   5.512 -0.0519  0.2183  0.0628
30646W        W46780  15.868  13.033  15.596  0.0973  0.0130 -0.0479
30647W        W46781  10.216  15.594  11.883  0.1793  0.2316 -0.3820
30648W        W46782  12.438   2.634  13.178 -0.0406 -0.0472 -0.0021
30649W        W46783  14.673   5.971  11.043 -0.0371  0.1390  0.2140
30650W        W46784  13.203   1.433  16.312 -0.0256  0.1544  0.0773
30651W        W46785  16.408   1.484  12.918 -0.0947  0.3409 -0.0126
30652W        W46786   0.041   1.764  12.807  0.1221  0.1786  0.0107
30653W        W46787   9.762  17.284   4.661  0.0600  0.0248  0.1374
30654W        W46788   3.503   9.104   5.966  0.0774 -0.1629 -0.0008
30655W        W46789   3.064  16.972   2.886  0.0321 -0.0939  0.1008
30656W        W46790   5.042  15.291  12.125  0.0660  0.0766 -0.0721
30657W        W46791   3.497   6.147  12.965 -0.0867 -0.1880 -0.3781
30658W        W46792  15.205  14.022  16.366 -0.1584 -0.0792  0.1613
30659W        W46793  10.980   4.476   0.128 -0.1836 -0.0390  0.0040
30660W        W46794  14.353   4.851  14.332  0.1678  0.2581  0.0513
30661W        W46795   8.924   5.232  15.705 -0.1961  0.0947  0.0850
30662W        W46796   2.156  13.683   2.992 -0.0052 -0.0357 -0.1654
30663W        W46797  15.202   8.319   4.390 -0.0962  0.1477  0.2430
30664W        W46798  14.304  15.138   2.793 -0.3251  0.2084 -0.0451
30665W        W46799   3.389   1.756  15.725  0.2991 -0.1084  0.0119
30666W        W46800   6.419  16.468   3.981  0.0120 -0.0859  0.1205
30667W        W46801   3.338   8.264   4.001 -0.2293  0.1704  0.0960
30668W        W46802  16.317   3.445  15.069  0.2976 -0.0535 -0.0784
30669W        W46803   4.948  16.740  15.202 -0.0995 -0.1765  0.0162
30670W        W46804  16.246   6.275   2.810  0.0547 -0.3520 -0.0098
30671W        W46805  10.605  17.538  15.767 -0.1061  0.1593  0.1566
30672W        W46806  16.140  10.641  11.643  0.1659 -0.0466  0.2057
30673W        W46807   0.359  16.387   1.412  0.2385  0.0608 -0.0187
30674W        W46808   2.648   0.845   1.050 -0.1566  0.2090 -0.1117
30675W        W46809  10.741  17.431  14.860  0.0137 -0.1350  0.2103
30676W        W46810  12.852   0.802   1.269 -0.4127 -0.1821  0.2029
30677W        W46811   0.529   1.154  15.000  0.2295 -0.1646 -0.1934
30678W        W46812   3.569   4.381   3.821  0.2198 -0.1266 -0.0627
30679W        W46813  10.765   5.060   1.230  0.2460 -0.1902 -0.2118
30680W        W46814   9.895   4.517  11.542 -0.1133  0.1742  0.2745
30681W        W46815   6.713   9.935   0.280 -0.1889  0.3675 -0.2788
30682W        W46816  12.479   8.909  12.396 -0.0103 -0.0814 -0.0177
30683W        W46817   8.497  10.376  15.252  0.1183  0.1761  0.2852
30684W        W46818   4.017   5.131  13.078  0.0643 -0.1570 -0.0255
30685W        W46819   6.772   4.717  14.496 -0.1836 -0.2955 -0.2924
30686W        W46820  14.856   5.616  15.592  0.1178  0.1084 -0.2094
30687W        W46821  11.459   6.043   3.380 -0.2043  0.0828 -0.0734
30688W        W46822   3.782  17.770  13.043 -0.0938 -0.0585 -0.0477
30689W        W46823   5.821   2.198  14.312 -0.0240 -0.2088  0.0650
30690W        W46824   6.695   6.715  11.221  0.1147 -0.1834  0.0070
30691W        W46825   0.422  11.819  14.736 -0.0083  0.0899 -0.0273
30692W        W46826  14.089  10.058   5.776  0.0879  0.1608  0.0584
30693W        W46827  14.255   8.268  11.252  0.0455  0.1719 -0.0740
30694W        W46828   6.201   0.611  14.570  0.4897 -0.0193  0.0176
30695W        W46829   9.549   0.498   2.262 -0.1276 -0.0343  0.1363
30696W        W46830   1.570   3.905   0.708 -0.1604 -0.0353 -0.1545
30697W        W46831   8.432  10.233   1.748  0.1937  0.0982  0.1642
30698W        W46832   7.799   2.513  13.771 -0.3131  0.1508  0.0177
30699W        W46833  12.450  12.446   0.441 -0.2398 -0.1581 -0.2234
30700W        W46834  11.970  17.105   5.847  0.0876 -0.2822 -0.0026
30701W        W46835  12.307   8.221   5.146 -0.0861  0.1955 -0.4148
30702W        W46836   5.306   1.761   2.475  0.0305  0.1055  0.2402
30703W        W46837   6.254   1.087   0.978  0.0694 -0.1220 -0.2267
30704W        W46838   7.094  11.509   0.147  0.2359 -0.1805  0.2988
30705W        W46839  15.238  16.412   0.764  0.0530 -0.2087 -0.1182
30706W        W46840  16.636   6.105   1.253  0.0853  0.0978  0.1174
30707W        W46841  10.231   9.389  14.550 -0.0476  0.5570  0.1923
30708W        W46842   6.529  15.693   0.597 -0.3691 -0.3293  0.0341
30709W        W46843  13.593  16.359   0.255 -0.0642  0.0626  0.0024
30710W        W46844  12.409  10.131   3.128  0.1553  0.0855 -0.0738
30711W        W46845   6.790   5.532   0.235  0.0531 -0.0923 -0.1936
30712W        W46846   6.632  11.301  16.459 -0.0602 -0.1920 -0.0993
30713W        W46847  15.852  14.109   6.604  0.4566  0.0624 -0.2494
30714W        W46848   6.674  14.892  11.004 -0.0118  0.3038  0.2136
30715W        W46849   3.987   2.420  13.938  0.3101 -0.1320 -0.0309
30716W        W46850   5.234   1.827  12.371 -0.2065 -0.3867  0.2067
30717W        W46851   2.851   2.751   3.062 -0.2644 -0.3102 -0.2437
30718W        W46852   0.848   6.191   2.165 -0.0894  0.1410  0.0925
30719W        W46853   0.471   7.508  14.948 -0.1579 -0.2309 -0.1407
30720W        W46854  12.733  16.230  16.258 -0.0223  0.0353  0.0749
30721W        W46855   4.915   3.141  13.013 -0.0429 -0.1393 -0.0559
30722W        W46856  11.011  13.467   0.776 -0.0785  0.1127 -0.2406
30723W        W46857  12.995   0.774  12.944  0.1466 -0.0905  0.1574
30724W        W46858   0.596  14.978   3.877  0.4668  0.1254  0.0293
30725W        W46859   9.280  14.033   0.501 -0.0870  0.0061 -0.0697
30726W        W46860  15.880   9.678  14.818  0.0388 -0.3521 -0.0511
30727W        W46861  14.962   4.061   1.305  0.0172 -0.2692  0.0584
30728W        W46862  13.444   2.672  14.006 -0.0889  0.1686 -0.2644
30729W        W46863   1.100   8.111  14.432  0.0509  0.1473 -0.1325
30730W        W46864  12.115  16.819   0.108  0.0340  0.0446  0.2345
30731W        W46865  16.285   9.826   1.850  0.0749 -0.0957  0.0273
30732W        W46866  12.556   6.662   2.132 -0.3582 -0.0597  0.0034
30733W        W46867   0.634   9.311   9.785 -0.0747 -0.0038 -0.1577
30734W        W46868   2.260   3.355   4.625  0.0472  0.0485 -0.2055
30735W        W46869  17.609  18.158  11.204 -0.1625 -0.3424 -0.0017
30736W        W46870   6.277   1.355   4.367 -0.0490 -0.4769  0.2624
30737W        W46871   4.399   8.922  14.118  0.0805  0.1495 -0.0223
30738W        W46872   4.692  10.945   3.372 -0.2774 -0.1169 -0.0529
30739W        W46873   8.867   7.374   5.023  0.0152  0.2678  0.0836
30740W        W46874  15.918  15.164   0.956 -0.0444  0.0856  0.1201
30741W        W46875  15.975   7.030  11.183 -0.0996  0.1743  0.1334
30742W        W46876   8.127  10.475  11.081  0.1385 -0.2088  0.1369
30743W        W46877  12.530   6.894  12.948  0.3164 -0.2452  0.0027
30744W        W46878  14.425  11.403   1.199  0.0972  0.2891  0.2051
30745W        W46879   8.069   9.744   0.118 -0.0316  0.1479 -0.2646
30746W        W46880  15.616  11.819   2.644  0.3202 -0.2623  0.0297
30747W        W46881  17.370   0.047   0.755 -0.2637 -0.1122 -0.1975
30748W        W46882  12.619   7.239  13.432 -0.2152 -0.2456 -0.1203
30749W        W46883  13.978  14.669   4.209  0.0984  0.0995  0.0927
30750W        W46884   6.755  13.665  15.424  0.3909  0.0921 -0.1095
30751W        W46885   1.927   2.007   0.421  0.0557  0.0661  0.0470
30752W        W46886   3.097   0.990  16.244  0.2164 -0.4407 -0.1736
30753W        W46887   6.333  10.772  16.503  0.2202 -0.1687  0.0962
30754W        W46888   6.202   5.522  13.565  0.0120 -0.1926 -0.0957
30755W        W46889  12.461  18.113   2.183 -0.1462  0.0410  0.2418
30756W        W46890   2.128   5.149   1.142 -0.2898  0.1058  0.2012
30757W        W46891   9.663  16.317   4.713  0.1393  0.4341  0.0127
30758W        W46892   6.796  14.991  15.652 -0.0196 -0.2805 -0.1196
30759W        W46893   5.833   0.655   4.974 -0.1070  0.0623 -0.2963
30760W        W46894   2.791   3.318  15.420 -0.2895  0.2463 -0.1291
30761W        W46895   6.952   4.779   5.339 -0.0292 -0.1680 -0.0237
30762W        W46896  16.314  10.969   5.541 -0.0260 -0.1082  0.0902
30763W        W46897  10.783   4.353   1.940 -0.0901  0.0030 -0.1096
30764W        W46898   9.036  13.180  14.216 -0.3664  0.2333 -0.2539
30765W        W46899   6.380  13.579  14.779  0.2864 -0.1457 -0.2126
30766W        W46900  12.770  13.131  13.610  0.3498 -0.1863 -0.1273
30767W        W46901  13.770   0.903   3.726  0.1280  0.1427 -0.1286
30768W        W46902   0.942   0.826   4.746  0.0850 -0.0993  0.0865
30769W        W46903  11.898   6.658  12.556  0.1750  0.1521 -0.0871
30770W        W46904   8.089  14.169  12.655 -0.1826  0.0918  0.0079
30771W        W46905  17.844   2.721   3.308 -0.3013 -0.0519 -0.0638
30772W        W46906   1.172  14.963  15.929 -0.1481 -0.0586 -0.2987
30773W        W46907   8.568  15.685   3.856  0.1456 -0.0037 -0.0538
30774W        W46908  13.066  12.372  12.104 -0.0330 -0.0510 -0.0478
30775W        W46909   9.585   9.447  16.494 -0.0304 -0.2128  0.0442
30776W        W46910  12.422   0.209  11.669  0.0639 -0.1032 -0.0851
30777W        W46911  16.168  14.867  15.077  0.1578  0.0984  0.2362
30778W        W46912  11.088  11.435  12.467 -0.1564  0.2266 -0.0527
30779W        W46913  11.849   5.743  12.139 -0.1033 -0.0936 -0.0785
30780W        W46914   5.743   7.849   5.580 -0.2459  0.1647  0.0516
30781W        W46915   3.493   8.036  12.504  0.1129  0.0787 -0.1418
30782W        W46916  12.956   3.791   4.733 -0.0396 -0.0212 -0.0423
30783W        W46917  13.448   6.905   1.253 -0.1752  0.0834  0.1386
30784W        W46918  16.558   9.929   0.590  0.1687  0.1156 -0.2597
30785W        W46919   3.325  10.212   3.648 -0.0608  0.1692 -0.2376
30786W        W46920  14.393   1.550   0.964 -0.1241  0.2295 -0.0738
30787W        W46921   6.249   7.112  14.193  0.0312 -0.0736 -0.1693
30788W        W46922   7.525   9.490   3.691 -0.1150  0.1795 -0.3122
30789W        W46923   7.068  13.574  14.526 -0.2375 -0.4241  0.2371
30790W        W46924  12.272  17.515  16.403 -0.1326 -0.1231 -0.0908
30791W        W46925  15.041   1.520   4.964 -0.2233  0.2648  0.0459
30792W        W46926   4.860  14.073   2.068  0.2272  0.2539  0.3936
30793W        W46927  14.382  14.350   0.110  0.1527 -0.0115 -0.1120
30794W        W46928   9.567   6.960   0.635 -0.0056 -0.0554  0.0170
30795W        W46929   5.592  12.583   2.087 -0.1649 -0.4082 -0.0364
30796W        W46930  16.281  13.911   0.446 -0.1697 -0.2012 -0.0244
30797W        W46931  12.940   0.053  12.215  0.0290  0.1293 -0.3284
30798W        W46932   8.854  11.468   0.876  0.0651  0.1334  0.1590
30799W        W46933   4.790   5.610   5.469  0.0286  0.0193  0.0300
30800W        W46934  16.043  13.637  12.514  0.3624  0.3020 -0.1069
30801W        W46935   7.168   1.891  11.849 -0.1134  0.0613  0.0480
30802W        W46936   0.454  14.349   5.669  0.2083  0.0933 -0.0255
30803W        W46937  15.661   1.630  15.711 -0.0951 -0.2837 -0.0372
30804W        W46938  10.914  17.934  15.844  0.0983 -0.0107  0.1879
30805W        W46939   6.069   2.742   4.497 -0.2093 -0.0725  0.1835
30806W        W46940  15.939   4.487   5.576 -0.1553  0.0934 -0.0892
30807W        W46941   8.347  10.848   3.026 -0.1983 -0.1122 -0.2469
30808W        W46942   9.724  13.298  14.996 -0.2581 -0.0474 -0.2787
30809W        W46943   8.444  10.297  13.123  0.0808  0.0566  0.1585
30810W        W46944  12.880  17.394  15.659  0.1272 -0.3081  0.1184
30811W        W46945   7.602  17.247  11.957  0.1271 -0.0526  0.0111
30812W        W46946   6.328   5.002   0.316  0.1367  0.0269  0.1944
30813W        W46947   7.935  13.387  11.103  0.1460 -0.2272 -0.0749
30814W        W46948  12.448   1.229   1.085 -0.0738  0.0642 -0.0652
30815W        W46949   5.529   7.714   0.829 -0.2247  0.0410  0.1545
30816W        W46950   9.619   5.964   1.122 -0.0705  0.1168  0.2003
30817W        W46951   7.884  10.885  13.311  0.5032 -0.1613 -0.2015
30818W        W46952  12.489   1.440  15.637 -0.0229 -0.2401 -0.1116
30819W        W46953   0.057  12.172  12.721  0.3010 -0.2469 -0.4350
30820W        W46954   6.931  11.739  10.802  0.0089  0.1600 -0.0940
30821W        W46955   4.835   0.527  12.852 -0.1242  0.0828 -0.2836
30822W        W46956   7.593   2.225  11.989 -0.0867  0.0919 -0.0120
30823W        W46957  11.933   4.010  13.642  0.1697 -0.0159  0.1812
30824W        W46958   8.735   9.489   1.301  0.1694 -0.0435  0.0701
30825W        W46959  14.078  12.739  12.075 -0.4850 -0.1713  0.0116
30826W        W46960   9.435   3.181  13.046  0.2503 -0.1427 -0.1063
30827W        W46961   6.508  11.068   0.752  0.3492 -0.2430  0.0523
30828W        W46962   0.798   0.602  16.283  0.0333  0.0325 -0.2696
30829W        W46963  15.156  14.718   0.639  0.1306  0.4678 -0.0966
30830W        W46964   8.419   6.126  14.871 -0.1810 -0.3604 -0.1224
30831W        W46965   1.038  10.809   4.922  0.0560  0.1430 -0.2822
30832W        W46966   1.681  17.704   0.929 -0.2282  0.0083  0.2613
30833W        W46967  13.510   8.628  11.844 -0.0890  0.1692  0.4282
30834W        W46968   0.365   3.841   4.768  0.1152  0.1358  0.1128
30835W        W46969  13.635   7.310   3.257  0.2177  0.2348  0.3762
30836W        W46970   7.163  15.871  12.592 -0.1324  0.0792 -0.0986
30837W        W46971  16.640  13.591  12.953 -0.2248  0.2081  0.0014
30838W        W46972  18.032   0.032   4.296 -0.3919 -0.3123 -0.2984
30839W        W46973   1.354   1.075  13.265 -0.3201 -0.2378 -0.1163
30840W        W46974   8.229   2.650  14.576 -0.2047 -0.0748 -0.0206
30841W        W46975   4.800   2.355   2.078 -0.1462  0.2104  0.2227
30842W        W46976   1.236  14.163   2.063  0.0716  0.2361  0.2458
30843W        W46977  13.139  15.050   1.328 -0.2738  0.1506  0.0369
30844W        W46978   5.254  11.201  13.045 -0.1175 -0.2534 -0.0159
30845W        W46979  16.518  13.577  12.441  0.1326  0.0030 -0.1861
30846W        W46980   5.818  10.982  10.988  0.0866  0.0429 -0.2184
30847W        W46981  16.508  16.972   1.709  0.2426  0.2251 -0.0205
30848W        W46982   6.972   6.128  14.285  0.2755  0.0011  0.0721
30849W        W46983   1.218  15.486   3.749 -0.2489  0.0822  0.1370
30850W        W46984  12.331  10.772  12.459 -0.4922  0.1147  0.0388
30851W        W46985  18.059   9.313   5.400  0.3446  0.2444 -0.2252
30852W        W46986  17.486  12.753  16.127  0.1519 -0.2461  0.2131
30853W        W46987  17.860   4.922   4.902  0.1550 -0.2163  0.1636
30854W        W46988   7.075  11.295   3.318 -0.0626 -0.1533  0.0543
30855W        W46989   8.043  15.663  11.808 -0.2147  0.0952 -0.0609
30856W        W46990   3.185  13.881   4.872  0.0708 -0.0251  0.2946
30857W        W46991  14.856  11.821  14.093  0.3123 -0.1929  0.4884
30858W        W46992  15.684   8.324  14.169 -0.1055 -0.0631 -0.3974
30859W        W46993   3.188  12.907   4.728 -0.2528 -0.0849 -0.0480
30860W        W46994   2.366  14.586  16.012 -0.0174  0.0726 -0.3259
30861W        W46995   9.905   4.656  15.935  0.1444 -0.0478 -0.2391
30862W        W46996  17.531  14.125  15.861 -0.1350 -0.2522 -0.1556
30863W        W46997  17.866  10.035   0.165  0.0405 -0.2828 -0.0581
30864W        W46998  12.922   0.611  15.334 -0.0668  0.3281 -0.0176
30865W        W46999  17.410   2.187  12.098  0.1689  0.0288  0.1171
30866W        W47000  17.775   6.422   4.969  0.0343 -0.3543 -0.0177
30867W        W47001   3.668  17.786   5.514  0.1055 -0.0731  0.2301
30868W        W47002   2.616   4.439   3.870 -0.0324 -0.0755  0.0698
30869W        W47003   7.085   6.394  15.642 -0.1128  0.1228  0.1610
30870W        W47004   5.331   3.369  14.943 -0.2407 -0.0597  0.0428
30871W        W47005  16.249  17.691  12.310  0.2237  0.0392 -0.0624
30872W        W47006  13.034  14.667   2.779  0.0382  0.0464  0.1401
30873W        W47007   3.162  16.171  12.866 -0.2462  0.0544  0.2088
30874W        W47008  17.583   7.861  11.768 -0.2903  0.1957  0.1424
30875W        W47009  10.409   0.108   5.549  0.0401 -0.2648  0.0446
30876W        W47010  14.038   0.611   0.227  0.0998  0.2050  0.0597
30877W        W47011  17.821   9.619  14.321  0.3737 -0.1332 -0.2852
30878W        W47012   0.447   6.060  13.704 -0.2011 -0.2210 -0.0657
30879W        W47013  14.905  15.219  12.098  0.2114 -0.0503 -0.0737
30880W        W47014   8.974  14.139  15.583 -0.0297  0.3441 -0.0043
30881W        W47015   1.393   6.908   4.849 -0.1764  0.0147  0.2050
30882W        W47016  14.709   2.459  12.265  0.4255  0.2602  0.1474
30883W        W47017   4.902   4.707   2.747  0.1743 -0.0433 -0.0138
30884W        W47018   1.936  11.392   3.931  0.2438  0.0495  0.3205
30885W        W47019  12.797   7.119  11.257  0.3789  0.2379 -0.2670
30886W        W47020  18.111   2.442   4.991  0.4074  0.0383  0.1845
30887W        W47021   3.767   1.716  14.364  0.1405 -0.0493  0.0641
30888W        W47022   2.477   6.693   0.369 -0.1637  0.1345  0.1793
30889W        W47023  14.775   1.145  14.650 -0.1311 -0.0222  0.1383
30890W        W47024  10.895  16.900  12.119  0.0094 -0.0188 -0.0772
30891W        W47025  14.859   8.781   5.149  0.1699  0.1453  0.0635
30892W        W47026  10.161   7.696  16.238 -0.1976  0.0161  0.0679
30893W        W47027  11.714   3.991  12.978  0.2606  0.0584  0.2587
30894W        W47028  14.729   8.599  16.159  0.0276  0.2153  0.0623
30895W        W47029   8.111   7.951  13.963 -0.1975 -0.0488  0.0400
30896W        W47030   7.140   9.748   0.551  0.1687 -0.0452  0.5447
30897W        W47031  10.049   4.674   2.312  0.1979 -0.1282 -0.2421
30898W        W47032   8.331   8.378  12.827 -0.2055 -0.1212  0.0926
30899W        W47033  11.835   6.511   1.915  0.1291  0.1350  0.1684
30900W        W47034   1.467  15.881   0.898  0.1438  0.0851  0.5314
30901W        W47035  14.342  17.555   0.337  0.0353  0.3553 -0.2398
30902W        W47036   7.818   3.296  12.672 -0.1198 -0.2920 -0.2017
30903W        W47037   0.596   7.471   4.843 -0.1193 -0.0648 -0.5241
30904W        W47038  12.062   6.394   1.142 -0.1676 -0.2225 -0.1319
30905W        W47039   5.353  13.892   4.109  0.3159 -0.0024  0.1564
30906W        W47040   2.483   2.472  13.776 -0.0631 -0.0353  0.0281
30907W        W47041  12.463  16.187   3.858  0.1003 -0.1816  0.2382
30908W        W47042   3.541  11.564   1.838 -0.0665 -0.2447  0.2187
30909W        W47043  13.338  17.144   5.880 -0.1904  0.1471  0.2062
30910W        W47044  13.742   8.103  12.345 -0.0691  0.2218  0.1407
30911W        W47045   1.343  17.656  15.603  0.0666  0.1329 -0.0525
30912W        W47046  17.792   3.408   0.026  0.2098  0.0379 -0.0442
30913W        W47047   9.365  16.497  12.600 -0.2328  0.2471  0.0800
30914W        W47048   8.634  12.530   2.650 -0.1116 -0.1388  0.0299
30915W        W47049  13.910   2.560   0.225 -0.2879  0.3606  0.1358
30916W        W47050  15.639  13.751  11.871  0.1716  0.0897 -0.1464
30917W        W47051   8.695   1.548   2.796 -0.3241 -0.3129  0.2912
30918W        W47052  17.559  13.432   4.453 -0.2263 -0.3005  0.0690
30919W        W47053  13.331   0.914  16.152 -0.2140 -0.1043 -0.1605
30920W        W47054   0.334  11.580  10.369  0.2770  0.0556  0.0867
30921W        W47055   1.453  11.956  14.807 -0.0036 -0.1978 -0.0315
30922W        W47056   8.218  10.005  16.218 -0.2130 -0.2070  0.2508
30923W        W47057   9.360   2.919  15.859 -0.1041 -0.0244  0.0694
30924W        W47058   4.187  12.041  13.810  0.1416 -0.2713 -0.2950
30925W        W47059  12.798   5.971   5.304 -0.0598 -0.0516  0.0558
30926W        W47060   5.948   3.565   3.066 -0.1931 -0.1068  0.2152
30927W        W47061   9.849   6.721  11.644 -0.0772  0.0180 -0.2474
30928W        W47062   4.730   4.014  14.892  0.2452 -0.0523  0.2911
30929W        W47063  13.668  13.687  12.094  0.1738 -0.0813 -0.1009
30930W        W47064   8.830   5.789   0.422 -0.0711  0.0390 -0.0333
30931W        W47065   9.056  11.214   3.450  0.0942  0.3832 -0.1304
30932W        W47066  13.357  16.463   5.092 -0.1976 -0.2037  0.1185
30933W        W47067   6.754   4.365   5.182  0.0403  0.0234 -0.0053
30934W        W47068  17.116   0.772   1.022  0.4209 -0.1863  0.0064
30935W        W47069  12.641   1.037   1.884  0.1329 -0.2663 -0.4226
30936W        W47070   9.018  12.617   3.007 -0.0884  0.0421 -0.2046
30937W        W47071   5.714   9.417  14.594 -0.1230 -0.1463 -0.2343
30938W        W47072   3.838  13.982   0.558  0.0884 -0.2700 -0.1223
30939W        W47073   6.362   2.678   5.400  0.2504  0.1276 -0.1764
30940W        W47074   8.529   9.477   3.232 -0.1077 -0.0611 -0.1018
30941W        W47075   5.760   4.111  13.306 -0.1777 -0.0068 -0.0613
30942W        W47076  16.770   1.948   4.192 -0.4292 -0.0664  0.0720
30943W        W47077  16.295   0.033  14.600  0.0121 -0.2182  0.1326
30944W        W47078   0.785   5.544   0.882 -0.2738  0.0543  0.2262
30945W        W47079  15.470   7.862   1.228  0.1953  0.1757  0.3205
30946W        W47080   5.636   1.094   4.663  0.2346 -0.0538  0.1498
30947W        W47081   8.894   8.035   4.465 -0.0026 -0.0429  0.1513
30948W        W47082   6.921  16.067   6.069 -0.0311  0.1359  0.3982
30949W        W47083  11.326  16.164   5.255  0.1102  0.2129  0.0241
30950W        W47084   8.001   2.937  13.515  0.3373 -0.3220  0.4088
30951W        W47085   9.450   8.470   2.602 -0.1396  0.0173  0.0661
30952W        W47086   1.092   5.135   0.835  0.4206  0.1094 -0.2657
30953W        W47087  12.068   4.917   4.345 -0.0735  0.0388 -0.0409
30954W        W47088   5.664  16.263   1.229 -0.1008  0.0069 -0.0386
30955W        W47089   5.077  11.942  11.036  0.0360  0.1955 -0.2213
30956W        W47090   3.813   8.549   0.205 -0.4006  0.2859 -0.0801
30957W        W47091   9.430  11.716  11.472 -0.3495  0.0215  0.0359
30958W        W47092   2.907   3.828   0.688  0.1700 -0.0830 -0.1128
30959W        W47093   7.618   9.588  14.547  0.1269  0.2488  0.2763
30960W        W47094  17.291   6.529   2.604 -0.3248 -0.0214  0.2502
30961W        W47095  16.993   0.800   0.234  0.0738  0.3626 -0.2531
30962W        W47096  13.823   6.103  11.293  0.0113  0.2308 -0.0630
30963W        W47097  11.948  15.207  11.551 -0.1681  0.0663  0.4633
30964W        W47098   8.481  15.759   1.100  0.1776 -0.1865  0.2503
30965W        W47099   1.434   8.763  11.388  0.0082 -0.2952 -0.0717
30966W        W47100  13.775  17.023  11.931 -0.1906 -0.0128  0.0384
30967W        W47101   4.277  12.351   5.009 -0.1031  0.1303 -0.0037
30968W        W47102  15.430  11.189  14.390 -0.1264 -0.0452 -0.1338
30969W        W47103   9.035  10.802   0.318 -0.0725 -0.0492 -0.1476
30970W        W47104   4.546  18.054   4.557 -0.0189 -0.1418  0.3668
30971W        W47105  11.054  11.149  11.608 -0.3366  0.2143  0.0009
30972W        W47106  13.300  11.992   1.996  0.0555  0.1496  0.1502
30973W        W47107   5.934  16.394   3.366 -0.0564  0.0587  0.0031
30974W        W47108  17.758  10.173   4.196 -0.1797  0.2493 -0.0830
30975W        W47109   4.957  11.754   4.588 -0.0527 -0.1696 -0.1426
30976W        W47110   6.284   7.465  12.925 -0.0294 -0.1318  0.0824
30977W        W47111  16.849  14.608   2.680  0.2255  0.0888 -0.0080
30978W        W47112  10.641  16.367  14.109 -0.1220 -0.0198  0.1943
30979W        W47113  11.132   4.538   4.249  0.1359 -0.3077  0.0216
30980W        W47114  15.303  10.812  12.043 -0.0519 -0.1694  0.1459
30981W        W47115  15.168   4.783   0.277  0.0847  0.1904  0.2570
30982W        W47116  17.312  12.990  11.932 -0.0549 -0.1693 -0.0727
30983W        W47117  17.952  14.564   5.466 -0.1307 -0.1901 -0.2148
30984W        W47118   5.595   0.947   5.727  0.1208 -0.0741 -0.0780
30985W        W47119  14.932  13.711   3.364 -0.2040  0.1317  0.0121
30986W        W47120  10.242   3.224   3.712 -0.2563  0.0613 -0.1002
30987W        W47121  11.631   2.564   5.617  0.1025 -0.1256  0.0991
30988W        W47122   9.975   6.102  13.503  0.2596  0.0161 -0.1183
30989W        W47123  17.932   0.807  16.392  0.0446 -0.1340 -0.2738
30990W        W47124   0.557   6.875  14.933 -0.0459 -0.1532  0.2488
30991W        W47125   5.809   7.779  11.197  0.1504 -0.2542 -0.2553
30992W        W47126  16.065   9.074   0.138 -0.0368 -0.1983 -0.2708
30993W        W47127  15.887   8.834  16.212 -0.1281  0.3004 -0.0294
30994W        W47128  16.189  17.757   3.756  0.1795  0.0528  0.1914
30995W        W47129  10.955  14.100  12.765 -0.0105  0.2329 -0.2899
30996W        W47130  15.095   2.662   0.924 -0.1158 -0.0677  0.1267
30997W        W47131  11.586  13.218   0.765  0.1032  0.0690  0.0940
30998W        W47132   6.004  11.253  11.755 -0.1176 -0.0836  0.3157
30999W        W47133  12.736  13.324   2.780 -0.1582  0.3808 -0.0263
31000W        W47134  17.653   0.415   1.491 -0.0447  0.3820  0.1841
31001W        W47135   2.667  10.877  13.420  0.0402  0.5823 -0.1507
31002W        W47136   3.120   8.752  11.072  0.0213  0.0923 -0.3150
31003W        W47137   9.432  17.495   2.355 -0.2415  0.1751  0.5447
31004W        W47138  15.550   0.871  14.741  0.1910  0.1030  0.1265
31005W        W47139   5.610   0.664  13.412 -0.1418  0.1691 -0.2479
31006W        W47140   1.428   9.929   1.704 -0.3257  0.1226 -0.4323
31007W        W47141  16.655  15.523   0.277 -0.0015 -0.2315  0.1308
31008W        W47142  17.445   1.423   3.842  0.1885  0.0480  0.0714
31009W        W47143   9.650  15.872   4.348  0.2281  0.4304 -0.0042
31010W        W47144   6.416  14.924  11.826  0.2218  0.0985 -0.0761
31011W        W47145   3.508  16.011  15.665  0.1276  0.0982 -0.4041
31012W        W47146  14.546   9.922   4.356  0.1659  0.0308 -0.2867
31013W        W47147  13.926   5.149  14.386  0.3113 -0.1194  0.0180
31014W        W47148   6.806   4.945  12.907 -0.3499  0.0643 -0.2898
31015W        W47149   4.234  10.682   5.093 -0.0766  0.0569 -0.1500
31016W        W47150   2.494  14.023   0.199  0.0040 -0.0285 -0.0697
31017W        W47151  13.871   6.795   4.658 -0.2384  0.0109  0.0519
31018W        W47152  17.674  16.323  14.576 -0.1399  0.0694 -0.0061
31019W        W47153  13.825  13.782  13.411 -0.2695 -0.1283  0.0607
31020W        W47154   2.063   2.257  12.210 -0.3543  0.0313 -0.0316
31021W        W47155  13.350  12.524   0.932  0.2152  0.1359  0.3253
31022W        W47156   4.436   5.149  10.901 -0.0168 -0.2314  0.3808
31023W        W47157   9.867   8.432  10.854 -0.0880 -0.1565  0.0615
31024W        W47158  12.478   0.499  15.147 -0.2165 -0.0412  0.2185
31025W        W47159   7.138   6.849  14.913  0.2175  0.1048  0.0412
31026W        W47160   4.368  15.284   5.028 -0.3112 -0.0890  0.0031
31027W        W47161   4.066  12.789   3.384 -0.2157 -0.4328 -0.0823
31028W        W47162  14.041  12.266  12.383 -0.1213 -0.3989  0.0495
31029W        W47163  12.857   5.739   2.940  0.0331 -0.0047  0.2120
31030W        W47164  12.030  17.937   3.115  0.1983  0.0722 -0.1067
31031W        W47165   8.871   5.287   0.715 -0.1378  0.1335  0.0467
31032W        W47166  14.067  12.820   3.849 -0.1109  0.1310 -0.0295
31033W        W47167  15.694  12.222  11.210 -0.0293 -0.1003 -0.4989
31034W        W47168  15.238   6.492  13.993  0.1309 -0.2688  0.2082
31035W        W47169   7.535   2.399   3.294  0.1308 -0.0429 -0.0854
31036W        W47170   1.732  15.487  14.671 -0.0795 -0.3769 -0.1019
31037W        W47171   0.683  10.445  14.361 -0.0480 -0.1263 -0.0878
31038W        W47172   5.748  17.870   5.484  0.3502  0.1923 -0.0055
31039W        W47173   2.775   1.985   6.071  0.2306  0.3099  0.0113
31040W        W47174   3.052   0.093  15.054 -0.1661 -0.1169 -0.4354
31041W        W47175  10.243  15.748  15.164 -0.4312  0.0471  0.3575
31042W        W47176  15.484  15.758   3.751  0.0540  0.1696 -0.0628
31043W        W47177   7.108   1.372   4.123  0.0436 -0.2730  0.1136
31044W        W47178   6.180  13.747  13.510 -0.2708  0.1854  0.3966
31045W        W47179   2.079  17.214  13.754  0.0665 -0.1720  0.1410
31046W        W47180  12.894   3.962  13.819  0.0153 -0.0470  0.2070
31047W        W47181   5.632  14.106   0.613 -0.1368 -0.2272  0.0049
31048W        W47182  10.494  11.634   4.053  0.1471  0.3411  0.1608
31049W        W47183  18.173  15.769  13.848 -0.1824  0.0869 -0.0380
31050W        W47184  17.050   1.826  11.819  0.2773  0.2679 -0.1373
31051W        W47185   8.654  17.627  16.156 -0.1243 -0.1710 -0.3235
31052W        W47186  10.624   6.020  15.858  0.3414  0.1681 -0.0185
31053W        W47187  17.175  17.280  15.796 -0.0630 -0.0345 -0.0634
31054W        W47188  14.307  15.381  15.971 -0.1113  0.1242  0.1282
31055W        W47189   5.775  10.037  10.867  0.0291 -0.2456 -0.0550
31056W        W47190  16.751  14.070  15.379  0.2450 -0.1833  0.2993
31057W        W47191   3.965   1.463  15.202 -0.1235  0.0819 -0.1396
31058W        W47192   0.522   3.266   1.242  0.2790 -0.0066 -0.0764
31059W        W47193  10.092   2.815  13.488 -0.0902 -0.0381 -0.1289
31060W        W47194  14.527  11.462   0.100  0.1198 -0.0957 -0.3679
31061W        W47195   7.886  17.733   1.575  0.2616 -0.0737  0.2106
31062W        W47196  12.395  13.452  11.442  0.5976 -0.1582  0.0741
31063W        W47197   2.706  17.003   1.681  0.1206 -0.3303 -0.0217
31064W        W47198   3.970   6.649   5.065  0.1463 -0.2970 -0.0278
31065W        W47199  14.388   7.150   1.366 -0.0520  0.0425 -0.0941
31066W        W47200   0.941  17.039   1.196  0.1317 -0.0786  0.0571
31067W        W47201  13.679  14.597   3.791  0.2605  0.3571 -0.0313
31068W        W47202   8.571  10.846  13.013 -0.3408  0.3349 -0.0166
31069W        W47203  12.930   8.672  12.712  0.0486  0.1572 -0.2147
31070W        W47204  11.484  12.892   3.028  0.1563  0.0636 -0.0547
31071W        W47205  14.530   2.109  16.298 -0.0701  0.0068 -0.1580
31072W        W47206   4.431   5.500   2.987 -0.1089 -0.2349  0.1770
31073W        W47207  11.957  11.612  12.122 -0.1554  0.3713  0.3962
31074W        W47208   5.097   8.379  14.824 -0.0912 -0.1162 -0.2274
31075W        W47209   6.135  17.526   3.665  0.0472  0.1750 -0.1185
31076W        W47210  14.734  17.331   2.575 -0.0494  0.0293 -0.0843
31077W        W47211  10.132   2.073  12.367 -0.0094  0.0917  0.4288
31078W        W47212   1.626   1.487  12.975 -0.0540  0.2513  0.2173
31079W        W47213  12.727   6.448   1.722 -0.2524 -0.0678  0.1662
31080W        W47214  18.059   8.293   6.104 -0.0385  0.0741 -0.2893
31081W        W47215   5.025   3.108  15.270  0.1533  0.2251  0.1741
31082W        W47216   6.314   2.339  12.043  0.3770 -0.0687  0.0496
31083W        W47217  17.981  17.156  15.266  0.0269  0.0342  0.4372
31084W        W47218   0.916   7.144   3.216 -0.0192  0.0763 -0.0029
31085W        W47219  11.113   1.312  13.424  0.1137  0.2516  0.2345
31086W        W47220   7.893  16.835   3.526 -0.0741  0.0854  0.0889
31087W        W47221  10.462  16.321  15.741 -0.0309 -0.1183  0.0345
31088W        W47222   3.808   9.319   2.748  0.0082 -0.2608  0.1684
31089W        W47223  13.786   1.880   0.383  0.2100 -0.0885  0.3574
31090W        W47224  15.139  12.724   4.478  0.2315 -0.1171 -0.0993
31091W        W47225  10.445  12.423   2.260  0.0547  0.0027  0.0918
31092W        W47226  17.741   4.958   2.940  0.2982 -0.0798  0.3299
31093W        W47227  12.288   1.284   2.799  0.0291  0.2025 -0.2157
31094W        W47228   0.255  17.768   2.260 -0.1047  0.2868 -0.2520
31095W        W47229  13.048  13.697   4.110 -0.1390 -0.0553  0.3809
31096W        W47230   1.806  11.819  11.877 -0.1400  0.1973  0.0556
31097W        W47231   4.202   9.985  16.511 -0.2370 -0.2452  0.3147
31098W        W47232  13.590   8.656   4.769 -0.0906 -0.1198 -0.1036
31099W        W47233  12.961  16.679  16.263  0.2155  0.1497  0.1509
31100W        W47234  16.494  10.770  11.386 -0.1410 -0.0006 -0.3949
31101W        W47235  17.832   5.293  13.049 -0.4652 -0.2166 -0.0176
31102W        W47236  13.046  17.738   4.786  0.3385  0.0228  0.0518
31103W        W47237  11.033  14.309  15.638  0.0129 -0.1071 -0.4108
31104W        W47238  11.847  14.175  12.784  0.2051  0.1739  0.0419
31105W        W47239   6.864  13.908  16.408 -0.2202  0.4101  0.1134
31106W        W47240   2.205  14.508  15.476  0.4594 -0.0253  0.1245
31107W        W47241  18.123   2.390   2.212 -0.1353  0.1071 -0.0865
31108W        W47242  11.268  16.963   5.852 -0.1004 -0.0730  0.1477
31109W        W47243   6.380  15.216   3.755  0.1261  0.2280  0.2262
31110W        W47244  11.188  11.631  15.019  0.4215 -0.0270  0.1180
31111W        W47245   6.169  16.553  12.124  0.0465  0.1508  0.0116
31112W        W47246  14.758   7.512  12.462 -0.2865 -0.1723  0.0098
31113W        W47247   7.020  11.983   1.978 -0.1600  0.0610 -0.3174
31114W        W47248   9.137   0.802  14.555 -0.0833 -0.1730  0.0699
31115W        W47249  10.787   0.162  12.436  0.0287  0.1378  0.0367
31116W        W47250  15.047  11.842   3.762  0.1245  0.1661 -0.0737
31117W        W47251   0.702   1.525  11.958 -0.1261  0.2083  0.0671
31118W        W47252   7.004   7.064  11.464 -0.1704 -0.1058  0.0041
31119W        W47253   5.935   2.774  14.977  0.0249 -0.0856 -0.1803
31120W        W47254   3.906   4.750   1.383 -0.1875 -0.4580 -0.1745
31121W        W47255   0.349   2.890  14.605 -0.2567  0.0851  0.1100
31122W        W47256  13.873  12.875  13.571 -0.0699 -0.0083 -0.1291
31123W        W47257  13.309  11.637  14.906  0.1943  0.2304  0.4599
31124W        W47258   7.211  17.903  15.207  0.4433 -0.0728 -0.1988
31125W        W47259   8.884   3.236  15.606 -0.0623  0.2970 -0.1161
31126W        W47260   7.917  17.468  16.218 -0.0538  0.0531 -0.2603
31127W        W47261  16.437   8.716   0.307 -0.2203  0.1161  0.0483
31128W        W47262   4.192  12.630   0.072  0.0058  0.1631 -0.1370
31129W        W47263  13.739   2.257  12.167  0.1836  0.2013  0.0708
31130W        W47264   7.976   6.656   0.055  0.0721  0.1013  0.0172
31131W        W47265  11.635  16.147  13.410 -0.1935  0.1767  0.0981
31132W        W47266  10.386   3.987   3.962  0.0526 -0.0538  0.3358
31133W        W47267   8.361  14.110   4.954  0.0936  0.0981  0.0183
31134W        W47268  11.017   3.013  13.967 -0.2890 -0.1082  0.0649
31135W        W47269   1.458  10.158  16.016  0.0955 -0.1534 -0.4394
31136W        W47270  14.939   7.366  10.749  0.0764 -0.1306  0.1073
31137W        W47271  12.812   9.630  12.973 -0.2139  0.0221  0.1102
31138W        W47272   3.388   8.831   3.448 -0.3056  0.3276 -0.1390
31139W        W47273  13.960   7.422   1.410  0.1906  0.3170 -0.2872
31140W        W47274   1.014   3.280   4.510 -0.0354 -0.0564  0.0301
31141W        W47275  15.550  13.062  13.994  0.1968  0.0843 -0.5578
31142W        W47276  16.908   4.747   2.228  0.3233 -0.2510  0.1103
31143W        W47277   6.985   9.140  16.517  0.6412 -0.0480 -0.0229
31144W        W47278  14.182   0.502   2.322 -0.2641 -0.1269  0.0549
31145W        W47279   5.834  13.920   2.466 -0.2064  0.1406  0.2702
31146W        W47280   0.444  14.557   1.315  0.0784 -0.0176 -0.2748
31147W        W47281   1.448  11.741   1.734 -0.0703  0.1170  0.0961
31148W        W47282  17.200  16.239  14.660 -0.0420 -0.4098  0.0503
31149W        W47283   8.925  10.584  12.673  0.1793  0.3443  0.1151
31150W        W47284  13.471  15.339   5.306  0.1507 -0.2547  0.1127
31151W        W47285   8.368   9.451   0.593 -0.0440  0.0660 -0.2102
31152W        W47286   1.111   1.804  14.884  0.2307  0.1308 -0.1732
31153W        W47287   6.436   8.349   4.181  0.0273 -0.0960  0.1192
31154W        W47288   5.912   4.570  13.396  0.0916  0.0633 -0.1636
31155W        W47289   1.999  16.475  13.234 -0.3628 -0.1640 -0.2708
31156W        W47290   0.009   2.470   3.574 -0.0690  0.0412 -0.1548
31157W        W47291   5.761  12.580   5.207  0.0763  0.1771  0.0541
31158W        W47292  17.209   7.129  14.471 -0.2542  0.0402 -0.1087
31159W        W47293   6.038  13.572   2.130  0.1228 -0.2630 -0.1091
31160W        W47294  14.609  13.887  13.785 -0.1203 -0.0556  0.0207
31161W        W47295  13.993   8.228   4.919  0.0749 -0.0507 -0.1814
31162W        W47296  17.602  16.665   1.344 -0.1259 -0.1101  0.2760
31163W        W47297   4.791  11.538   1.425  0.0595  0.0782  0.1010
31164W        W47298  10.447  14.522  14.356 -0.0378  0.0079 -0.0726
31165W        W47299   7.291  16.358   4.130 -0.2983  0.5335  0.2486
31166W        W47300   7.126  16.838   4.020 -0.1682 -0.0216 -0.4403
31167W        W47301   4.249  11.405   4.790 -0.0747  0.1063  0.3987
31168W        W47302   3.264   9.512  15.139  0.0422 -0.0425  0.2363
31169W        W47303   6.246  18.093  12.777  0.1723  0.0481 -0.1539
31170W        W47304   5.682  17.821   5.001  0.2496 -0.0027  0.3164
31171W        W47305   4.056  12.250   1.533 -0.3170 -0.1983  0.0251
31172W        W47306  14.292   4.260  15.601 -0.1455  0.2662 -0.0472
31173W        W47307  12.030   4.600   1.284 -0.0974 -0.0052  0.2639
31174W        W47308  14.516   1.902  12.159 -0.2149 -0.0468 -0.0742
31175W        W47309   0.199   5.986  15.484 -0.2313 -0.4384  0.0387
31176W        W47310  11.514  11.026   0.853  0.1269 -0.0245  0.2982
31177W        W47311  17.028   0.282   5.913 -0.1327  0.0766 -0.0506
31178W        W47312   5.113   7.466  12.724 -0.0913 -0.1091  0.0944
31179W        W47313   1.412   1.077  12.751 -0.4760  0.0107  0.0967
31180W        W47314  12.179  12.902   3.817  0.0655 -0.1791  0.3672
31181W        W47315   2.224   1.769   1.703  0.2377 -0.0467  0.0607
31182W        W47316   6.773  18.083   4.839 -0.3469  0.0296  0.0121
31183W        W47317   5.621  14.447  13.551 -0.2782  0.0472  0.1645
31184W        W47318  10.437   8.719  13.828 -0.0115  0.0644  0.0834
31185W        W47319   0.471  17.111   2.908  0.1300  0.0032 -0.1304
31186W        W47320   6.628   4.019   4.133 -0.0865 -0.0129 -0.0243
31187W        W47321   1.248   8.465   2.932 -0.0984  0.2552  0.0012
31188W        W47322  16.572  10.317   3.752 -0.3450 -0.0095 -0.1838
31189W        W47323   5.741   4.358   3.623  0.0197  0.0759  0.1224
31190W        W47324   1.414  13.055   5.485 -0.1084 -0.0238  0.0938
31191W        W47325  12.236  12.902  13.202 -0.1573  0.2231  0.1548
31192W        W47326  10.415  16.346  15.210  0.0909  0.3693 -0.0475
31193W        W47327   2.527  11.753   0.802  0.2036 -0.3554 -0.0954
31194W        W47328   3.869   3.030  11.322  0.1106 -0.1318  0.0096
31195W        W47329  15.628  13.824   5.155 -0.1586  0.1978 -0.0364
31196W        W47330  16.878   8.278   2.829 -0.3293  0.1379 -0.1892
31197W        W47331   3.945   0.812  11.939 -0.3779 -0.1692 -0.0895
31198W        W47332   0.125  13.132   2.033  0.1446  0.0531 -0.2037
31199W        W47333   4.951  10.050   5.559 -0.1685  0.1817  0.2808
31200W        W47334  16.789   8.380   1.111 -0.1944  0.0616 -0.1275
31201W        W47335   5.971   9.729   9.849 -0.1110 -0.0907 -0.1887
31202W        W47336   7.991   6.136  13.988 -0.1119 -0.1654 -0.2378
31203W        W47337   9.735   8.261  13.066  0.0964  0.2245 -0.2347
31204W        W47338   6.219   8.878   3.429  0.0090  0.0174  0.2804
31205W        W47339  13.227  14.850  13.152  0.1636  0.1806 -0.4113
31206W        W47340  17.954   8.654  11.935  0.0740 -0.1770  0.1061
31207W        W47341  17.202  12.430  13.708  0.0611  0.1355 -0.0840
31208W        W47342  12.033   9.054  12.576 -0.2507 -0.1574 -0.5699
31209W        W47343   8.985   0.427  14.220 -0.5292 -0.0502  0.1451
31210W        W47344  14.262  17.235  15.098  0.1314 -0.1346 -0.2331
31211W        W47345   9.324   6.401   3.723  0.0504  0.3417  0.0591
31212W        W47346   1.894   1.429  14.968  0.0852 -0.1194  0.1556
31213W        W47347   5.145   3.444   4.845 -0.1257  0.1861  0.0710
31214W        W47348  10.390   7.898   3.939  0.3497 -0.1811  0.0994
31215W        W47349  14.743   4.404  11.421  0.1474 -0.4720 -0.0427
31216W        W47350   8.978  12.421  15.314 -0.3321  0.1574 -0.0510
31217W        W47351   1.420   3.829   1.708 -0.1441  0.0850 -0.0310
31218W        W47352   2.542  14.090   4.672 -0.1591 -0.1411  0.1240
31219W        W47353   1.477   8.312   5.520 -0.1712 -0.1024  0.0233
31220W        W47354  16.462  12.367   1.511  0.2797 -0.2676  0.0542
31221W        W47355   8.322  17.836  12.017  0.2532  0.1800  0.1124
31222W        W47356  11.007   6.356   4.909 -0.0400  0.0829 -0.3135
31223W        W47357  11.315   5.733   2.238  0.1494  0.1221  0.0189
31224W        W47358  14.520  13.931   1.416  0.0020  0.3368 -0.3174
31225W        W47359   6.640  10.950  11.040 -0.1704  0.2484  0.0611
31226W        W47360  18.175   7.270  14.044 -0.5131 -0.2927 -0.1996
31227W        W47361  13.898  12.116   2.316 -0.1465  0.1033 -0.1426
31228W        W47362   6.776   9.643  12.310 -0.1653 -0.2656  0.1259
31229W        W47363   3.693   6.023  14.439  0.1161 -0.2171  0.3482
31230W        W47364  14.642  11.174  13.108  0.0302  0.0727  0.0775
31231W        W47365   8.808   5.086   0.273 -0.1892 -0.1669 -0.4292
31232W        W47366   2.718  17.119   1.150 -0.1236 -0.1119 -0.0104
31233W        W47367  16.216   2.052   4.283  0.3009  0.1596 -0.0486
31234W        W47368   2.782   1.823   3.963  0.2922  0.0340 -0.1459
31235W        W47369  15.913   5.853  11.766 -0.2410  0.1609  0.0546
31236W        W47370   4.314  17.955   3.523  0.1256  0.1194 -0.2108
31237W        W47371  12.303  15.841   4.794  0.0485 -0.1997  0.1721
31238W        W47372   3.467   5.792   5.206 -0.0040 -0.3054 -0.1022
31239W        W47373   4.981   1.297  14.464  0.1478  0.2346 -0.2535
31240W        W47374   4.996   8.357   1.084 -0.0926  0.0928  0.2304
31241W        W47375  15.797   1.078   3.845 -0.2047 -0.1100  0.1299
31242W        W47376  14.477  11.779  13.738 -0.2228  0.0824 -0.3468
31243W        W47377   7.188  15.598  16.341  0.0925  0.1568 -0.3050
31244W        W47378  11.175   8.432  15.798 -0.0157 -0.2810 -0.1558
31245W        W47379   6.320   6.312   2.778 -0.1292 -0.0571  0.4056
31246W        W47380  13.858  17.373   4.505 -0.2134  0.0192  0.0727
31247W        W47381  11.922  15.132   4.623 -0.1228 -0.0938 -0.0370
31248W        W47382  16.833  16.618  14.493 -0.0170 -0.2946  0.1665
31249W        W47383   8.586   0.820  15.819 -0.2801 -0.0508  0.1634
31250W        W47384   1.938  13.882   1.735 -0.2005  0.2185 -0.2878
31251W        W47385   8.689   4.491   3.643 -0.0719 -0.2619 -0.0418
31252W        W47386  15.324  15.321  15.375  0.1712 -0.0270  0.3542
31253W        W47387   3.690   9.732   9.857 -0.2234 -0.0573  0.0947
31254W        W47388  10.633  12.205   1.085  0.2858  0.0507 -0.2057
31255W        W47389  14.476  10.999  16.185 -0.1197 -0.1058 -0.1082
31256W        W47390   1.565  14.094   0.056  0.0197  0.1743 -0.0890
31257W        W47391   1.527   2.342  15.632  0.0230  0.3384 -0.1539
31258W        W47392  16.597   3.578   0.056  0.0237 -0.0871 -0.3359
31259W        W47393   5.482   1.452  16.006 -0.3053 -0.0735  0.0016
31260W        W47394   7.010  15.813  13.745  0.2648 -0.0129  0.0972
31261W        W47395   8.250   4.762   3.876 -0.1375 -0.2391  0.4017
31262W        W47396   5.205   7.082   0.041  0.3678 -0.0719 -0.1122
31263W        W47397  17.849  15.878   4.907  0.2139 -0.4004 -0.1309
31264W        W47398  17.480   9.646  11.790 -0.3855  0.2860  0.0590
31265W        W47399   9.848   1.522   3.581 -0.0130 -0.3414  0.0004
31266W        W47400   6.385  15.079  15.932 -0.0441 -0.1168 -0.0387
31267W        W47401  10.502   8.350   2.155 -0.0276 -0.2176 -0.1935
31268W        W47402   3.257  15.373   2.804 -0.3286  0.0868 -0.3605
31269W        W47403  15.304   1.870   2.964  0.1273 -0.1995  0.0517
31270W        W47404  12.250   2.579  15.313  0.1628 -0.0971 -0.2582
31271W        W47405   4.665  10.772  16.532  0.1366 -0.1231 -0.2131
31272W        W47406   1.370   6.742   4.355 -0.4344  0.3004 -0.0481
31273W        W47407   1.910  14.998  14.596 -0.0181 -0.0419  0.1011
31274W        W47408   1.528   5.580   1.802  0.1307 -0.0352  0.1279
31275W        W47409   4.802   6.734   1.843 -0.0307 -0.1603 -0.3077
31276W        W47410  12.825   5.428   0.667 -0.0853 -0.0609 -0.4111
31277W        W47411  16.555   6.608   4.914  0.0080  0.1248  0.1023
31278W        W47412  10.253  17.440   3.263  0.1749  0.3131 -0.1352
31279W        W47413  12.669  16.690  14.338  0.2498  0.1176 -0.0723
31280W        W47414  13.134  13.034   1.359  0.1914  0.1231  0.0110
31281W        W47415   2.939  15.040   2.419  0.0063  0.0846 -0.1817
31282W        W47416   7.248   5.174   5.465  0.1656 -0.0181  0.1920
31283W        W47417  10.127  10.703  14.173 -0.4326  0.1326  0.0272
31284W        W47418   3.893   4.750  14.912 -0.0819 -0.4838 -0.1826
31285W        W47419  11.746   9.081   3.576 -0.1099  0.0906 -0.2728
31286W        W47420   6.096  10.318  11.967 -0.2899 -0.1644  0.1421
31287W        W47421  14.914   3.206  11.702 -0.1900  0.1113 -0.1753
31288W        W47422  13.647  13.342  12.739  0.0141  0.0203  0.0433
31289W        W47423  16.655   5.964  15.611 -0.4676 -0.0891 -0.1078
31290W        W47424  13.522   4.577  13.381  0.0521 -0.2399  0.1506
31291W        W47425   0.285   2.246  16.318 -0.0556  0.1482  0.2160
31292W        W47426   7.276   5.287   4.424  0.0602 -0.2101  0.1266
31293W        W47427   7.187   9.661  16.331 -0.1160 -0.0741  0.1924
31294W        W47428   8.750   5.777  13.239 -0.0014  0.1981 -0.0957
31295W        W47429   2.666   5.561  12.037 -0.1757  0.1303  0.0328
31296W        W47430   4.361  15.473   3.588 -0.0509  0.1440 -0.0181
31297W        W47431   6.389   7.631  14.930  0.1528 -0.1396 -0.1063
31298W        W47432  12.000   0.455  16.246 -0.0501 -0.0463 -0.1778
31299W        W47433   4.426   6.918  15.984 -0.0613 -0.1322 -0.2001
31300W        W47434  13.437   7.782   1.832  0.1444 -0.0628  0.2240
31301W        W47435   5.107   4.051   1.592  0.2180 -0.0117  0.0782
31302W        W47436  11.974  14.858   0.796 -0.0711  0.2460  0.0844
31303W        W47437   9.350   5.305  15.402 -0.0545  0.2484  0.0113
31304W        W47438  14.002   1.047  10.471  0.0649  0.3094  0.4273
31305W        W47439   0.381   2.787  16.448 -0.2772 -0.3211 -0.0887
31306W        W47440   2.399   0.525   3.787 -0.0270  0.1192 -0.0326
31307W        W47441  13.425   3.519   4.867 -0.1007 -0.0641  0.0613
31308W        W47442   9.785  11.785   3.711 -0.1009  0.2049 -0.0459
31309W        W47443  14.099  10.511   5.045  0.1996  0.0668 -0.3512
31310W        W47444  13.289   4.199  13.655 -0.1060 -0.0855 -0.0576
31311W        W47445  17.177  15.475   5.434  0.2533  0.2512 -0.1367
31312W        W47446  10.947   8.649   3.404  0.1900 -0.0093  0.3834
31313W        W47447  12.338   5.822   3.105 -0.0767  0.2898  0.3765
31314W        W47448  13.045   2.133  14.980 -0.1667 -0.0231  0.1551
31315W        W47449  14.839   1.357  15.524  0.0677 -0.0275  0.1431
31316W        W47450   9.672  18.164  14.926  0.2273 -0.0055 -0.0629
31317W        W47451   9.328  17.898  13.492  0.1426 -0.0336  0.1046
31318W        W47452  13.311  11.216   1.244  0.0270  0.2095 -0.1130
31319W        W47453   3.539   5.269  15.580 -0.1095  0.2192 -0.1719
31320W        W47454   6.101  12.337  14.282 -0.1746 -0.0467  0.0187
31321W        W47455   7.912   3.726   2.973  0.2400 -0.2792 -0.3311
31322W        W47456   8.115   1.937  12.587  0.0017  0.2047  0.0795
31323W        W47457   4.453  16.470  14.323 -0.0798  0.0914 -0.0833
31324W        W47458   7.466  13.720  15.750 -0.1369  0.0341 -0.0732
31325W        W47459   6.348  12.962  16.067 -0.1479  0.1124  0.0705
31326W        W47460  12.088  11.366  10.248 -0.1207  0.0118  0.3322
31327W        W47461  17.401   6.090   2.267 -0.0290 -0.1447  0.0170
31328W        W47462  10.930   1.127   0.205 -0.2468  0.0883 -0.2816
31329W        W47463  13.846  15.144  12.910  0.0352  0.0214  0.1652
31330W        W47464  15.970  11.695  16.021 -0.0838  0.1050  0.3895
31331W        W47465  13.640   5.128   3.755  0.2583 -0.1303 -0.2154
31332W        W47466  15.981   2.482  15.963  0.0446  0.3009 -0.1135
31333W        W47467   4.793  11.959  14.504  0.1133  0.2545  0.1007
31334W        W47468  16.694  17.736  16.230  0.0312 -0.0671  0.1945
31335W        W47469  13.700   2.654   0.995 -0.2255  0.0035  0.2338
31336W        W47470   4.054   4.312   5.323 -0.2500 -0.0383  0.2086
31337W        W47471   7.273  11.240  14.537  0.1250  0.0399  0.2892
31338W        W47472  17.488   9.668   1.664  0.0575  0.0345  0.2392
31339W        W47473  10.142   6.310  11.426  0.0007  0.1184  0.0751
31340W        W47474  10.411   2.171   5.797  0.1382 -0.2350 -0.1587
31341W        W47475  16.965   9.427   0.339  0.1359 -0.1750  0.2150
31342W        W47476   4.500  10.821   4.638  0.2234 -0.2190  0.1866
31343W        W47477   3.679   0.019  15.918  0.1641 -0.0283  0.0796
31344W        W47478   1.302   6.731  16.070 -0.1496 -0.2507  0.0198
31345W        W47479  10.724   2.665   6.323  0.1198  0.2272 -0.1433
31346W        W47480   6.652  11.198   5.512  0.2313  0.4526  0.3856
31347W        W47481  17.120  13.595   1.533  0.3071 -0.1153 -0.0143
31348W        W47482  14.035   1.609   0.030 -0.1325 -0.1944  0.1121
31349W        W47483  18.154   6.530   5.295 -0.1659  0.2413 -0.2593
31350W        W47484   4.156  10.974   2.575 -0.2451 -0.3942  0.2467
31351W        W47485   4.625  14.322  13.500  0.1454 -0.3129  0.0925
31352W        W47486  12.463  13.687   2.043 -0.1398 -0.1355  0.3256
31353W        W47487   1.075   2.386  14.280 -0.3177 -0.2988 -0.2528
31354W        W47488  11.531   0.929   1.740  0.0656 -0.2338 -0.2367
31355W        W47489  10.946   7.256   4.115  0.0816 -0.2177 -0.2222
31356W        W47490   0.702   7.478  12.607  0.0545  0.0571 -0.0546
31357W        W47491  11.364  17.646  12.182 -0.1907 -0.4012 -0.4168
31358W        W47492   1.621   3.966  10.400 -0.0775 -0.2960 -0.3116
31359W        W47493  17.055   3.807   4.282 -0.0280 -0.0535  0.0063
31360W        W47494  13.813  14.617   4.871  0.0715  0.2413 -0.1476
31361W        W47495  18.050   5.339  14.172 -0.1547  0.3565 -0.2519
31362W        W47496   4.432   8.079  12.967  0.3206  0.1240  0.1216
31363W        W47497  11.580  10.524  15.693 -0.1675  0.2398  0.5213
31364W        W47498   0.036  16.693   4.162  0.0640 -0.0550  0.0598
31365W        W47499  16.908  10.563  15.508 -0.3667 -0.0644  0.4157
31366W        W47500  17.314   8.557   3.512 -0.1669 -0.3166  0.0057
31367W        W47501   7.913   1.245  11.375  0.3601 -0.0115  0.2445
31368W        W47502   8.501  12.537   0.661 -0.0334  0.0321  0.2287
31369W        W47503   2.377  14.434   1.101 -0.0752 -0.1534  0.1318
31370W        W47504  16.117   2.768   6.108  0.1518  0.1782 -0.1914
31371W        W47505   6.000   9.410   4.957 -0.0046  0.0468  0.0788
31372W        W47506   3.672   8.443  16.295 -0.0825 -0.0714  0.1919
31373W        W47507   3.947   8.388   4.641 -0.0080 -0.0995 -0.0571
31374W        W47508   8.992  17.812  10.807  0.0608  0.4193  0.0141
31375W        W47509   4.982   0.340   0.508  0.0782  0.0241 -0.3782
31376W        W47510   6.287  13.546  15.253  0.2237 -0.1271  0.1178
31377W        W47511   0.525  11.052   4.927 -0.0471 -0.6271 -0.0435
31378W        W47512  16.718  12.822  12.271 -0.1944 -0.0575 -0.0638
31379W        W47513  16.864   8.642  11.719 -0.0845 -0.1896  0.3295
31380W        W47514  12.749  10.919   2.072 -0.1778  0.1479 -0.0694
31381W        W47515   9.630  14.978  13.557  0.2214  0.0793 -0.0507
31382W        W47516  15.258  18.017   0.693 -0.0957 -0.2689  0.0631
31383W        W47517   7.700   9.071  16.018  0.1857 -0.0503  0.1145
31384W        W47518  15.524   3.985   1.230  0.1873 -0.0403  0.2014
31385W        W47519   5.153  16.246  12.237  0.1961  0.0061  0.0381
31386W        W47520   8.795  16.702   0.860  0.0830 -0.1948  0.0532
31387W        W47521  15.440   7.336   0.835 -0.0443 -0.0786  0.1068
31388W        W47522  12.130   4.762   0.510  0.2250  0.3331  0.0628
31389W        W47523   2.913  11.247  10.254  0.1769  0.0614 -0.1001
31390W        W47524   9.904   0.047   0.219 -0.1039 -0.1613  0.0235
31391W        W47525  11.288  15.005   6.581 -0.1800 -0.0524  0.2287
31392W        W47526  16.805   1.383  13.794 -0.0575  0.3093 -0.1154
31393W        W47527  12.538   3.418   0.910  0.0688 -0.1538  0.1975
31394W        W47528   9.676  10.474   3.673 -0.1913 -0.0798 -0.0132
31395W        W47529   2.859  12.024  14.654  0.1955 -0.0063 -0.1270
31396W        W47530   2.112  10.824  11.115 -0.0245  0.2464  0.0051
31397W        W47531  18.118  12.152   4.344  0.1369  0.2530  0.1460
31398W        W47532  14.928   6.066  11.934  0.0656 -0.2324  0.0534
31399W        W47533  14.643   8.926   0.587  0.2885 -0.1735  0.1605
31400W        W47534  14.922   3.774   0.391 -0.0884 -0.0228 -0.1400
31401W        W47535  14.592   8.981  13.819  0.1547 -0.2006  0.3072
31402W        W47536   3.894  17.122   0.779 -0.1631  0.0450  0.2171
31403W        W47537  13.352   8.947  12.550 -0.1515  0.1690  0.1191
31404W        W47538   7.807   3.316   4.251 -0.1718  0.1905 -0.4289
31405W        W47539   1.890   0.697   3.823  0.1025 -0.1866 -0.1552
31406W        W47540   8.422  10.802   0.860  0.0842  0.0607 -0.0326
31407W        W47541  15.437   2.215  14.830 -0.1015 -0.0812  0.0684
31408W        W47542   0.060  11.644  11.333 -0.0056  0.0734 -0.1649
31409W        W47543  17.164   7.874  12.042  0.0861 -0.1772  0.3079
31410W        W47544   6.028  14.567   2.633 -0.0708  0.1085  0.1644
31411W        W47545  13.103   4.337  15.505  0.1439  0.2542  0.2776
31412W        W47546  11.301   0.776   4.517 -0.0902  0.1044  0.1207
31413W        W47547   8.316   1.886   2.606 -0.1475 -0.1016 -0.2809
31414W        W47548  13.098  16.972  14.339  0.1208 -0.2487  0.0825
31415W        W47549  18.089   3.575   2.358 -0.0155 -0.0849 -0.0504
31416W        W47550   9.993   2.312  13.676  0.2666  0.0526  0.0595
31417W        W47551  17.356   8.849  14.078  0.0737  0.4501  0.0771
31418W        W47552  17.182   7.787  16.007 -0.0054 -0.0360  0.0993
31419W        W47553  16.110  13.185  11.746  0.2140 -0.1556 -0.1360
31420W        W47554   3.158   8.414   3.577 -0.2512  0.0051 -0.0336
31421W        W47555   5.509   7.401  11.841  0.0084 -0.0430  0.3671
31422W        W47556  16.649  10.266   0.192  0.1321 -0.2940 -0.1787
31423W        W47557  10.439   5.267  11.544 -0.0203 -0.1145  0.1487
31424W        W47558   1.759  18.057   4.714  0.0425  0.2952  0.0897
31425W        W47559  16.143  11.748   4.531 -0.2439  0.0641 -0.2322
31426W        W47560   2.509   6.626   1.319  0.1699  0.0263 -0.0013
31427W        W47561   7.066   9.695   1.691  0.2113  0.0225 -0.0999
31428W        W47562   1.017   0.496   5.753 -0.0727  0.1051  0.1654
31429W        W47563  12.816   7.632   3.759  0.0367 -0.0951 -0.0946
31430W        W47564  11.802  16.525   4.015  0.2405  0.1457  0.0097
31431W        W47565   5.966   5.080  13.549 -0.0260  0.1101  0.3351
31432W        W47566   1.206  11.584  11.800 -0.0250 -0.0367 -0.1819
31433W        W47567   2.850   2.666   4.951 -0.1586  0.2298  0.0331
31434W        W47568   6.550   9.190   1.090 -0.1556 -0.1914 -0.1211
31435W        W47569  15.417  11.168   1.048 -0.2423  0.3366  0.0413
31436W        W47570  14.033  13.807   4.343 -0.1783 -0.4413 -0.0250
31437W        W47571  12.048  16.468  14.164 -0.0456  0.2041  0.0077
31438W        W47572  13.919   7.747   1.834  0.1015 -0.2021 -0.0519
31439W        W47573   3.891   9.277   5.499 -0.1693 -0.0132  0.0545
31440W        W47574  13.136   9.329   5.232  0.1081  0.0301 -0.2063
31441W        W47575  15.050  11.076  11.019  0.0775 -0.2301 -0.2472
31442W        W47576   9.243  17.071  14.889 -0.0544 -0.1178  0.1233
31443W        W47577  13.823   9.172   1.230  0.1809  0.0049  0.0343
31444W        W47578  16.894  16.108   4.991  0.1368 -0.0898 -0.0133
31445W        W47579   5.197  17.531  15.658 -0.1138  0.0530  0.2615
31446W        W47580  17.275  17.948  13.564  0.0735  0.3581  0.1387
31447W        W47581  11.548  17.829  15.700 -0.0002  0.0468 -0.1216
31448W        W47582   7.372  15.640  13.299 -0.1764  0.0602 -0.0138
31449W        W47583  17.402  10.313   3.204  0.1897 -0.2643 -0.1240
31450W        W47584   4.340  11.782   2.810 -0.1297 -0.0942 -0.0920
31451W        W47585  11.529   1.054  15.925  0.3539 -0.3017 -0.1137
31452W        W47586   0.965   5.442   4.133 -0.0571 -0.1859  0.1354
31453W        W47587   9.990  17.093  15.442 -0.5149 -0.0141  0.0781
31454W        W47588  10.317   4.474   1.312  0.2728  0.0622 -0.0557
31455W        W47589  11.776  15.902   6.460  0.1655  0.2814  0.0313
31456W        W47590   3.313  11.336  16.054 -0.1810  0.1966 -0.0833
31457W        W47591   0.091   1.782   2.940  0.2580 -0.2930 -0.0917
31458W        W47592  16.626   3.337   3.733  0.0288  0.3938  0.0200
31459W        W47593   8.231   7.470   4.292  0.1104  0.2519  0.3195
31460W        W47594  16.844  10.807   1.523  0.0960 -0.2811 -0.1306
31461W        W47595  16.945  15.450  15.362  0.0492 -0.1474  0.0916
31462W        W47596   9.163  11.933   4.816  0.0704 -0.1786 -0.0397
31463W        W47597   6.058   5.977  15.008  0.1195  0.1934  0.4715
31464W        W47598  12.139   1.971   5.353 -0.0475  0.2615 -0.3321
31465W        W47599  15.538  15.984  12.091 -0.0230 -0.0662 -0.3037
31466W        W47600   4.924   3.021   4.980 -0.2202 -0.1439  0.0410
31467W        W47601  16.283   6.660   2.469  0.0757  0.0827 -0.1386
31468W        W47602   7.136   1.126  12.225  0.3900 -0.5388  0.2469
31469W        W47603   8.401   0.761  12.722  0.2096  0.0220  0.0693
31470W        W47604   2.215   3.589   1.402  0.2567  0.2315  0.0029
31471W        W47605   1.370   2.222  14.706  0.0217 -0.1515 -0.3414
31472W        W47606  12.434   0.883  14.777 -0.3259  0.1591 -0.3397
31473W        W47607   6.548   3.911  13.646  0.0473 -0.2753  0.0755
31474W        W47608  17.217   2.170   0.856  0.1565 -0.3205 -0.1119
31475W        W47609  11.916   6.896   0.979  0.2328  0.0064 -0.3174
31476W        W47610  12.560  11.458   2.190  0.0883 -0.1648  0.0716
31477W        W47611   2.930  17.296   0.081  0.0050  0.0843  0.1281
31478W        W47612   2.653   7.734  14.136 -0.0188 -0.1383 -0.2849
31479W        W47613   0.935  13.045  12.061 -0.2551 -0.0197  0.0404
31480W        W47614   2.908   8.065   1.116  0.0366 -0.3823  0.1472
31481W        W47615   3.746  13.737   5.419  0.0761 -0.1289  0.0916
31482W        W47616   5.308   3.327  11.981  0.0755 -0.0763 -0.0452
31483W        W47617   3.980  16.008   4.232  0.1669 -0.0769 -0.0706
31484W        W47618   0.890  12.246   4.443 -0.0814  0.6276  0.1209
31485W        W47619   0.562   5.644  11.391  0.1581  0.0649  0.1740
31486W        W47620   0.984   2.179   3.570  0.1661  0.1070 -0.3184
31487W        W47621   7.878   0.668  15.071  0.3404  0.2289 -0.2727
31488W        W47622  16.249  14.601   6.686 -0.1036 -0.0510  0.1103
31489W        W47623   4.617   7.894  11.980  0.2405 -0.0854 -0.1101
31490W        W47624  17.020  12.398  14.662  0.2863 -0.0225  0.0900
31491W        W47625   2.890  10.836  12.226  0.1736 -0.2935  0.0748
31492W        W47626  14.476   3.347   5.276 -0.4317 -0.0919  0.1657
31493W        W47627  12.727   7.594  13.804 -0.0583 -0.1222  0.1496
31494W        W47628  13.672   8.196  13.203 -0.0897  0.2736 -0.0194
31495W        W47629   3.588   9.065  15.866 -0.0113  0.1879  0.2895
31496W        W47630   8.930  17.080   1.283  0.0947  0.0353  0.0378
31497W        W47631   8.056   7.699   5.720  0.1126  0.1886  0.0418
31498W        W47632  17.737   5.389   0.639 -0.0588  0.0235  0.2103
31499W        W47633   3.682   4.980  16.399 -0.1206 -0.1822  0.1155
31500W        W47634  15.463   9.848   4.294  0.1518 -0.0182 -0.3080
31501W        W47635  15.494   8.869   0.827  0.0598  0.0640 -0.2720
31502W        W47636   0.714   6.605  14.448 -0.0780 -0.2014  0.3462
31503W        W47637   2.398   7.416  12.050  0.3556  0.0943 -0.0130
31504W        W47638   2.617   8.366   2.140  0.0715  0.3963 -0.1074
31505W        W47639   4.856   8.380   1.946  0.0149  0.0482  0.0523
31506W        W47640   1.912   5.684   5.300 -0.0345 -0.1577 -0.0728
31507W        W47641   9.354   8.515  11.724  0.1282  0.0710  0.1110
31508W        W47642   2.036  12.407   0.116 -0.0500  0.0683 -0.3109
31509W        W47643  15.123   7.555   1.128 -0.0903  0.2469  0.2631
31510W        W47644   3.653  16.861  13.884 -0.1003 -0.2500  0.2833
31511W        W47645  11.835  14.195   4.568 -0.2285  0.1041 -0.1809
31512W        W47646   4.466   3.093   0.947 -0.0435  0.1361  0.0920
31513W        W47647   2.530  10.235   0.750 -0.2970  0.1476  0.0617
31514W        W47648   5.548  10.211   1.034 -0.1397 -0.2716  0.1217
31515W        W47649   9.808  11.185  12.702 -0.0832 -0.2842 -0.0019
31516W        W47650   4.383   1.715   3.583  0.0831 -0.2792 -0.2296
31517W        W47651   9.984  10.291  15.043  0.1619 -0.0252  0.1742
31518W        W47652  14.056  14.009  15.802  0.0455  0.2712 -0.1136
31519W        W47653   4.123  11.010  14.503 -0.1409 -0.0185 -0.0778
31520W        W47654  15.344   8.052  14.751 -0.0899  0.2372 -0.1044
31521W        W47655   0.795  17.604  15.458  0.3485  0.0323  0.0467
31522W        W47656   2.550  10.054  11.381  0.0382 -0.1063  0.0107
31523W        W47657  17.953   4.911  12.582  0.0267  0.2492 -0.2514
31524W        W47658  13.228   2.283  14.373  0.0210  0.2458 -0.2003
31525W        W47659  13.992  17.730  16.475  0.2659  0.2832  0.1942
31526W        W47660   7.220   5.072   3.233  0.0392  0.1870 -0.0529
31527W        W47661   9.007   6.955  13.980  0.1630 -0.1908 -0.0251
31528W        W47662   7.349   1.954  12.884 -0.0626  0.0202 -0.0254
31529W        W47663  16.556  10.628   2.151  0.2954 -0.0165  0.1365
31530W        W47664   5.592   3.586   0.881 -0.0406  0.0547  0.3620
31531W        W47665  12.990  11.153  13.633 -0.3887  0.0877  0.1347
31532W        W47666  15.780   0.618   3.039 -0.0844  0.0001 -0.2039
31533W        W47667   3.869  10.512   3.317  0.3144  0.0879  0.0440
31534W        W47668  15.096  13.354  15.928  0.0610  0.1428 -0.0627
31535W        W47669   9.169  13.716   5.562  0.1891  0.3099 -0.0395
31536W        W47670   6.330   9.123  11.057  0.0419  0.0861 -0.0241
31537W        W47671  13.457   8.420  15.354  0.1655 -0.1086 -0.1429
31538W        W47672  14.735  10.165   4.811 -0.3428  0.2430  0.1617
31539W        W47673   4.679   5.929  14.485 -0.2459 -0.1440 -0.1175
31540W        W47674   9.996   9.684   1.987  0.1612 -0.0894 -0.2884
31541W        W47675   1.328   9.856  12.970  0.0851  0.2351 -0.0302
31542W        W47676  16.308   6.740  12.245  0.0515  0.0734  0.1086
31543W        W47677   3.878   1.747   0.536 -0.0197 -0.0718  0.0338
31544W        W47678   4.399   5.843  12.822  0.1420 -0.1885  0.1285
31545W        W47679   3.879   6.919   1.563  0.1285 -0.0365  0.0236
31546W        W47680   6.394  12.076  13.936 -0.4782 -0.2960 -0.0222
31547W        W47681  18.085  14.603  12.725 -0.2755 -0.3729 -0.0519
31548W        W47682  15.809  15.066  13.249  0.1013  0.0676 -0.1080
31549W        W47683   1.115  10.368   1.632 -0.3132 -0.1964  0.1949
31550W        W47684   5.912   0.443   3.167  0.0901  0.2485 -0.0227
31551W        W47685  10.666  11.840  11.030 -0.0343  0.2250  0.0827
31552W        W47686   9.626  12.338   3.712  0.2720  0.0715 -0.2160
31553W        W47687   1.635   8.897  16.408 -0.3546  0.0853 -0.1400
31554W        W47688  17.422  14.804  14.676  0.0527  0.4789  0.1904
31555W        W47689   8.728   4.068   1.081  0.0939 -0.1265 -0.2737
31556W        W47690  17.005   4.666  12.542  0.0454  0.0871 -0.1627
31557W        W47691   4.773   7.983   1.511  0.1718  0.0633  0.1574
31558W        W47692  10.955   4.969   3.914 -0.0819 -0.0250 -0.1252
31559W        W47693   2.817  17.907  13.071 -0.0554 -0.2707  0.0217
31560W        W47694  10.226   8.533  14.332  0.3135  0.1377  0.1605
31561W        W47695   9.366   7.933  15.560 -0.3614 -0.0205  0.0091
31562W        W47696  13.937   9.451  14.081 -0.2616  0.1553 -0.0681
31563W        W47697  16.529  14.507  12.743  0.0461  0.2910  0.0864
31564W        W47698   4.575  11.004  14.285 -0.3314  0.0776 -0.0168
31565W        W47699   6.917  15.278   2.602  0.2863  0.1360 -0.0633
31566W        W47700   8.811   5.913  11.045 -0.1241  0.0689  0.0093
31567W        W47701  16.962  16.337  15.753  0.1522 -0.0961 -0.0468
31568W        W47702   0.177  18.141   1.958  0.1049 -0.2922  0.2081
31569W        W47703   6.173   9.652  10.849  0.3097 -0.0028 -0.0437
31570W        W47704  18.049  16.593   5.257 -0.0510 -0.1969  0.2004
31571W        W47705   2.487  10.792   1.137 -0.2515 -0.0860 -0.2883
31572W        W47706   7.230  12.667   3.901 -0.0050  0.0228  0.0547
31573W        W47707   4.329  10.517   2.268 -0.3129 -0.0128  0.0795
31574W        W47708   1.433   6.391   4.796  0.2471 -0.0513 -0.0046
31575W        W47709  16.108   0.999  14.463 -0.0619  0.1152  0.0093
31576W        W47710  16.600   8.063  13.170  0.0486 -0.3304  0.1571
31577W        W47711   1.714   8.842  12.013 -0.0781  0.0946 -0.1119
31578W        W47712   5.611  14.977   1.749 -0.1977  0.4048 -0.0459
31579W        W47713  16.138   3.746  16.350 -0.0156 -0.2177  0.3824
31580W        W47714  11.129  17.392  10.864 -0.0374 -0.2208 -0.1423
31581W        W47715   3.905   6.186  11.677  0.0467 -0.1100  0.2619
31582W        W47716  16.741  14.546  13.422 -0.4313  0.1376 -0.0383
31583W        W47717   8.590   8.258   2.665 -0.0525  0.1943  0.0810
31584W        W47718   1.045  13.632  15.618  0.0864  0.0482 -0.1393
31585W        W47719   6.885  16.713  14.795  0.0983  0.0166 -0.2108
31586W        W47720  16.777   1.780  15.968  0.0563 -0.1557  0.6690
31587W        W47721  17.486   0.886  13.876  0.1251 -0.0126 -0.0448
31588W        W47722  10.546   7.053   5.484 -0.1710  0.2683 -0.1411
31589W        W47723   0.449   8.223  11.865  0.2888  0.5218  0.2540
31590W        W47724  15.379  10.702   2.664 -0.2257 -0.0615 -0.0081
31591W        W47725  17.570   5.395   3.451 -0.0939  0.0545  0.1245
31592W        W47726   1.170   7.786   1.098 -0.1351  0.2950  0.2613
31593W        W47727  16.204   1.796   0.800  0.1017 -0.0026 -0.1358
31594W        W47728   9.283  15.218  15.670 -0.2319 -0.0433  0.0765
31595W        W47729   2.164  11.428   3.411  0.1899 -0.0448 -0.1504
31596W        W47730  13.324   7.023  15.123  0.2892 -0.1535 -0.0466
31597W        W47731  16.104  17.444   4.150  0.0878 -0.0186  0.0484
31598W        W47732   5.294   7.874  12.566 -0.1570 -0.3258 -0.2345
31599W        W47733   9.192  10.460   4.003 -0.2544 -0.1493 -0.3746
31600W        W47734   7.224  14.624  12.243  0.0781  0.2009 -0.1110
31601W        W47735   3.553   0.960   3.512  0.0751  0.0330  0.2137
31602W        W47736   1.691   7.894  12.730 -0.2221  0.2344  0.1558
31603W        W47737   1.425   9.421   1.627 -0.2207 -0.0039 -0.2027
31604W        W47738  12.236  16.270   1.899 -0.0451 -0.0503  0.0957
31605W        W47739   3.113  10.207  13.323 -0.1092 -0.0321 -0.0678
31606W        W47740   5.861   2.914  13.484 -0.3216  0.0424 -0.0477
31607W        W47741  14.162  11.363   2.697  0.3044 -0.1053 -0.0660
31608W        W47742  12.718  16.541  13.748 -0.0383  0.0720 -0.1145
31609W        W47743   4.374  14.633  15.077  0.1157  0.2047  0.0271
31610W        W47744   3.790  13.309  15.777  0.2225 -0.0681  0.0005
31611W        W47745  13.369  15.248  15.073  0.0149 -0.3217 -0.1144
31612W        W47746  10.229   6.867   1.886  0.1779  0.0850 -0.0563
31613W        W47747   9.113  13.446   0.564  0.1038 -0.0103 -0.0450
31614W        W47748  10.777  12.839  16.063 -0.1813 -0.0951  0.1024
31615W        W47749   8.964   9.701  11.810 -0.1932 -0.2419  0.1308
31616W        W47750  17.388   6.456  15.695 -0.1811  0.4702 -0.0248
31617W        W47751   4.959  15.910  12.787  0.0981 -0.0154 -0.1015
31618W        W47752  10.668   3.684   5.095  0.0618 -0.1028  0.2680
31619W        W47753   4.678   4.756  15.491  0.0485  0.0336  0.0168
31620W        W47754  13.919   6.917   1.346 -0.2504 -0.1633 -0.4222
31621W        W47755   0.139   8.857   1.337 -0.2284  0.1134  0.0280
31622W        W47756  17.271  13.947  11.963  0.1429 -0.2181  0.0029
31623W        W47757  10.477   8.021  16.340  0.0373 -0.1072  0.2450
31624W        W47758  11.711  15.975   0.644 -0.0567  0.1707  0.3254
31625W        W47759   8.550  11.947  16.096  0.1955 -0.1286  0.1013
31626W        W47760   4.098   9.392   3.169  0.0272 -0.3015  0.0089
31627W        W47761   5.153   5.950   3.481  0.2591  0.0911  0.0728
31628W        W47762   0.272   6.841   0.824  0.1250  0.0343  0.0170
31629W        W47763   8.519   7.449  16.343  0.0208  0.0823 -0.4138
31630W        W47764   8.804   3.196  14.655  0.1232  0.0136 -0.2308
31631W        W47765   2.725   7.161   3.276  0.0530  0.1747 -0.2011
31632W        W47766  13.088   1.462  14.280  0.1140 -0.0492 -0.3111
31633W        W47767  17.736   3.944   5.318  0.1813 -0.2664 -0.0267
31634W        W47768   6.262   5.566   0.193  0.0576 -0.0305 -0.0951
31635W        W47769   1.138   9.405   3.734  0.2805  0.1496 -0.0600
31636W        W47770   3.566   1.082  12.911  0.2709 -0.1998  0.2798
31637W        W47771  16.760   3.884  13.269  0.1671  0.2908  0.0902
31638W        W47772  15.192  15.091   1.755 -0.3877  0.0973 -0.0633
31639W        W47773   4.820  14.663   3.929 -0.2083  0.1426  0.3700
31640W        W47774   4.862   0.307   4.642  0.0928  0.1111 -0.1848
31641W        W47775  15.996  16.239  12.191  0.0330  0.1346  0.1711
31642W        W47776   4.915   2.018   2.804 -0.1570  0.1848 -0.1713
31643W        W47777   7.427  10.380  14.785  0.0018 -0.1089  0.3197
31644W        W47778   2.908   5.448   2.599  0.3762  0.0760  0.0687
31645W        W47779   0.272  13.501   6.222  0.1687  0.0029  0.0060
31646W        W47780   9.776   3.882   2.819 -0.2369  0.0358 -0.0721
31647W        W47781   9.955   9.499  11.660  0.2620  0.3665 -0.2521
31648W        W47782  14.241  13.420   5.672  0.5778 -0.2812  0.2188
31649W        W47783  16.490   8.465   3.637 -0.1504 -0.1010 -0.2045
31650W        W47784   5.043   1.039   3.174 -0.3286 -0.1530 -0.0552
31651W        W47785   2.276  17.404   6.274  0.3022  0.0221 -0.0456
31652W        W47786  17.791   1.672   5.175 -0.1788 -0.1257 -0.1097
31653W        W47787   3.839  15.461   4.471 -0.1567  0.2681 -0.0695
31654W        W47788   9.934  15.476  13.561 -0.2058  0.3320  0.1848
31655W        W47789   4.339  17.839  15.312  0.2419  0.0054  0.2046
31656W        W47790  16.893   0.010  16.358  0.1492 -0.1675 -0.0680
31657W        W47791   0.872   3.515   2.014 -0.2276  0.2914 -0.3069
31658W        W47792   1.474   6.177   0.418  0.0249 -0.0964 -0.0843
31659W        W47793  12.505   6.747  14.624 -0.1747  0.0793 -0.0817
31660W        W47794   4.364  11.008   2.117  0.2357  0.0552  0.2770
31661W        W47795  17.342  14.137   1.505  0.1510  0.0141  0.0374
31662W        W47796   9.445   2.439  16.127  0.3375 -0.1777  0.1889
31663W        W47797  13.371   4.210   5.743  0.2049  0.0283 -0.1185
31664W        W47798   2.095  12.036   4.896 -0.1464  0.0465 -0.0403
31665W        W47799   4.021   6.189  12.210 -0.0218  0.1762 -0.0606
31666W        W47800   7.312   6.453  12.589  0.2616  0.2528  0.0515
31667W        W47801  16.403  10.448  15.227  0.4376 -0.1641 -0.1788
31668W        W47802  10.476   5.973   1.539 -0.0896 -0.0740  0.0401
31669W        W47803   9.445  12.703   0.695  0.2332 -0.1658 -0.0099
31670W        W47804   7.076  13.418  13.553  0.3087 -0.2031  0.2931
31671W        W47805   6.268   9.528   2.989  0.0513  0.1274  0.0557
31672W        W47806   1.981   4.770   0.723  0.3112  0.0414 -0.1019
31673W        W47807   9.887   1.536   4.133  0.2070  0.1338  0.1247
31674W        W47808  10.775  18.064   5.835  0.1251  0.4406  0.0438
31675W        W47809   7.167  17.328  13.548  0.0388  0.3583 -0.0065
31676W        W47810  14.631  11.097  14.589  0.2018  0.0421 -0.2651
31677W        W47811  12.821  10.485  12.235 -0.1614 -0.1101 -0.3118
31678W        W47812   5.935   8.092   4.321  0.2437 -0.1476  0.2605
31679W        W47813  12.668  14.124   1.248  0.0682 -0.1601  0.0627
31680W        W47814   4.653   4.657   0.099  0.2269 -0.0582 -0.0760
31681W        W47815   0.606  10.667   0.907  0.0196 -0.0213 -0.1577
31682W        W47816   2.160  12.214  11.707  0.1039  0.1898 -0.0515
31683W        W47817   8.633   6.524  13.748 -0.1355  0.1862  0.0034
31684W        W47818  11.259   8.694  10.589 -0.0360 -0.0976 -0.1399
31685W        W47819  10.561   9.409  11.348  0.2060 -0.0778 -0.1233
31686W        W47820   3.284   3.117  14.041 -0.0234 -0.0988 -0.2960
31687W        W47821  11.220  11.700   2.784 -0.2254 -0.2122 -0.1587
31688W        W47822  16.755   1.934   3.234 -0.1641 -0.2755 -0.3647
31689W        W47823  15.931   2.496   4.424 -0.1698  0.1800  0.0359
31690W        W47824   7.021   6.622   0.056 -0.1565 -0.0205  0.0780
31691W        W47825   4.195   0.708   2.332 -0.2854 -0.1526  0.1771
31692W        W47826   5.028  15.923   1.982 -0.1086 -0.2896 -0.2339
31693W        W47827  14.737   1.662  16.078 -0.3173 -0.0690  0.1475
31694W        W47828   5.669   7.068   0.761  0.2697  0.0697  0.3415
31695W        W47829  13.291   6.993   3.412  0.0059 -0.4675  0.3312
31696W        W47830   0.032  12.495   4.029  0.0579 -0.0586  0.1411
31697W        W47831  17.603  14.303  15.362 -0.1943  0.1614 -0.3237
31698W        W47832  10.747   2.953  11.308 -0.2392 -0.0350  0.1629
31699W        W47833   0.786   6.023  13.187 -0.1801  0.3134 -0.1493
31700W        W47834   7.076   3.526  14.334 -0.2133  0.1265 -0.1750
31701W        W47835   9.675  16.235  12.933 -0.1549  0.2997  0.2950
31702W        W47836  15.110   6.982   0.576  0.2482  0.0842 -0.0745
31703W        W47837   4.861   5.647   3.201 -0.0827 -0.3695  0.0837
31704W        W47838   8.821  14.772   0.798  0.0794 -0.2015 -0.1610
31705W        W47839   6.531  11.438   4.971 -0.0859  0.3104  0.1954
31706W        W47840  10.955  13.778   4.658 -0.0356  0.0691  0.1054
31707W        W47841   6.279  15.817   0.090  0.1219 -0.0669 -0.1368
31708W        W47842   4.026  12.166  12.031 -0.1380  0.3611  0.2288
31709W        W47843   5.716   8.771   1.524  0.1143 -0.0629  0.2767
31710W        W47844   2.115  11.429  11.746  0.0274 -0.2179 -0.0605
31711W        W47845   4.232  15.452  15.747 -0.2344 -0.2566  0.6355
31712W        W47846   6.383  16.650   3.396 -0.1248 -0.0836  0.3918
31713W        W47847   2.991  11.991  11.857 -0.1431 -0.0802 -0.0150
31714W        W47848   1.161  13.518   5.608  0.1242  0.0251  0.0959
31715W        W47849   5.961   1.775   0.878 -0.0613 -0.1740  0.0028
31716W        W47850  10.834   5.219  16.240 -0.1757 -0.1986  0.1340
31717W        W47851  12.239   3.336   2.077 -0.0871 -0.0240 -0.2178
31718W        W47852   9.491   3.826  15.230  0.0133 -0.1524  0.1645
31719W        W47853  17.908   0.941   2.529  0.4039  0.0758 -0.0674
31720W        W47854  11.651  14.124  13.980  0.0438 -0.1589  0.0092
31721W        W47855   2.847  16.305   3.899  0.0586 -0.1011 -0.1231
31722W        W47856   1.317   8.763  12.903 -0.0213 -0.0473 -0.2512
31723W        W47857  15.406  15.192  11.982 -0.0672  0.0249 -0.1069
31724W        W47858  13.577   9.418   0.203  0.0826 -0.2138  0.0722
31725W        W47859   3.846   1.541  13.241  0.0383 -0.2489  0.2148
31726W        W47860   0.343   9.756   4.641  0.0804  0.2200 -0.1168
31727W        W47861   3.123   1.346   2.034 -0.0866 -0.2966 -0.0814
31728W        W47862  15.639  18.136  12.044  0.1489 -0.0696  0.0633
31729W        W47863  15.493   1.951  13.091  0.3944  0.3231  0.1640
31730W        W47864   9.058  13.946   4.277  0.1398 -0.0010 -0.1690
31731W        W47865  14.938   6.787  14.349 -0.0361  0.1511  0.1423
31732W        W47866  14.714   3.452  12.971  0.1372 -0.0159  0.3534
31733W        W47867  16.046   9.677  12.889 -0.1397  0.2109  0.0867
31734W        W47868   3.247  15.004  15.258  0.0963 -0.2035  0.1394
31735W        W47869  17.838   1.589  15.830 -0.1705 -0.2162  0.1240
31736W        W47870   3.180   3.657  15.400 -0.2419  0.0151 -0.0672
31737W        W47871   0.412   3.843   0.259 -0.0495 -0.0309  0.1555
31738W        W47872  13.343  11.118   3.138  0.0205 -0.1349  0.0648
31739W        W47873   1.545   9.478   9.845 -0.3892 -0.1089  0.1747
31740W        W47874   8.396  14.084   0.138 -0.0046  0.1337 -0.1759
31741W        W47875   9.558   7.059  11.848 -0.0473 -0.1310 -0.2712
31742W        W47876   2.937  15.111   4.498 -0.0141 -0.3247  0.2756
31743W        W47877  14.117   4.740   5.317  0.2391  0.1204  0.1145
31744W        W47878   8.286  14.428  11.390 -0.0443 -0.2622  0.0161
31745W        W47879  13.449  12.201  11.780  0.0049 -0.0548  0.1712
31746W        W47880  15.801  15.987  11.702 -0.0141  0.2402  0.2371
31747W        W47881  14.135   3.100   5.554 -0.3161 -0.0646  0.4679
31748W        W47882   2.158   4.415   2.601 -0.0094  0.0713 -0.1300
31749W        W47883   5.573   2.728   4.236 -0.0804  0.0782  0.0385
31750W        W47884   3.559  16.401   1.221 -0.3054  0.0791 -0.1091
31751W        W47885   6.337   9.478  13.790 -0.2296  0.1577 -0.1413
31752W        W47886  11.386   1.123  11.997 -0.0336 -0.1461 -0.1329
31753W        W47887   0.382  15.801   2.005 -0.0724 -0.2607 -0.2033
31754W        W47888   1.736  12.759   4.734 -0.1394  0.0300  0.2925
31755W        W47889  14.590  10.355  13.122  0.2123 -0.0571  0.0371
31756W        W47890  14.575  12.736  15.435 -0.3262  0.2592  0.0232
31757W        W47891  10.642  17.332   2.140  0.1933 -0.1755  0.1460
31758W        W47892  15.448   5.780   4.749  0.0716 -0.0402 -0.0045
31759W        W47893  16.018  13.499   0.779 -0.0139  0.0519  0.0770
31760W        W47894  15.101   9.285   2.587  0.0760  0.0332 -0.0386
31761W        W47895  15.230   3.484  12.859 -0.2916 -0.2624 -0.1855
31762W        W47896   8.972  13.940  10.989 -0.1949 -0.2574  0.0034
31763W        W47897   7.289  15.483   1.707 -0.2318 -0.0361 -0.1033
31764W        W47898   1.789   2.027  14.375 -0.2111  0.0832 -0.1120
31765W        W47899   7.886  17.517   1.114  0.0937 -0.3589  0.2558
31766W        W47900   3.533  13.689   3.870  0.1245 -0.3921  0.0076
31767W        W47901   8.435  13.465   4.312 -0.1442  0.3639 -0.0215
31768W        W47902   4.301   6.348   4.924 -0.1857 -0.1061 -0.2259
31769W        W47903  16.946   5.935   3.338  0.4287  0.1251 -0.1911
31770W        W47904  12.924  13.250  15.808 -0.1046  0.1261  0.2915
31771W        W47905  11.095  15.585   4.931 -0.2296  0.1271  0.0694
31772W        W47906   7.005  16.048   3.259 -0.3791  0.0282  0.0720
31773W        W47907   7.221   0.574   2.518 -0.0531  0.0381 -0.0997
31774W        W47908  10.672   0.499   3.921 -0.0033 -0.1848 -0.0922
31775W        W47909  12.880  11.711   0.301 -0.2030  0.3140  0.4598
31776W        W47910  13.695   7.679  13.176  0.4570  0.3531  0.0928
31777W        W47911  11.266   4.599   3.773 -0.1891 -0.1049  0.2199
31778W        W47912   8.404  15.543   1.584 -0.1750  0.1142  0.1459
31779W        W47913  14.454   3.184  15.995  0.0038 -0.1118 -0.2954
31780W        W47914  15.855   2.373  14.578 -0.0789  0.1496 -0.2815
31781W        W47915  11.489  16.445   4.869  0.2940  0.2001  0.0009
31782W        W47916  11.344   7.096  12.625 -0.1444  0.0686 -0.1891
31783W        W47917  12.884   6.550  11.563 -0.0886 -0.1559 -0.3006
31784W        W47918  11.586  11.191   1.571 -0.0045 -0.1038  0.0323
31785W        W47919  16.216   1.552  15.156 -0.1976 -0.3942 -0.4580
31786W        W47920   6.571  17.599   5.052  0.0867  0.1272 -0.0225
31787W        W47921  16.779   2.147  15.107  0.3261 -0.1311 -0.1806
31788W        W47922   8.237   3.888   1.936 -0.2274  0.0891  0.2185
31789W        W47923  14.023  15.408  12.491 -0.1747 -0.1003  0.3129
31790W        W47924   0.395  13.643   3.755  0.1391 -0.2832 -0.1552
31791W        W47925   7.571   6.864   1.146 -0.2795 -0.0307  0.1783
31792W        W47926   3.844   7.515  12.588  0.1745  0.1037  0.0033
31793W        W47927  13.852   3.497  15.146  0.2326  0.0780 -0.1058
31794W        W47928   3.244   3.383   1.996 -0.3755  0.1874  0.3152
31795W        W47929   9.431   3.703   2.465 -0.1709  0.2317  0.1842
31796W        W47930  12.473   4.803  13.943 -0.1278  0.1199 -0.1392
31797W        W47931   3.536   1.530   0.055 -0.1020 -0.0317  0.0318
31798W        W47932   9.717   8.560  14.520  0.2134  0.3110  0.1651
31799W        W47933   9.260  14.328  11.635 -0.0140 -0.2854 -0.1112
31800W        W47934   9.452   9.809   2.849  0.0297  0.0270  0.2209
31801W        W47935  14.233   3.892  14.773  0.1670 -0.1872  0.0020
31802W        W47936   7.799  15.224   3.163 -0.0174  0.1015 -0.0477
31803W        W47937   1.588   1.229  16.458  0.3306  0.0173  0.0099
31804W        W47938  16.942   9.391  12.451  0.0855 -0.1804 -0.0598
31805W        W47939  14.079  10.699  15.949  0.0308  0.2016  0.1103
31806W        W47940   8.143   9.591  14.514  0.2922 -0.2110 -0.0921
31807W        W47941   3.055   1.691  13.821  0.0603  0.1038  0.1006
31808W        W47942  16.643   3.245   5.610  0.2337 -0.0686  0.0700
31809W        W47943   8.274  17.586   2.418 -0.1148  0.0541 -0.2507
31810W        W47944   1.875   9.213   2.359 -0.4462  0.1187  0.0569
31811W        W47945  16.404  12.425  15.925  0.0221  0.0229 -0.0831
31812W        W47946   7.737   2.627   0.526 -0.0373 -0.0606 -0.1342
31813W        W47947  14.030   9.747  12.099 -0.2110 -0.0858  0.0498
31814W        W47948   9.977   5.320  11.772 -0.0985  0.0362 -0.2118
31815W        W47949   8.794   0.065   2.787 -0.3031 -0.1791  0.0318
31816W        W47950   2.945   4.406   3.472 -0.3958  0.0808 -0.0389
31817W        W47951   0.696   0.640   1.912 -0.0610  0.0364  0.2186
31818W        W47952   7.016  12.571  15.202 -0.1468 -0.1738 -0.2365
31819W        W47953  14.734  11.553  12.745 -0.1052  0.2517  0.0804
31820W        W47954  16.484   9.195  14.092 -0.1797  0.1253  0.3239
31821W        W47955  15.403  14.306  12.258  0.0732 -0.1668 -0.1198
31822W        W47956   6.876   3.320  12.708 -0.2676  0.2271 -0.2170
31823W        W47957   6.336   3.322  14.731  0.3160  0.7469 -0.1216
31824W        W47958   5.630  14.268  15.542 -0.0631  0.0542  0.3010
31825W        W47959   1.443   4.317   5.162 -0.2866  0.1099 -0.1734
31826W        W47960  13.561   3.852   0.207  0.1725 -0.2242 -0.0101
31827W        W47961   1.037  16.098   0.687 -0.3049  0.2468  0.2479
31828W        W47962   8.910   0.436  12.784 -0.2376 -0.0922 -0.3054
31829W        W47963   7.417   6.221  11.315  0.0119 -0.1374  0.0450
31830W        W47964   8.721   9.734  15.974  0.1501  0.0774 -0.1190
31831W        W47965   6.512   8.124  16.512 -0.2348 -0.4638  0.0727
31832W        W47966   8.479   9.771   2.649  0.2094  0.1614 -0.1417
31833W        W47967   2.471  13.933   5.877  0.0902 -0.0981 -0.1397
31834W        W47968  17.816   2.122   3.434  0.1103  0.0562 -0.0806
31835W        W47969  10.249  10.934   2.161  0.0958  0.0052 -0.2947
31836W        W47970  17.841  15.208  15.192  0.1554 -0.1781  0.1629
31837W        W47971  11.019   5.830  14.806  0.2057  0.0540  0.0291
31838W        W47972  10.036  10.832   0.018  0.1676  0.2386 -0.2189
31839W        W47973   8.229   7.743   3.028 -0.0418  0.0450  0.0395
31840W        W47974  10.067   5.578   2.370 -0.1048  0.2624 -0.0924
31841W        W47975   2.341   1.897   0.943  0.0432  0.1682  0.1491
31842W        W47976   1.968   2.736  12.344 -0.0010 -0.4087 -0.0595
31843W        W47977  17.264   6.940  14.955  0.0871 -0.0170 -0.1011
31844W        W47978   5.478  17.833   5.902  0.2528 -0.0461 -0.2455
31845W        W47979  12.165   9.085   2.540 -0.0640  0.0028  0.2068
31846W        W47980   9.245  12.823   4.521 -0.1806 -0.0785  0.0444
31847W        W47981   1.625  17.959  11.688 -0.4526 -0.1739 -0.1199
31848W        W47982  14.720   3.904  14.856  0.3137 -0.1563 -0.1086
31849W        W47983   2.095   8.429   3.189  0.0472  0.0049  0.0262
31850W        W47984   8.069  15.237   1.840  0.1165  0.1055 -0.1588
31851W        W47985   0.954  11.654  15.018 -0.0009 -0.1829  0.0611
31852W        W47986   8.995   8.349   1.823 -0.0623  0.1890  0.0075
31853W        W47987  12.850   7.963  11.939  0.1067  0.2607 -0.0197
31854W        W47988   8.941  10.986   2.401  0.0293  0.1965 -0.2137
31855W        W47989  12.769   2.992  11.970 -0.3873  0.1301  0.1105
31856W        W47990  15.939   2.171  14.102  0.0204 -0.2702 -0.0827
31857W        W47991   6.981   1.597  16.188 -0.0980  0.0253  0.0728
31858W        W47992  15.103  14.576   1.765  0.1852  0.4248 -0.0683
31859W        W47993  12.242  13.711  15.029 -0.0048  0.3771  0.0719
31860W        W47994  17.754   6.036  10.504 -0.2058  0.2301  0.0125
31861W        W47995   9.966   7.268  12.929 -0.0587  0.0284  0.3414
31862W        W47996  14.739   1.571  14.396 -0.0782  0.4115 -0.0192
31863W        W47997   7.043   7.932  13.312 -0.1764  0.1853  0.0894
31864W        W47998  15.197  18.134  11.842  0.0191 -0.0497  0.0876
31865W        W47999   6.014  11.553  14.886 -0.2089 -0.0858 -0.1252
31866W        W48000   7.876   3.520  11.355 -0.0207 -0.4358  0.0323
31867W        W48001   2.719   6.968  13.231 -0.0631  0.1478 -0.0787
31868W        W48002   4.855  13.411   5.504 -0.0926  0.2127 -0.2860
31869W        W48003  12.623   0.227   4.779  0.1119 -0.1462  0.0190
31870W        W48004   1.883  15.309   3.376  0.3778  0.0030 -0.3024
31871W        W48005   9.286   6.930  16.310 -0.0297  0.1163 -0.0779
31872W        W48006   5.529   6.830   1.163 -0.3224  0.1854  0.1641
31873W        W48007   5.713   5.321  12.621 -0.1286 -0.1914  0.0783
31874W        W48008   1.210  17.967  12.502  0.0267  0.2147  0.2627
31875W        W48009  17.142   3.728   0.473  0.2339 -0.0090 -0.0153
31876W        W48010   8.140  15.895  12.352 -0.0187  0.0531  0.0936
31877W        W48011   3.601  17.276  15.279 -0.1099  0.0263  0.0507
31878W        W48012  15.924   6.666   5.851  0.0091 -0.0808  0.0507
31879W        W48013  13.710  16.353   2.961  0.0532  0.2266  0.3523
31880W        W48014  11.487  17.372  11.742 -0.1110  0.0075  0.2207
31881W        W48015  12.316   5.670  14.434 -0.4625 -0.1508  0.0185
31882W        W48016   6.575   6.243  13.900  0.1218  0.0590  0.2131
31883W        W48017   5.273   3.601   4.186  0.0552 -0.0559  0.0857
31884W        W48018   1.843  11.781   4.216  0.1513  0.0147  0.0628
31885W        W48019   3.676   6.468  16.381  0.0569  0.1129 -0.1442
31886W        W48020  16.377   2.426   1.563 -0.1168  0.0359 -0.0122
31887W        W48021  13.711   4.020   4.806 -0.0690 -0.0771 -0.0323
31888W        W48022  17.638   0.415  14.021 -0.1409  0.3299 -0.0491
31889W        W48023  16.452   1.734  13.668  0.0087  0.0998 -0.0262
31890W        W48024  10.600   3.800  14.737  0.1473  0.3350  0.0910
31891W        W48025   7.871  14.886  13.412  0.1941  0.1302  0.1053
31892W        W48026   9.795  10.010  15.476 -0.1860 -0.3746  0.1551
31893W        W48027  14.090   0.132  15.824 -0.3142  0.2409  0.1624
31894W        W48028   5.446  15.293   0.046  0.0852  0.0188 -0.1184
31895W        W48029   6.162   8.650  15.068  0.0785 -0.0299  0.1166
31896W        W48030  12.336  11.845   5.248 -0.2355 -0.0809 -0.0386
31897W        W48031  10.315   0.663  14.815  0.2616 -0.0008 -0.0396
31898W        W48032  13.313  11.905  15.811  0.0611 -0.2186 -0.3485
31899W        W48033   7.114  17.540  16.468 -0.0527 -0.3003 -0.3798
31900W        W48034   9.089   9.222  13.966 -0.0363 -0.1527 -0.0028
31901W        W48035  15.647   2.569  13.923  0.1244 -0.0939 -0.0127
31902W        W48036  16.451   4.029  14.086  0.0472  0.2204  0.0321
31903W        W48037   7.517   5.936  13.712 -0.2413  0.2120 -0.1037
31904W        W48038  12.877   6.904   2.449  0.0577  0.3392 -0.0323
31905W        W48039  17.927  17.723  11.309 -0.2254 -0.1576 -0.3810
31906W        W48040   4.353   7.942   2.831  0.0778  0.0508 -0.1317
31907W        W48041   3.056  11.536  16.466 -0.1866  0.2809  0.0076
31908W        W48042  10.892  17.650  13.513 -0.0811  0.2374  0.0574
31909W        W48043   2.784  16.429  11.943  0.1646 -0.2729  0.0721
31910W        W48044  17.305  13.466   5.276  0.0199  0.1482 -0.0578
31911W        W48045   7.528   7.183  13.614 -0.3104  0.0643 -0.1884
31912W        W48046   3.949  11.550   1.515  0.0869  0.2417 -0.0539
31913W        W48047  16.111  10.867  12.089  0.2715  0.0241 -0.0469
31914W        W48048  12.251   3.252  14.060  0.0864 -0.2153  0.3296
31915W        W48049  12.084   5.147  13.632  0.0854  0.1894  0.0143
31916W        W48050   3.418   0.221  14.089  0.3083 -0.0271  0.0444
31917W        W48051   3.927   9.908  11.060 -0.0630  0.1592 -0.2211
31918W        W48052  17.261   2.640   1.195  0.1337 -0.4152  0.2766
31919W        W48053  13.544   0.328  15.449  0.0251 -0.5427  0.2223
31920W        W48054  10.274  17.849   3.023  0.1887 -0.2215  0.0976
31921W        W48055   9.963   2.345   0.323  0.0563  0.1772 -0.5181
31922W        W48056   3.752   7.172  11.364 -0.0842  0.1588  0.1737
31923W        W48057   5.192   7.725  11.607 -0.0920 -0.0051  0.2179
31924W        W48058   8.163  13.862   2.163 -0.0226  0.1252  0.1703
31925W        W48059   4.848  12.393  14.762  0.1074 -0.1430  0.2391
31926W        W48060  14.129   6.553  14.012 -0.1154  0.0453  0.1864
31927W        W48061   8.187   4.704   5.311  0.1336 -0.1527  0.2536
31928W        W48062   4.879  16.803   6.475  0.2032 -0.2696  0.2309
31929W        W48063  12.841   9.802   1.393 -0.0880 -0.1505 -0.0187
31930W        W48064   3.996  15.244   0.619  0.1827  0.0857  0.3096
31931W        W48065  17.846   7.191  15.979  0.1453 -0.0431 -0.0493
31932W        W48066  18.173  16.350  16.326 -0.0915 -0.0908 -0.0792
31933W        W48067  17.772  10.367  13.850  0.2062 -0.1160  0.3508
31934W        W48068   4.495  12.307   4.511  0.0576 -0.0505  0.1985
31935W        W48069  17.064   7.983   3.728 -0.1534  0.0468 -0.1863
31936W        W48070   7.199  10.415  14.313 -0.2747 -0.0609 -0.4401
31937W        W48071   3.829  12.109  14.199 -0.1528  0.1893  0.1672
31938W        W48072   8.496   9.375  14.206  0.0501 -0.2892 -0.0353
31939W        W48073   8.837   7.718  13.194 -0.0557  0.0353 -0.0445
31940W        W48074  13.790   5.564  12.514 -0.0868 -0.0578  0.1087
31941W        W48075   4.915   9.411   2.577 -0.3612  0.0306 -0.4301
31942W        W48076  11.944   8.849  15.327 -0.0029 -0.0744  0.3622
31943W        W48077   0.469  16.010  15.627 -0.0195 -0.1805  0.1123
31944W        W48078   1.054   0.814  15.874  0.0552  0.0763 -0.1048
31945W        W48079   2.128  15.251   2.507  0.0614 -0.0823 -0.2136
31946W        W48080  12.668  16.786  14.849  0.0567 -0.2237 -0.2226
31947W        W48081   5.550   4.468  16.087  0.0347 -0.1183  0.2238
31948W        W48082   7.522   3.169   0.618  0.0641 -0.1071 -0.0526
31949W        W48083   1.022   4.731  12.949  0.0983 -0.1549 -0.0144
31950W        W48084   0.121  15.577   0.837 -0.0279  0.1630  0.2033
31951W        W48085  16.845   7.462  16.233 -0.1860 -0.1788  0.0109
31952W        W48086  11.661   7.014   3.032  0.2105  0.4575 -0.3255
31953W        W48087   8.686   5.998   5.544  0.0675 -0.3039 -0.3046
31954W        W48088   1.330   2.483  12.679 -0.0774 -0.0325 -0.1336
31955W        W48089  16.930  17.350   1.518  0.1956  0.2482 -0.0787
31956W        W48090  10.301  15.682   4.289 -0.3001  0.0353 -0.0255
31957W        W48091  11.672   7.349   1.152  0.2972  0.0640  0.2782
31958W        W48092   1.988  16.870   4.487 -0.1250 -0.0796 -0.1289
31959W        W48093  13.373  14.629   3.390 -0.1129 -0.0254  0.1717
31960W        W48094  10.061   5.120   0.786 -0.0246 -0.0627  0.0772
31961W        W48095   9.991  12.908  15.665  0.1740 -0.0969 -0.1418
31962W        W48096   8.133   2.974  12.517  0.2668 -0.1022  0.0074
31963W        W48097  13.357   8.746   3.376  0.3360 -0.2826  0.2137
31964W        W48098  16.062   8.241  15.019  0.1163  0.1631 -0.1124
31965W        W48099   3.489  10.964   0.459 -0.4542 -0.0226  0.0818
31966W        W48100   4.650  17.412   4.335  0.3987  0.1947  0.1656
31967W        W48101  11.450   0.476  13.730  0.2270 -0.2652  0.0321
31968W        W48102  13.567  14.233   0.181 -0.0977 -0.1068  0.0568
31969W        W48103   1.405   3.478   2.123 -0.0999 -0.1777  0.2101
31970W        W48104  16.605   7.210   0.099 -0.0798  0.2241  0.2527
31971W        W48105   9.979   8.943  14.526  0.2808 -0.0505 -0.0210
31972W        W48106   9.344  12.098   0.896 -0.0642 -0.1187  0.0271
31973W        W48107  14.894   0.009   2.913 -0.0761 -0.3285  0.3585
31974W        W48108  17.896  11.596   4.511 -0.0553 -0.2793 -0.0469
31975W        W48109  12.839  14.092  13.314  0.0465  0.0913  0.1157
31976W        W48110  17.632  12.554  13.530  0.0764  0.3242  0.3538
31977W        W48111   6.230   5.289   5.271 -0.1639  0.0653 -0.0544
31978W        W48112   6.906  10.897  14.455 -0.4567 -0.0601  0.1790
31979W        W48113  12.943   1.759   0.622 -0.0172  0.0354 -0.2579
31980W        W48114  11.574   4.865  15.885 -0.0388  0.0769 -0.1295
31981W        W48115  17.887   5.694  11.477 -0.0660 -0.4678  0.0485
31982W        W48116   6.755   1.134  14.110 -0.0921 -0.2694  0.0283
31983W        W48117  17.815  10.824   5.410  0.3472 -0.2719 -0.0731
31984W        W48118   5.966   6.207   5.431 -0.1390 -0.2030  0.4369
31985W        W48119  11.051   0.951  12.862 -0.2429 -0.0671 -0.1084
31986W        W48120   2.296   9.690  11.551 -0.0709 -0.1394 -0.1376
31987W        W48121  15.074  15.203  11.628  0.1457  0.1270  0.1920
31988W        W48122   5.320  14.790   0.820  0.0264  0.1743  0.0734
31989W        W48123  16.581   1.279   4.970 -0.0460 -0.2099  0.0828
31990W        W48124   0.211   1.074   1.561  0.2740  0.1099 -0.2704
31991W        W48125   8.881   9.511   0.694  0.5811  0.0200 -0.2047
31992W        W48126  13.697   5.355   5.828 -0.0772 -0.1363  0.1560
31993W        W48127  15.631  13.753   4.623 -0.1347  0.3380  0.1125
31994W        W48128   2.051   3.757  15.910 -0.1279  0.0184 -0.2411
31995W        W48129   1.639   2.864  12.852  0.0106 -0.1125 -0.2864
31996W        W48130   1.335  12.725   3.464  0.0210 -0.5107 -0.0252
31997W        W48131   1.767   4.936   3.864 -0.1871 -0.0790  0.1780
31998W        W48132   3.964  13.819   3.626  0.2581  0.1840  0.0461
31999W        W48133  16.835  14.064  12.684  0.0466 -0.1150  0.3146
32000W        W48134  13.103  16.695   5.869 -0.2951 -0.1075  0.1468
32001W        W48135   7.259  14.988  15.752 -0.0447 -0.3238 -0.0608
32002W        W48136  10.429  15.661  13.465 -0.0087  0.2974 -0.0889
32003W        W48137  11.604  14.198   3.197  0.0355  0.0484  0.3307
32004W        W48138   9.141  14.660   0.368  0.2090  0.1491  0.0346
32005W        W48139   8.546  17.196   2.305 -0.2746  0.0949 -0.1489
32006W        W48140   2.707   8.719  15.471 -0.2312 -0.0979 -0.2224
32007W        W48141   9.177   8.616  15.523  0.0333  0.2785 -0.0282
32008W        W48142  15.989  14.615   6.260  0.3197 -0.0934 -0.0644
32009W        W48143   4.857  12.896  12.029 -0.0270  0.0773 -0.2949
32010W        W48144  16.799  11.237  15.428  0.3450  0.1920  0.0246
32011W        W48145   4.341  16.310   5.434 -0.0287 -0.0704  0.0132
32012W        W48146   6.443  11.339  14.656 -0.2595  0.0346  0.1722
32013W        W48147   0.458   8.758  14.440 -0.1408 -0.0726  0.1303
32014W        W48148  13.534  16.491   2.480 -0.0238  0.1881  0.0594
32015W        W48149  12.022   6.069   1.551  0.2839  0.0361  0.2887
32016W        W48150   3.938   8.109   3.091 -0.0242 -0.3679  0.0088
32017W        W48151  17.426   5.855  11.422 -0.1050 -0.0256  0.0487
32018W        W48152  10.424  11.147   1.661 -0.0994  0.1542  0.0651
32019W        W48153  10.700   3.146   0.460 -0.2751 -0.0890  0.0493
32020W        W48154   4.318  14.465  16.057 -0.0998 -0.2657 -0.2550
32021W        W48155  11.042   6.674  11.781 -0.0609  0.0308 -0.1486
32022W        W48156   8.818  11.458  13.799 -0.2722  0.1075  0.0774
32023W        W48157   4.230   7.344   4.046  0.0101 -0.0980  0.0111
32024W        W48158   7.560   3.050   3.805 -0.1587 -0.2234 -0.1683
32025W        W48159  17.720  10.816  13.481 -0.1171  0.0142  0.3943
32026W        W48160   1.153   5.747  11.345  0.3492  0.0393 -0.0276
32027W        W48161  12.099   3.644   5.316  0.3182  0.1086  0.0149
32028W        W48162  13.727   0.691   1.016  0.3116 -0.1397 -0.0747
32029W        W48163   9.047   3.326   3.891 -0.1225  0.2292  0.1503
32030W        W48164  13.863  10.462   5.493  0.0665 -0.2355 -0.4123
32031W        W48165   8.856  13.430  10.184 -0.3848 -0.1963 -0.0134
32032W        W48166   1.345  14.530  14.360 -0.0573  0.3628  0.1963
32033W        W48167   8.985   8.721  14.168 -0.0016 -0.1572  0.2554
32034W        W48168  16.195  15.188   2.262  0.0722  0.2276 -0.0151
32035W        W48169   1.576   1.406  13.642 -0.0507 -0.2364 -0.5114
32036W        W48170  14.407   0.128  11.852  0.0611  0.0247 -0.2544
32037W        W48171  16.951   5.092   4.172  0.2391 -0.0542 -0.1710
32038W        W48172   5.391  13.030   1.765  0.0218 -0.1524 -0.0922
32039W        W48173  11.216  14.406   1.554 -0.0064 -0.1943 -0.0862
32040W        W48174  17.859  15.043  14.669  0.0358 -0.0670 -0.1072
32041W        W48175   8.037   1.922   1.635  0.0412 -0.2456 -0.1697
32042W        W48176   0.930   7.162   5.046 -0.1506 -0.0981 -0.1301
32043W        W48177  17.883  17.708  14.189 -0.2376 -0.2428 -0.2402
32044W        W48178  16.883   1.878  14.322  0.0059  0.0774 -0.2673
32045W        W48179   2.120   1.084  16.400 -0.1711  0.0691  0.0939
32046W        W48180   1.217  11.854   2.150 -0.1347  0.2410  0.0449
32047W        W48181  10.640  10.268   1.567 -0.1614 -0.2939  0.2267
32048W        W48182   5.357   2.291   4.266  0.1502 -0.1996 -0.0944
32049W        W48183  14.735   4.802   4.112  0.0302  0.0669  0.1024
32050W        W48184   9.847  16.882  12.108 -0.2400 -0.2427  0.3057
32051W        W48185  10.833   8.532  12.501  0.0380  0.4234  0.2315
32052W        W48186  11.622  12.107   1.028 -0.1680  0.0699 -0.4144
32053W        W48187  13.811  15.474   5.699 -0.1631  0.1870 -0.1468
32054W        W48188   9.944   5.612   1.066  0.0681 -0.1628  0.1518
32055W        W48189   1.151  16.913  14.448  0.0890  0.0082 -0.1975
32056W        W48190   5.613   4.381   4.892  0.0204 -0.0530 -0.1855
32057W        W48191   1.184  17.597   2.519 -0.2392 -0.1738 -0.4209
32058W        W48192  15.520   7.189  12.109  0.0081  0.2135 -0.2509
32059W        W48193   8.785  14.575  15.982 -0.0627 -0.2702  0.2125
32060W        W48194   2.321  14.828   5.782 -0.0702  0.2156  0.0747
32061W        W48195   4.986  13.965   2.686 -0.3063 -0.4665  0.1848
32062W        W48196   0.333  17.410   5.882 -0.1151 -0.1343 -0.2272
32063W        W48197  13.568  11.604   0.492 -0.0762  0.1311  0.1033
32064W        W48198  13.152  15.183  13.592 -0.3050 -0.1370 -0.0705
32065W        W48199  17.855   7.803   5.940  0.0118 -0.1229  0.3167
32066W        W48200   5.391   5.062  14.880 -0.6880  0.2099  0.0348
32067W        W48201  16.226   3.170  13.746 -0.0225 -0.1693 -0.0798
32068W        W48202  15.905   9.619  15.367  0.2201 -0.1330 -0.3500
32069W        W48203   2.623   5.420  15.996 -0.0232  0.1779 -0.1640
32070W        W48204   8.576  17.990   6.069  0.0468  0.2096  0.1775
32071W        W48205  17.853   6.597  12.718  0.0153 -0.0894  0.2586
32072W        W48206  16.194   7.795   5.215 -0.1773 -0.0213  0.1365
32073W        W48207   6.027  13.861   4.617  0.2906  0.0729  0.0136
32074W        W48208   8.810  13.561  15.402  0.0731 -0.1521 -0.2690
32075W        W48209  13.477  13.070  14.352  0.1318  0.0057  0.0403
32076W        W48210  15.217  14.821  15.221  0.3356  0.3297  0.0152
32077W        W48211  12.670  14.147   3.466 -0.1880 -0.0113 -0.0290
32078W        W48212  14.680  11.569   4.097  0.3340  0.1031 -0.0917
32079W        W48213   4.257  17.967  13.405  0.1539  0.0803  0.1260
32080W        W48214  15.372  14.936  14.763 -0.4369 -0.0282  0.3998
32081W        W48215  14.209  12.858   4.383 -0.1726 -0.0140  0.0736
32082W        W48216  10.416   2.980  14.838  0.2540 -0.3104  0.4272
32083W        W48217  11.159   7.384   5.234  0.0674 -0.2339  0.2594
32084W        W48218   6.371  16.810   1.186  0.2194 -0.0238 -0.0105
32085W        W48219  15.902  17.563  13.493 -0.0639 -0.0691  0.1423
32086W        W48220   5.561  13.810   0.152 -0.2716 -0.0390  0.0201
32087W        W48221   7.112  17.265  11.701  0.2690  0.1341 -0.0093
32088W        W48222  15.146  13.710  14.920  0.5541  0.0897 -0.0722
32089W        W48223   1.182   1.745  13.453  0.1881 -0.3762 -0.2948
32090W        W48224   5.922   9.703   1.836 -0.0033  0.2997 -0.1946
32091W        W48225   0.346   3.439  14.773  0.2039  0.2968  0.4305
32092W        W48226  16.235   7.036   4.568 -0.1477 -0.2152  0.0447
32093W        W48227  16.081  13.564   4.660  0.0030 -0.1215  0.2095
32094W        W48228   2.801  10.906   2.701  0.3941  0.0854  0.3877
32095W        W48229  10.406  11.146  16.411 -0.0053 -0.1830 -0.3026
32096W        W48230  11.002   7.782  15.650  0.3830  0.0538  0.1799
32097W        W48231  17.587   0.449  16.084 -0.0869  0.0231  0.0710
32098W        W48232   0.550  10.815   2.797  0.5433 -0.2199  0.1995
32099W        W48233  15.221   8.470   5.383 -0.1443 -0.0845  0.2395
32100W        W48234   4.832  17.795   0.887  0.0373 -0.0630  0.1694
32101W        W48235   6.016   8.158   2.122 -0.0450  0.0700  0.0013
32102W        W48236  14.349  10.893  14.951  0.0846  0.1427 -0.0826
32103W        W48237  10.598  12.667   1.376 -0.0365  0.4832 -0.0334
32104W        W48238   3.999   8.121  16.541  0.2367  0.2439  0.2889
32105W        W48239   2.265   8.545   5.288 -0.0326  0.2476 -0.1454
32106W        W48240  10.147  10.079  14.182 -0.1385  0.0198 -0.2176
32107W        W48241  12.670  17.462   3.415 -0.0163  0.0357 -0.1957
32108W        W48242   0.283  15.684  14.990  0.1324 -0.0865 -0.0632
32109W        W48243  12.651   8.836  14.549  0.2224  0.0873 -0.1007
32110W        W48244   0.983  14.743   3.504 -0.0839 -0.0070 -0.0079
32111W        W48245   5.402   0.721  12.163  0.2491 -0.1892 -0.0460
32112W        W48246  16.314  12.922   2.613 -0.1024  0.1146 -0.0482
32113W        W48247  10.801   9.753  16.352  0.2980 -0.1897  0.2032
32114W        W48248   5.666   0.512   5.479 -0.0834 -0.1394  0.2656
32115W        W48249   8.997  17.907   3.148 -0.1277  0.3511  0.0380
32116W        W48250  12.670  15.943  15.277  0.1565 -0.0711 -0.1307
32117W        W48251   8.315  12.427   4.154  0.0205 -0.1723  0.1371
32118W        W48252  16.751  11.736  13.041 -0.0433 -0.0057 -0.2931
32119W        W48253  11.756   0.091   1.342 -0.1635 -0.0176  0.0880
32120W        W48254   2.030  16.920  14.430  0.2194 -0.1862 -0.1842
32121W        W48255   9.547   5.045   4.504  0.1126  0.0394  0.2999
32122W        W48256  10.309   6.149   0.576  0.2170  0.3310 -0.0053
32123W        W48257   7.243   5.652  10.757  0.1944  0.0880  0.0978
32124W        W48258   0.633   3.666   3.659 -0.0277  0.0964  0.1501
32125W        W48259  15.137   0.266  13.735 -0.0631  0.1542  0.0251
32126W        W48260   3.077  14.040  15.506  0.4472  0.0747 -0.2334
32127W        W48261   0.679  17.957   4.455 -0.0456 -0.0261 -0.1287
32128W        W48262   5.601  14.166   5.609  0.2716 -0.3450 -0.1077
32129W        W48263  17.449   6.106  13.984  0.0299 -0.2992  0.0609
32130W        W48264   0.318  13.311   5.749  0.1913 -0.1319  0.0807
32131W        W48265  17.346  14.976   2.054 -0.1462 -0.1559 -0.2586
32132W        W48266   1.109  16.315   5.999 -0.2620 -0.1841  0.2248
32133W        W48267   4.077   5.037   2.318  0.1504 -0.0316  0.2088
32134W        W48268   7.463   5.892   1.980  0.0875  0.2748 -0.2833
32135W        W48269   4.008  11.467   2.465 -0.2348 -0.1450 -0.1469
32136W        W48270  12.872  12.713   5.749 -0.1540 -0.1583 -0.0400
32137W        W48271  11.348  11.704   0.287 -0.2642  0.0047  0.2925
32138W        W48272  17.701  10.801  15.058  0.0744 -0.0497  0.1686
32139W        W48273   2.708   4.318  12.249  0.5704 -0.0012  0.1775
32140W        W48274  14.974   2.788  14.275  0.0592 -0.1545  0.2662
32141W        W48275  12.675  12.975  14.905  0.0325 -0.0023  0.3843
32142W        W48276   8.809  17.238   4.877  0.0580  0.1209 -0.0684
32143W        W48277   9.452   0.888   1.901 -0.2263  0.2938  0.3543
32144W        W48278  14.086  16.478   0.523 -0.2579 -0.1121 -0.2265
32145W        W48279  12.581   8.274  11.524  0.2043 -0.1445  0.1250
32146W        W48280   9.651   6.410  14.434 -0.1178 -0.0338  0.0881
32147W        W48281   6.140  13.946   5.608 -0.1123 -0.1694  0.2346
32148W        W48282  16.579   8.016   3.746 -0.1899  0.0153 -0.3669
32149W        W48283   5.867   9.633   3.302 -0.1131 -0.1206 -0.1212
32150W        W48284   9.708   3.277   2.331 -0.0048  0.0838  0.2563
32151W        W48285  13.703  15.657  12.850  0.4909  0.3985  0.4089
32152W        W48286   3.785   5.277  14.774 -0.0351 -0.0108  0.0427
32153W        W48287  14.385   6.621  13.580  0.0850 -0.3878  0.0063
32154W        W48288   9.728   2.546   4.036 -0.1087 -0.0942  0.1201
32155W        W48289   6.405  16.126  11.898  0.2066 -0.2060  0.6332
32156W        W48290  14.873   0.659  13.923  0.0064  0.2928 -0.1575
32157W        W48291   8.577   1.975   5.773 -0.2752  0.0577 -0.3193
32158W        W48292  16.931  16.239   2.917 -0.3799 -0.1687 -0.0295
32159W        W48293  18.077   7.683   2.878  0.0450  0.0939  0.1298
32160W        W48294  12.022  17.182   5.169 -0.1797  0.0381  0.0492
32161W        W48295  15.304  14.144   5.495  0.0413  0.1120  0.0055
32162W        W48296   5.251   5.160  12.863  0.1898 -0.3254 -0.2673
32163W        W48297   1.503  13.240   2.605 -0.0397 -0.1328  0.4189
32164W        W48298   5.651   6.817   0.113  0.1080  0.0665  0.2190
32165W        W48299   7.931   0.598  16.251  0.2920  0.2577 -0.0491
32166W        W48300  11.328   6.903  15.811  0.3207 -0.0375 -0.0204
32167W        W48301   2.193   4.724   3.720 -0.1629  0.1666  0.1046
32168W        W48302  17.980   7.293  15.445  0.2428  0.0466 -0.0180
32169W        W48303   9.768   7.341  12.146  0.2066 -0.0470  0.0622
32170W        W48304  17.000  11.533  15.726 -0.0176  0.1333  0.1505
32171W        W48305  12.615   0.299  15.649 -0.1214  0.0133  0.1308
32172W        W48306  15.480   2.930   4.597  0.1423  0.2532  0.2493
32173W        W48307   4.466  16.405   2.718 -0.0228 -0.0229  0.0301
32174W        W48308   1.959  18.025   2.167  0.0249  0.0869  0.0733
32175W        W48309   1.952   5.036   3.278  0.1260 -0.4790  0.2883
32176W        W48310   5.272   3.245   2.413  0.1645 -0.1542 -0.1734
32177W        W48311   0.370  17.855  15.558 -0.2828 -0.3649 -0.2039
32178W        W48312   5.636   1.579   0.527  0.0413 -0.1214 -0.0686
32179W        W48313   6.984  10.271  16.517 -0.2090 -0.1586 -0.2840
32180W        W48314   7.248  14.084   0.587 -0.1470 -0.1307  0.3037
32181W        W48315   6.747  17.138  13.892  0.1055 -0.1928 -0.1159
32182W        W48316   6.542   3.221  16.513  0.1234 -0.3168 -0.0469
32183W        W48317   3.621   3.614   6.037 -0.1627  0.0283 -0.1745
32184W        W48318   9.346  12.720  13.710 -0.0635  0.0560  0.1212
32185W        W48319  16.343   9.617  13.286 -0.1634  0.1865 -0.0881
32186W        W48320  12.483  11.280  12.975  0.1239  0.3572  0.2109
32187W        W48321  10.253   8.305   4.428  0.0855  0.0435  0.0383
32188W        W48322   8.839   6.948   2.297 -0.0686  0.2465  0.0476
32189W        W48323   4.700   9.314   1.038  0.1433 -0.1309  0.5141
32190W        W48324  13.188   1.613   1.831 -0.0163  0.0532  0.1001
32191W        W48325  13.962  15.460  13.228 -0.1736  0.2140 -0.1119
32192W        W48326  15.899   6.346   5.429  0.3846 -0.1450 -0.2775
32193W        W48327   0.393  12.662   2.275  0.0225  0.4088 -0.0895
32194W        W48328   2.925  15.549   3.170 -0.0212 -0.0779  0.0724
32195W        W48329   9.758   9.882  11.306  0.1125 -0.0427 -0.1217
32196W        W48330  16.698  13.578  11.348 -0.2155 -0.1555 -0.0817
32197W        W48331  16.520  15.859   3.621 -0.1160  0.1526 -0.1628
32198W        W48332  12.387   7.583  14.259 -0.1946  0.1743  0.1779
32199W        W48333  16.273  12.708  13.388  0.0240 -0.1995 -0.1368
32200W        W48334  16.787   3.825   0.764 -0.0306  0.3728 -0.1130
32201W        W48335  17.144   1.869   2.248 -0.0014  0.4369  0.0590
32202W        W48336  15.655  16.913   1.553  0.2540 -0.2769 -0.1367
32203W        W48337   3.333  10.720  16.167  0.1958  0.0484  0.0610
32204W        W48338   1.135  10.328  15.621 -0.1261  0.0362  0.2360
32205W        W48339   5.109   3.982  12.047 -0.0348 -0.1766 -0.0345
32206W        W48340   3.264   0.671   0.175  0.1072  0.1417  0.0751
32207W        W48341  12.584   8.385   4.478  0.2917 -0.4185  0.1712
32208W        W48342   4.828   8.559  12.456 -0.0646  0.0998 -0.0216
32209W        W48343   7.737  12.750  12.335 -0.1050 -0.1864  0.1950
32210W        W48344   2.773   3.130  14.196 -0.2107  0.1732 -0.0494
32211W        W48345   4.599   8.143  15.760  0.0342 -0.0256 -0.0235
32212W        W48346  14.559   1.155   3.009  0.0343 -0.2188 -0.1619
32213W        W48347  11.783  14.874   5.160 -0.1777  0.1570 -0.0479
32214W        W48348  16.423  17.990   4.782 -0.0809  0.2885 -0.1079
32215W        W48349  10.647  16.078   5.860  0.1486  0.1966  0.1883
32216W        W48350   5.242  17.399  10.964 -0.0002  0.1484 -0.1262
32217W        W48351   8.420  16.693   5.897 -0.4716 -0.0116 -0.1053
32218W        W48352   9.586   3.426  13.623  0.0345 -0.0714 -0.1179
32219W        W48353   4.289   5.013   3.868 -0.1255  0.1551  0.1567
32220W        W48354   2.854   8.117   3.968 -0.1244 -0.0732 -0.0943
32221W        W48355  17.982   1.551   4.723  0.0093 -0.2250 -0.2081
32222W        W48356   4.291  16.630  11.769 -0.0871 -0.0745 -0.0205
32223W        W48357   4.491  11.281   2.918 -0.0750 -0.1964 -0.2821
32224W        W48358  17.202   3.541   4.843 -0.0436  0.0472 -0.0195
32225W        W48359   0.728   2.910  15.875  0.2497 -0.0594  0.0750
32226W        W48360   0.045  14.960  14.198  0.2396 -0.0566 -0.0685
32227W        W48361  11.677  13.578  12.712 -0.0969  0.2011  0.0538
32228W        W48362  10.379   1.903   1.046 -0.1439  0.2225 -0.2638
32229W        W48363  10.368  17.607  16.211 -0.3891 -0.1821 -0.4206
32230W        W48364  16.553  16.921   2.254  0.1406 -0.3478 -0.1209
32231W        W48365   2.659  11.354   1.858 -0.0650  0.1144 -0.3400
32232W        W48366  14.088  15.640  15.337 -0.0863  0.1231 -0.2395
32233W        W48367  13.326   7.780  10.602 -0.1171  0.0224 -0.2016
32234W        W48368   7.237  11.714  14.076  0.4095 -0.2469 -0.1024
32235W        W48369   9.575   3.435  14.136  0.3113 -0.2670  0.0615
32236W        W48370  16.381   2.907   1.858  0.0226  0.0211  0.2626
32237W        W48371  15.397  10.275   0.642  0.0964 -0.4182  0.3618
32238W        W48372  14.106   6.501   3.438  0.1500 -0.0914 -0.0093
32239W        W48373  16.746   6.776  11.336  0.0463 -0.1578 -0.1030
32240W        W48374   8.879   7.699  10.518  0.0881  0.1973 -0.1122
32241W        W48375   4.129   7.869   3.440  0.0262 -0.1134  0.1028
32242W        W48376   4.679  15.192   3.821 -0.0378  0.0890 -0.0497
32243W        W48377  13.364   9.193   4.355 -0.1459  0.2009  0.1915
32244W        W48378  13.615   6.991  12.365 -0.1609  0.1113 -0.0335
32245W        W48379   2.143  16.774  13.940 -0.0290 -0.2258  0.0235
32246W        W48380  16.351  16.182  15.217 -0.0094  0.2447  0.1875
32247W        W48381   1.521  11.849  14.079  0.2330 -0.0001  0.2363
32248W        W48382  13.946   4.220   1.444 -0.1484  0.2471  0.0683
32249W        W48383   6.868  15.481   1.474  0.2174  0.0589 -0.1731
32250W        W48384   1.020   5.525   1.380 -0.1323 -0.1751 -0.1219
32251W        W48385   6.124   3.536   3.618  0.0300  0.0676  0.1086
32252W        W48386  13.070  14.933   4.220 -0.1502  0.0586  0.1444
32253W        W48387   6.741   8.259  15.401 -0.2622  0.1711 -0.0619
32254W        W48388  12.929   9.932  16.052 -0.3030  0.1337 -0.0364
32255W        W48389   9.542  12.270   2.733  0.4328 -0.0575  0.0432
32256W        W48390  18.067  17.949  15.844  0.0988  0.0793 -0.4658
32257W        W48391   0.305   4.815   4.274 -0.0128  0.0843 -0.1786
32258W        W48392  15.457  18.041   5.530  0.1517  0.1425 -0.0846
32259W        W48393   5.172   8.823  12.698 -0.0502  0.0549  0.1087
32260W        W48394   9.100  12.080   1.374 -0.0957 -0.3728  0.1033
32261W        W48395   1.801   3.934   4.319 -0.0017 -0.2000  0.0448
32262W        W48396  16.709   7.625   5.347 -0.1209  0.0425 -0.0354
32263W        W48397  17.548  15.065  13.927  0.0912  0.0104 -0.1429
32264W        W48398   5.366  11.464   0.425  0.1615 -0.0110 -0.0297
32265W        W48399  13.322   7.095  14.276 -0.2044 -0.0414  0.0126
32266W        W48400  14.574   4.313   2.588  0.3799 -0.2876  0.0143
32267W        W48401  10.862   9.809  11.560  0.3482 -0.3318 -0.0309
32268W        W48402  16.057   3.335   3.341 -0.1814  0.1107 -0.1118
32269W        W48403   8.482  13.227   3.351  0.1225 -0.2731  0.0245
32270W        W48404  13.621   8.362  12.725 -0.1454 -0.0603 -0.2758
32271W        W48405   7.743  11.236   0.138  0.1888 -0.0836  0.0560
32272W        W48406   4.296  15.368   0.227 -0.0786  0.0903 -0.2253
32273W        W48407   2.116  10.092  13.114 -0.1343 -0.0006  0.1979
32274W        W48408   1.404  12.452  12.753  0.1548  0.4299 -0.0552
32275W        W48409   1.527  16.293   5.036 -0.0299 -0.6969  0.1047
32276W        W48410  15.798   7.312   3.181  0.1436 -0.5447  0.2785
32277W        W48411   1.812  10.877   1.733  0.0014 -0.1813  0.1889
32278W        W48412  14.035   6.804   0.370  0.1033  0.2332 -0.1856
32279W        W48413   6.207   1.821  12.225  0.0594 -0.3797 -0.0003
32280W        W48414  11.489   2.654   4.725 -0.0312 -0.1588  0.0233
32281W        W48415  13.117   2.244   3.976 -0.2084  0.0059 -0.0253
32282W        W48416  14.735  10.393   1.099  0.1953  0.0300  0.0527
32283W        W48417   9.687  10.475  14.121  0.2373  0.3696 -0.3242
32284W        W48418   6.286  11.851  14.388  0.2206  0.3680 -0.3575
32285W        W48419  15.432   6.838   4.732 -0.3693 -0.0819 -0.0913
32286W        W48420   0.427   4.592   5.915  0.2171  0.2893 -0.1561
32287W        W48421   9.509   7.195   0.169  0.0733 -0.2856 -0.1232
32288W        W48422  11.746  14.922   4.120 -0.1170  0.1679 -0.1094
32289W        W48423   4.987  14.099  13.735 -0.2682  0.0520 -0.0499
32290W        W48424  12.972   9.602  11.609 -0.0357  0.2067  0.0038
32291W        W48425  11.210   2.288   4.427  0.0284 -0.1785 -0.0208
32292W        W48426  16.088  15.161  15.994 -0.0766 -0.0810  0.1288
32293W        W48427  15.652   1.073  15.650 -0.0473 -0.2856 -0.1792
32294W        W48428   8.411  15.922  13.243 -0.0295  0.0929  0.1688
32295W        W48429  13.692   0.485   2.254 -0.1394 -0.3985  0.1625
32296W        W48430   4.761   6.449   0.013 -0.0795  0.2398 -0.4755
32297W        W48431   2.385   7.310   0.692  0.0665  0.1325  0.0062
32298W        W48432   3.619   6.044  15.250 -0.0703  0.0420 -0.0869
32299W        W48433  14.496   9.510   5.118  0.1932 -0.2639  0.0450
32300W        W48434  17.897  12.709   3.587  0.1074 -0.0950  0.2414
32301W        W48435   3.895  17.192  16.021 -0.0859  0.0620  0.1952
32302W        W48436  16.344   5.311   5.451  0.0514 -0.2471  0.2434
32303W        W48437  15.110   5.129  14.121 -0.1940 -0.2896  0.0498
32304W        W48438   4.503  11.736   4.437 -0.0414  0.0226 -0.1062
32305W        W48439   2.469   3.580   2.834  0.0030 -0.0966  0.1453
32306W        W48440  11.778  15.266  12.884  0.0178  0.1871 -0.1602
32307W        W48441  14.496   6.487  15.717  0.3710 -0.0551 -0.2102
32308W        W48442   6.672  10.402  11.906  0.3668 -0.3464 -0.0747
32309W        W48443   1.399  14.622   4.320  0.0644 -0.1944 -0.2085
32310W        W48444  10.139   6.329  15.178  0.1066  0.0130  0.0719
32311W        W48445  14.071   9.892   3.171 -0.2959 -0.1956  0.0446
32312W        W48446   2.124  17.665  15.154 -0.1574  0.3512  0.0098
32313W        W48447   4.352   7.533   4.884  0.0998  0.1038 -0.0539
32314W        W48448   7.936   1.141   5.439 -0.1174 -0.2731 -0.0137
32315W        W48449   2.172  11.087  12.906  0.0000 -0.2327  0.1439
32316W        W48450  13.688  15.618   6.321  0.2373 -0.0313  0.2701
32317W        W48451  10.752  11.595   2.826  0.0045  0.0896  0.2105
32318W        W48452   8.954   0.961  14.110  0.1573 -0.2482 -0.3228
32319W        W48453   7.769   9.841  16.239 -0.4589 -0.0554 -0.2530
32320W        W48454  15.019   0.293  16.490  0.2515 -0.0022  0.0344
32321W        W48455   6.033  11.543   2.152 -0.1011  0.2889  0.2308
32322W        W48456  16.133   1.530  15.889  0.0935  0.1719 -0.4167
32323W        W48457  13.322   6.171   0.055  0.1774  0.2612  0.0271
32324W        W48458  10.298  17.279   3.754  0.1674  0.2106  0.0039
32325W        W48459  13.141   7.292   1.054  0.0665  0.0262  0.0341
32326W        W48460   8.563   0.902  11.839  0.0051  0.1127 -0.1441
32327W        W48461  10.525   2.374   0.946 -0.0031 -0.0205 -0.0315
32328W        W48462  10.364   5.147  14.340 -0.0922 -0.1038  0.1756
32329W        W48463   3.301   7.326  12.108  0.2987 -0.0015 -0.1716
32330W        W48464  13.663   3.338  13.147 -0.0668  0.2675 -0.1336
32331W        W48465   3.270   5.068   0.207 -0.0152  0.1477 -0.1092
32332W        W48466  13.842  17.612  13.615 -0.2418  0.0656 -0.3324
32333W        W48467   7.425  12.927   4.352 -0.1140  0.2587 -0.1699
32334W        W48468   7.777   6.036  14.564  0.2369 -0.1684 -0.1505
32335W        W48469   9.356   5.571   2.414  0.1279 -0.3703  0.2143
32336W        W48470  17.524   4.901   3.428  0.0996 -0.3624  0.2030
32337W        W48471   6.216   8.915   2.333 -0.0209  0.2834  0.1760
32338W        W48472  12.519   0.346   2.474  0.1380  0.2076  0.2506
32339W        W48473   2.553   3.927   3.842 -0.3558 -0.2919  0.0195
32340W        W48474   8.303   8.651  14.838  0.1182 -0.0640 -0.2273
32341W        W48475   1.430  15.330  13.741 -0.1542 -0.0154 -0.1618
32342W        W48476  15.758  16.709  12.157  0.2040 -0.1115  0.0367
32343W        W48477   7.668  13.040  10.721 -0.2346  0.1120 -0.0521
32344W        W48478   9.362  15.127  12.083 -0.0667  0.1000  0.2740
32345W        W48479   4.078   5.576  14.483 -0.4466  0.0656 -0.0543
32346W        W48480  10.621   3.481   2.386  0.1004 -0.1965 -0.0642
32347W        W48481   6.307  13.872  11.951 -0.1012 -0.4045 -0.2270
32348W        W48482  17.309   7.923  15.110  0.1520 -0.2842  0.1005
32349W        W48483   0.970   2.731   4.563  0.0223 -0.0207  0.0728
32350W        W48484   0.817  17.452   2.135 -0.2063 -0.0715 -0.1143
32351W        W48485  10.146   0.916  14.116 -0.0467  0.1334  0.0755
32352W        W48486  11.478  14.054   1.000  0.0000  0.3392  0.2340
32353W        W48487   0.120   6.236  12.165 -0.0966 -0.2126  0.1557
32354W        W48488  10.767  14.508  14.021 -0.1325 -0.1281  0.2417
32355W        W48489   2.164   3.201  12.957 -0.5559 -0.0454 -0.2186
32356W        W48490  17.023  14.999  15.512  0.2817  0.0071  0.0892
32357W        W48491   2.854  16.465  12.652  0.1195 -0.0881 -0.1925
32358W        W48492   8.373   1.283  13.118  0.0995  0.3848  0.1194
32359W        W48493   8.599   7.645  15.363 -0.3542 -0.1949  0.0592
32360W        W48494   8.962   8.859   5.596  0.0588  0.3939 -0.2906
32361W        W48495  13.006  15.359   5.115  0.0031  0.0076  0.0465
32362W        W48496  16.396   6.769  10.918 -0.2555 -0.0304 -0.1735
32363W        W48497  11.285   0.896   6.665 -0.2161 -0.1565 -0.1011
32364W        W48498   8.559   5.442  11.993 -0.1554  0.1431 -0.1578
32365W        W48499   2.919   3.464   0.164  0.1024  0.2321  0.0528
32366W        W48500   2.872   4.719  16.213  0.0441 -0.2587  0.0188
32367W        W48501  15.447  16.751   5.112  0.0641 -0.3412 -0.3199
32368W        W48502  16.251   4.910   4.037  0.0419 -0.0322 -0.1258
32369W        W48503   3.896   5.382   3.761  0.1071 -0.0809 -0.0830
32370W        W48504   4.695   7.913   3.568  0.0814  0.0307  0.0907
32371W        W48505   3.996   1.396   3.726  0.3979 -0.0183 -0.0118
32372W        W48506   7.904   9.460  13.472  0.1181 -0.6940 -0.2909
32373W        W48507  17.483  10.958   1.936  0.1513  0.0892 -0.2833
32374W        W48508  17.345   1.963   3.235  0.2696 -0.1346  0.0603
32375W        W48509  16.782   0.511  13.433  0.2090  0.3744 -0.0537
32376W        W48510  16.976   6.484   3.428 -0.0634  0.0972 -0.2504
32377W        W48511  14.457  16.590   1.147 -0.0317  0.0334  0.0979
32378W        W48512   4.891   6.698  11.488 -0.1933  0.2877 -0.0061
32379W        W48513  13.572   7.466  15.392  0.2237 -0.0296 -0.1689
32380W        W48514  11.078  13.360   1.929 -0.3947 -0.5947  0.3809
32381W        W48515   0.990  10.780  11.957  0.0624  0.0488 -0.2248
32382W        W48516  16.414  15.237  14.049 -0.2371 -0.1497  0.0160
32383W        W48517  17.034   9.963   3.418  0.3961 -0.4758  0.0040
32384W        W48518   7.490   7.104  15.281 -0.0474  0.2492 -0.0549
32385W        W48519  17.534   9.304  13.936 -0.1766 -0.0652 -0.1456
32386W        W48520  11.348  16.860  13.672  0.0149 -0.0914  0.0775
32387W        W48521   1.531  17.753   2.088  0.0268 -0.1483  0.0720
32388W        W48522   0.786   2.329  11.894 -0.0417 -0.0745  0.2492
32389W        W48523   4.541  14.823  11.247 -0.2393 -0.0826  0.0466
32390W        W48524   0.306   5.577   5.236  0.0770  0.0291 -0.1500
32391W        W48525   6.875  11.264  12.885 -0.2208  0.2272  0.1427
32392W        W48526   2.232  13.468   1.598 -0.2881  0.0850 -0.1645
32393W        W48527   0.426  17.434   4.267  0.0473 -0.3186  0.1320
32394W        W48528  11.150   1.717  15.290  0.1898 -0.1313  0.0023
32395W        W48529   2.036  17.908   3.679 -0.0846  0.0462 -0.0972
32396W        W48530   8.267  12.599   4.590  0.0625  0.1298 -0.4775
32397W        W48531  10.862   6.942  12.527  0.0366  0.0964  0.0449
32398W        W48532   9.234  10.806  12.319  0.1652  0.0024  0.2396
32399W        W48533   3.151  14.604   2.239 -0.1456 -0.0117  0.0527
32400W        W48534  14.300   6.716   1.616 -0.0294  0.5564  0.1238
32401W        W48535  15.578   0.052   6.009  0.1401  0.1064 -0.3004
32402W        W48536  12.876  14.527   6.811 -0.3325 -0.0111  0.0253
32403W        W48537   9.729  12.669   4.633 -0.0239  0.3375  0.3203
32404W        W48538  15.816   2.966   5.229  0.0132 -0.1376 -0.1005
32405W        W48539   0.332   3.448   0.728  0.0612  0.2903  0.0982
32406W        W48540   4.503  15.180   2.315 -0.0259 -0.1109 -0.0050
32407W        W48541   0.353   4.657  13.650  0.1115  0.0482 -0.2382
32408W        W48542   2.454   5.017  16.274 -0.1553 -0.1616 -0.0270
32409W        W48543   5.840   0.265   2.619 -0.0420 -0.0541 -0.0744
32410W        W48544   5.227  14.250   5.307 -0.2073  0.2393  0.0714
32411W        W48545  17.917  17.966  12.643  0.2904 -0.0370  0.2544
32412W        W48546  15.868   2.343  15.071  0.1321  0.1208 -0.2288
32413W        W48547  16.817   6.732  12.311 -0.2835 -0.0651  0.1653
32414W        W48548  15.973   0.388  16.168  0.3019 -0.4134  0.1557
32415W        W48549   8.625   2.849  15.898  0.1020 -0.3069  0.2089
32416W        W48550   1.226   1.160   4.596  0.0002 -0.1949 -0.0833
32417W        W48551  11.677  10.532   3.623  0.0865 -0.1791 -0.0400
32418W        W48552   5.373   4.770   2.095 -0.1198 -0.2915 -0.0588
32419W        W48553   4.796   0.499  16.538  0.3190 -0.0206 -0.1122
32420W        W48554   7.381  17.747   1.937  0.2886 -0.3055  0.0970
32421W        W48555   2.247   5.785  15.353  0.1864  0.2756 -0.2008
32422W        W48556  17.910   8.817   2.726 -0.2211  0.1283 -0.0359
32423W        W48557  10.671  17.886   2.680  0.0230 -0.1275 -0.2711
32424W        W48558   0.874  17.245   6.596  0.1834  0.1318  0.0044
32425W        W48559   8.401  15.220  11.769 -0.0080  0.1439  0.0497
32426W        W48560   4.122   4.707  12.774  0.0459 -0.1714 -0.4062
32427W        W48561   5.046   4.314   0.669  0.3063  0.1514  0.2586
32428W        W48562  10.878  17.169  13.439 -0.0990 -0.1308 -0.0826
32429W        W48563  12.865  11.220  12.657  0.2026 -0.1284  0.2748
32430W        W48564  17.530   8.774  12.302 -0.1565  0.1514  0.0936
32431W        W48565  10.602   7.146  15.665  0.1707  0.0308  0.4881
32432W        W48566   8.790   5.337  11.088 -0.2008  0.0361 -0.3421
32433W        W48567  13.662  14.674  13.925  0.6010  0.2859  0.1734
32434W        W48568  16.767  12.375   5.689  0.2741  0.0376 -0.0290
32435W        W48569  17.535  16.141  13.192  0.0895  0.2321 -0.0855
32436W        W48570  10.571   6.333  16.326  0.0409 -0.4372 -0.2643
32437W        W48571   8.392   8.231  16.234  0.1845 -0.0656  0.1190
32438W        W48572   9.976  15.110   0.213  0.1774  0.0333 -0.1549
32439W        W48573   3.910   7.147   2.014  0.1172  0.0671 -0.1083
32440W        W48574  14.564  10.569   3.844  0.0462  0.0577 -0.0668
32441W        W48575  16.233   0.920   0.449 -0.2446 -0.1133 -0.1104
32442W        W48576   9.449  15.296  15.212 -0.0580  0.3025 -0.1677
32443W        W48577  16.587   7.117  13.218 -0.0533 -0.0998  0.3377
32444W        W48578  10.354   6.332  13.180 -0.2543 -0.1934 -0.1212
32445W        W48579  16.896   1.308   5.423 -0.0334 -0.3349  0.1354
32446W        W48580   9.499   8.377  15.278  0.0926 -0.1654 -0.1549
32447W        W48581   4.676   8.471   1.471  0.2305  0.3064 -0.0366
32448W        W48582   7.844   2.959  14.458  0.1432 -0.1475  0.2059
32449W        W48583  16.857   2.660  15.608 -0.0244  0.0798  0.1539
32450W        W48584  11.462   1.774   6.024  0.1607  0.1047 -0.0213
32451W        W48585   8.657   3.460   4.180  0.2511 -0.1281  0.0465
32452W        W48586   7.924   5.522   1.341  0.1942  0.1262  0.5305
32453W        W48587   7.858  14.509  13.915  0.0397  0.4485 -0.2630
32454W        W48588  10.087  10.989  16.037 -0.0364 -0.1494  0.2592
32455W        W48589   4.952  12.954   1.633 -0.0928  0.2404 -0.2164
32456W        W48590   6.080   6.521   0.060 -0.0840  0.1337  0.1490
32457W        W48591   7.046  12.801   2.912 -0.2193  0.2047  0.1483
32458W        W48592  13.881   5.453  15.608  0.0051 -0.1179  0.0213
32459W        W48593   0.719   7.328   3.985  0.1079 -0.2685 -0.1883
32460W        W48594   0.243  11.318  16.419 -0.0273 -0.0190  0.0408
32461W        W48595   5.761   9.586  13.071 -0.2244 -0.2771  0.0166
32462W        W48596   3.353  15.014  14.740 -0.0935 -0.1673  0.0022
32463W        W48597  17.661   2.936   1.460 -0.2457  0.3046 -0.1053
32464W        W48598   5.493  10.496   3.850 -0.1959  0.0844  0.2574
32465W        W48599  15.243   1.368   4.520  0.1278  0.1964 -0.4508
32466W        W48600  17.121  13.736  12.461  0.0871  0.0038  0.0178
32467W        W48601   8.415  14.751  12.718 -0.0327 -0.3121 -0.0752
32468W        W48602  13.000  15.790   2.052 -0.1054  0.0643  0.1147
32469W        W48603   6.678   1.874  12.352 -0.2820  0.2034  0.0655
32470W        W48604   6.458   3.390   3.262 -0.1129  0.2810  0.1340
32471ION     NA48605   0.146  11.627  16.022  0.4690 -0.1392  0.1284
32472ION     NA48606  12.715  10.605   9.954 -0.4425 -0.4043 -0.0407
32473ION     NA48607   6.975  11.340  12.364 -0.2162 -0.2411 -0.0169
32474ION     NA48608   5.181  11.026   4.481  0.0550  0.1190 -0.2139
32475ION     NA48609  15.210   7.647   5.716  0.2754  0.2674 -0.0939
32476ION     NA48610   5.222   8.272   9.866  0.1281  0.4850 -0.0675
32477ION     NA48611   8.794  11.272   9.998 -0.1339 -0.1753 -0.3024
32478ION     NA48612  15.332   6.838  16.194 -0.1676 -0.1243  0.3110
32479ION     NA48613   6.637   3.801  10.860 -0.1182  0.1430 -0.5378
32480ION     NA48614  13.408  16.685  11.069  0.0714 -0.5383 -0.0818
32481ION     NA48615  15.202  11.592   5.609  0.0827 -0.2268  0.0495
32482ION     NA48616  16.344   3.875  15.367  0.1244 -0.0559 -0.0100
32483ION     NA48617  18.041  12.102   6.234  0.1837 -0.0062 -0.0151
32484ION     NA48618   4.300   4.038  12.776  0.0006  0.1273  0.0844
32485ION     NA48619  17.659   5.973   4.270  0.0895 -0.3087  0.4498
32486ION     NA48620  13.204  12.760  11.033  0.0152  0.0631 -0.2033
32487ION     NA48621  13.179   9.044  10.013  0.1875 -0.0397  0.1516
32488ION     NA48622  16.731  12.024  16.201 -0.1777 -0.0220 -0.3978
32489ION     NA48623  10.032  14.667   4.158 -0.4098  0.0329  0.5546
32490ION     NA48624   1.634   0.613  12.202 -0.0139  0.1151  0.0261
32491ION     NA48625   7.405   4.960   1.942 -0.2147  0.0163  0.1198
32492ION     NA48626   9.845   5.733  10.295 -0.0977  0.2998 -0.1540
32493ION     NA48627   1.492  12.131  10.583 -0.0570  0.1519 -0.0840
32494ION     NA48628   0.611   0.790  10.789  0.1700  0.1979 -0.2179
32495ION     NA48629  13.710   0.582  10.769 -0.1557  0.1217  0.2286
32496ION     NA48630  12.384   8.726   9.773 -0.1374 -0.0515 -0.1053
32497ION     NA48631   0.701   3.128  10.606  0.0448  0.0347 -0.0314
32498ION     NA48632  10.547   5.085  10.452 -0.1221 -0.2815  0.1491
32499ION     NA48633  15.369  16.448   6.403 -0.2792  0.1742  0.1307
32500ION     NA48634   2.468   3.489  13.842  0.0083 -0.0560  0.0369
32501ION     NA48635   1.856  17.094   6.278 -0.0045  0.1696  0.1256
32502ION     NA48636   9.454   9.477   9.937 -0.0573  0.0492 -0.0970
32503ION     NA48637   4.941   8.204  11.713  0.1365 -0.1222 -0.0720
32504ION     NA48638   2.817  17.207  14.228 -0.2374 -0.1673  0.1008
32505ION     NA48639   0.968   2.203  10.913 -0.2461 -0.1018  0.0772
32506ION     NA48640  13.437  17.731  10.781 -0.1616 -0.1173  0.0145
32507ION     NA48641  12.489   8.379   0.287 -0.0614 -0.1993 -0.1362
32508ION     NA48642   2.168  13.399  10.630  0.2139  0.5221  0.0879
32509ION     NA48643  15.545   3.279  11.313  0.1414 -0.0322  0.1482
32510ION     NA48644  16.722  10.694  10.492  0.0263 -0.2133 -0.5312
32511ION     NA48645   1.243   0.025  10.742 -0.0079  0.0904  0.0065
32512ION     NA48646   0.928  13.754  12.109  0.1448  0.0397  0.0298
32513ION     NA48647  12.636   9.707   9.925 -0.0976 -0.0974  0.1483
32514ION     NA48648   0.061  14.081  16.414  0.4127 -0.2045  0.1119
32515ION     NA48649   5.933   6.741   4.621  0.1304  0.1587  0.2469
32516ION     NA48650  13.903  14.422   6.395  0.0250  0.0738  0.0961
32517ION     NA48651  14.393   1.190  10.769 -0.0202 -0.2591  0.0639
32518ION     NA48652  17.343   1.577  14.594  0.1526 -0.1772  0.4437
32519ION     NA48653   2.793   4.785  10.798 -0.0976  0.1402  0.1354
32520ION     NA48654   5.090  17.592   4.454  0.0629  0.2319 -0.0529
32521ION     NA48655   9.181   0.412   5.918  0.3485  0.1842  0.3477
32522ION     NA48656   9.302   1.337  10.752  0.0948  0.0941 -0.0034
32523ION     NA48657   4.156   3.948  10.515  0.1031  0.0416  0.1975
32524ION     NA48658  10.482  10.167  14.674 -0.0644 -0.0391  0.1177
32525ION     NA48659   5.011   9.143  13.592 -0.2281  0.1380 -0.1251
32526ION     NA48660   5.700  15.181  10.759 -0.3307 -0.0288 -0.0648
32527ION     NA48661   5.553  17.802  10.894  0.3849 -0.4501  0.1862
32528ION     NA48662   7.065  16.000  10.704  0.1272 -0.1247 -0.1016
32529ION     NA48663  14.013   5.645  10.457  0.3499  0.0703  0.0405
32530ION     NA48664  14.869   0.506  10.860  0.2772 -0.2389  0.2353
32531ION     NA48665  11.745  15.119   3.637 -0.0589  0.1041  0.2097
32532ION     NA48666  16.336  10.834   1.487 -0.1848  0.2064  0.0934
32533ION     NA48667   8.763   8.761   9.623  0.0609  0.0107  0.3917
32534ION     NA48668   5.442  16.244  11.076 -0.0677  0.3858 -0.2735
32535ION     NA48669  16.574   2.614  13.980  0.3643 -0.1123  0.2904
32536ION     NA48670   8.408  17.628  10.831  0.2154  0.4289  0.0717
32537ION     NA48671  16.949  12.683  10.914 -0.3658 -0.1746  0.1366
32538ION     NA48672   2.390   1.404  11.319 -0.0079  0.1600 -0.0262
32539ION     NA48673  14.346   6.746   9.988 -0.0182 -0.2660 -0.0445
32540ION     NA48674   2.538  18.176  10.686 -0.2875  0.0118 -0.2226
32541ION     NA48675  16.791  17.283  10.959 -0.0382 -0.1340  0.1096
32542ION     NA48676   8.051  15.843  10.526 -0.0974  0.1364 -0.3827
32543ION     NA48677   6.330   2.934  15.806  0.1687 -0.1545  0.1937
32544ION     NA48678   8.788   5.275  12.920  0.1777 -0.3810 -0.0672
32545ION     NA48679   6.101   0.252  11.246  0.0665 -0.1005  0.0011
32546ION     NA48680   7.294  13.233   3.701 -0.0969  0.1208 -0.0013
32547ION     NA48681   1.163   5.447  10.520  0.2252  0.1160 -0.0470
32548ION     NA48682  14.683   7.450   9.785  0.6135  0.0657  0.2250
32549ION     NA48683   9.965   2.933  15.032 -0.1866  0.2756 -0.0904
32550ION     NA48684   2.124   7.677  16.509  0.0590  0.0297  0.1680
32551ION     NA48685  12.167   6.913   5.088  0.0119 -0.3256  0.0247
32552ION     NA48686   4.154   2.669  14.788  0.0267  0.0097 -0.3162
32553ION     NA48687   4.815  16.072   0.174  0.0282  0.2331 -0.1130
32554ION     NA48688   6.303   7.480  10.139 -0.3795  0.0713  0.1746
32555ION     NA48689  17.987   2.822  10.957 -0.1208 -0.0721 -0.0917
32556ION     NA48690  14.825   2.885  16.438 -0.1763 -0.2340  0.1949
32557ION     NA48691   8.743   8.961  15.591 -0.1865 -0.1300  0.0193
32558ION     NA48692  11.688  18.012  10.976  0.0617  0.0775  0.0890
32559ION     NA48693  14.132   4.218  10.586  0.0903 -0.1130  0.2248
32560ION     NA48694   0.207   5.334  10.580  0.1733 -0.0981  0.0015
32561ION     NA48695  16.016   5.156  10.628  0.1210  0.1132 -0.0711
32562ION     NA48696   9.696  10.177   4.587  0.5447 -0.2371  0.2203
32563ION     NA48697   0.866   9.898  10.342  0.3309 -0.0747  0.1874
32564ION     NA48698   0.337  18.089  10.771 -0.2576  0.1816 -0.1370
32565ION     NA48699  13.860   6.105   5.228 -0.1198  0.0254 -0.0090
32566ION     NA48700   1.039  16.859   5.998 -0.0259  0.0468 -0.0436
32567ION     NA48701  14.062  16.239   2.526  0.2861  0.0572 -0.0818
32568ION     NA48702  10.636   8.986   5.365  0.0737  0.3615  0.1277
32569ION     NA48703  13.097   7.732  10.041  0.0353  0.0461  0.0757
32570ION     NA48704  16.347   0.015  11.021 -0.0774  0.1592  0.3692
32571ION     NA48705   0.396   6.071  10.371  0.1512 -0.1092  0.2979
32572ION     NA48706   9.542  11.530  10.058  0.0780  0.1573 -0.2367
32573ION     NA48707  15.172   4.544  10.457  0.0613  0.1357  0.2527
32574ION     NA48708   8.951   9.391  11.416 -0.3513 -0.1944 -0.0610
32575ION     NA48709  10.399   4.333  10.871  0.2860  0.2198 -0.2752
32576ION     NA48710   4.524  13.683  10.968 -0.3253  0.0344  0.0761
32577ION     NA48711  13.744  16.163  11.269 -0.2078  0.3216  0.1322
32578ION     NA48712  15.499   3.852  10.726  0.1098 -0.0388 -0.1742
32579ION     NA48713   7.458   3.205  11.129  0.0800 -0.0557  0.0008
32580ION     NA48714   8.599   4.896  10.893  0.2359  0.1662  0.1596
32581ION     NA48715   0.399   9.038   0.470 -0.1215 -0.2045 -0.0742
32582ION     NA48716  11.482  16.356  11.045 -0.1563  0.1360 -0.0343
32583ION     NA48717  12.292   3.006  11.108 -0.0247 -0.0886 -0.1974
32584ION     NA48718   3.721   7.667   3.260  0.0487  0.2866 -0.0349
32585ION     NA48719   6.915   7.306   9.764  0.1717 -0.1288  0.4664
32586ION     NA48720   3.233   6.661  11.762 -0.2400 -0.1899 -0.1659
32587ION     NA48721   0.910  13.865  10.696  0.0241  0.0913  0.2384
32588ION     NA48722  16.746   5.555   0.033 -0.0606 -0.1227  0.0300
32589ION     NA48723   0.540  14.749  11.076  0.1035 -0.2126 -0.2686
32590ION     NA48724   3.485  11.449  10.230 -0.0282 -0.0856  0.0425
32591ION     NA48725  11.244   0.115  10.969 -0.0548  0.4088  0.2681
32592ION     NA48726  14.608   3.901  10.526 -0.0896 -0.0905  0.1980
32593ION     NA48727   8.435   2.896  11.108  0.1641  0.0520 -0.1363
32594ION     NA48728  16.207  12.059  10.617  0.2692  0.3464  0.0409
32595ION     NA48729   6.985   5.384  10.282 -0.1695  0.0121 -0.0043
32596ION     NA48730   5.913   0.171   2.075 -0.3785 -0.3365 -0.4154
32597ION     NA48731   9.611  15.973  10.842  0.2415  0.2781 -0.2664
32598ION     NA48732   5.485  16.010   4.166 -0.0214  0.0792  0.2062
32599ION     NA48733   1.778  16.097  10.891  0.2018 -0.3218  0.1576
32600ION     NA48734   2.148   2.517  15.898 -0.0378 -0.2080  0.2413
32601ION     NA48735   5.348   9.115  14.650 -0.1298  0.0942 -0.0957
32602ION     NA48736   3.326   6.346  13.417  0.0529 -0.1013 -0.0190
32603ION     NA48737   3.809   3.433  10.961  0.3521  0.3084  0.0010
32604ION     NA48738   4.099  16.171   1.779  0.0566 -0.2396 -0.0838
32605ION     NA48739  13.111   1.228  10.872 -0.1711 -0.0460  0.2816
32606ION     NA48740  15.469   5.796  10.337  0.0081  0.0459 -0.1601
32607ION     NA48741   2.013   9.301  10.777  0.1177 -0.2590  0.1830
32608ION     NA48742  17.019   4.997   5.961 -0.0266  0.4271  0.1871
32609ION     NA48743  13.148   4.155   2.418  0.1763 -0.1359  0.1898
32610ION     NA48744   4.540   6.570  11.176 -0.0003 -0.0339 -0.0558
32611ION     NA48745   3.578  11.482  11.077  0.0914  0.1843  0.1111
32612ION     NA48746   2.836   0.832  11.055  0.0653  0.0085 -0.0646
32613ION     NA48747   9.926   2.549  10.759  0.0896  0.0811 -0.2767
32614ION     NA48748  14.366  16.942  11.045  0.1010 -0.3644  0.2760
32615ION     NA48749   4.395   7.469  11.176  0.0463 -0.1697  0.0086
32616ION     NA48750   3.328   1.775  11.409 -0.0969  0.0030  0.1214
32617ION     NA48751   0.382   4.120   3.780  0.1487 -0.0511  0.2437
32618ION     NA48752   3.726   2.059   5.947 -0.1808  0.3321  0.1907
32619ION     NA48753  14.054  13.868  11.219  0.0976 -0.1730 -0.0713
32620ION     NA48754  16.746  13.670  10.890 -0.1076  0.0569 -0.3421
32621ION     NA48755  10.504  13.195  10.715 -0.2886 -0.2290  0.1367
32622ION     NA48756  12.669  17.742  11.426 -0.1962 -0.0868  0.0080
32623ION     NA48757   6.343   8.196   9.778  0.0499  0.0737  0.0475
32624ION     NA48758   4.446  10.133  10.260 -0.0370 -0.0360  0.2731
32625ION     NA48759  12.427   9.271   0.840 -0.0883  0.0622 -0.0511
32626ION     NA48760   4.403   7.872  10.007  0.1800  0.0080  0.3190
32627ION     NA48761   9.613   1.130   2.317  0.2370 -0.0341  0.2961
32628ION     NA48762   8.097  10.772  10.227  0.2145 -0.2182  0.2192
32629ION     NA48763  16.858  14.751   6.266  0.1395  0.2065  0.0339
32630ION     NA48764   4.085  10.680  10.211 -0.1024  0.1382 -0.0235
32631ION     NA48765  17.861   0.868  10.854  0.2620  0.2971  0.2024
32632ION     NA48766  17.598   3.593   5.784  0.2788  0.1881 -0.0339
32633ION     NA48767  13.098   4.524  10.661 -0.1663  0.2885 -0.0498
32634ION     NA48768   7.798  16.186   3.825 -0.1464 -0.0153  0.0750
32635ION     NA48769  16.373   4.005  10.520 -0.1147 -0.1842 -0.0216
32636ION     NA48770   4.778  17.175  15.478  0.0841 -0.4730  0.1484
32637ION     NA48771  12.146   7.753  10.073  0.0616  0.2051 -0.0022
32638ION     NA48772  14.859  13.248   6.298  0.1264  0.0311  0.2039
32639ION     NA48773  14.020   1.396   5.878 -0.0981  0.0214 -0.2684
32640ION     NA48774   9.454   9.943   9.755 -0.1518  0.0358 -0.0997
32641ION     NA48775  16.948  10.189  15.889 -0.0224 -0.1896 -0.1041
32642ION     NA48776   0.459   6.587  10.493 -0.0523  0.0345 -0.1258
32643ION     NA48777   5.941   1.015   6.237 -0.1773  0.3420 -0.1604
32644ION     NA48778   1.586  15.193  10.909  0.0575 -0.0684 -0.2920
32645ION     NA48779   7.907  15.742  13.275 -0.2260  0.2429  0.2585
32646ION     NA48780   7.085  16.873  10.996  0.2067  0.0129  0.0835
32647ION     NA48781  17.914  16.223  10.943  0.4073 -0.0965 -0.2411
32648ION     NA48782   3.933  12.135  10.370 -0.0046 -0.2063  0.1015
32649ION     NA48783   5.044   5.378   4.454 -0.0216 -0.1722  0.1609
32650ION     NA48784   7.353  10.081   1.528  0.1330  0.2490 -0.0192
32651ION     NA48785  15.265  13.610  14.469 -0.1479  0.1073 -0.2323
32652ION     NA48786  13.674   7.166   9.898  0.0914 -0.0709  0.3024
32653ION     NA48787  14.150   5.499   5.619  0.0862 -0.1461 -0.1271
32654ION     NA48788   5.381  13.437  10.673 -0.0772 -0.1589  0.0182
32655ION     NA48789   7.103  10.931  10.202 -0.0426 -0.0140  0.2672
32656ION     NA48790  11.970   8.189  15.798 -0.2748  0.0303 -0.4138
32657ION     NA48791  16.160   2.217  10.818  0.3806 -0.2769 -0.1214
32658ION     NA48792   0.495   7.011  10.244 -0.1759  0.2432  0.0267
32659ION     NA48793  16.438  16.392  10.843  0.0035 -0.0637 -0.1877
32660ION     NA48794   2.400   4.066  10.664  0.0448 -0.1505  0.1145
32661ION     NA48795  13.462   4.640   4.550  0.2304  0.0819  0.1085
32662ION     NA48796   2.149   0.329  10.874 -0.2913  0.4449 -0.2814
32663ION     NA48797  17.456   5.576  12.255 -0.1590  0.6361  0.1158
32664ION     NA48798  14.683  13.256  15.624  0.0803 -0.1263  0.2677
32665ION     NA48799   6.977   1.801  10.907 -0.0230 -0.0248 -0.1430
32666ION     NA48800   8.790  16.346  10.609  0.2504  0.2327 -0.1639
32667ION     NA48801  11.063  14.975   4.044  0.0082  0.1055 -0.0197
32668ION     NA48802  16.682  10.061   5.715  0.1006  0.2818  0.1509
32669ION     NA48803   7.300  12.853  14.905 -0.0666  0.0554  0.0652
32670ION     NA48804   2.980   9.651  10.138 -0.2159  0.2489 -0.2620
32671ION     NA48805   0.757   1.564   2.944  0.2785  0.0852 -0.3107
32672ION     NA48806  12.193  13.497  10.950 -0.0318 -0.1034  0.1952
32673ION     NA48807   2.116   9.369   9.928  0.0702 -0.3955  0.1833
32674ION     NA48808   8.788  10.356   9.967 -0.3413  0.0860  0.1022
32675ION     NA48809  17.901  16.552   5.815  0.1189 -0.0719 -0.1080
32676ION     NA48810  16.274   3.270  10.607 -0.0756  0.0879  0.0937
32677ION     NA48811  10.378  15.136  11.764  0.4981  0.1000  0.6574
32678ION     NA48812   7.570   2.239  11.158  0.2097  0.0430 -0.1171
32679ION     NA48813   9.624   0.416  11.054 -0.0179 -0.0931  0.0569
32680ION     NA48814  17.383   4.285  13.745  0.1770 -0.0488 -0.0912
32681ION     NA48815   5.033   2.392   5.028 -0.0216  0.0492  0.5175
32682ION     NA48816   9.072  14.672  10.302  0.3957  0.1381 -0.2691
32683ION     NA48817   5.961  15.094  14.319 -0.0947 -0.2092  0.0609
32684ION     NA48818   2.251   4.490  11.983  0.2907 -0.2044 -0.0506
32685ION     NA48819   2.073  17.200  10.753 -0.0857  0.0573  0.1144
32686ION     NA48820   5.584  12.398  10.418 -0.1503  0.0773  0.0977
32687ION     NA48821  10.710   8.060   5.650 -0.2459 -0.2468 -0.2258
32688ION     NA48822   8.850  12.233  13.138  0.1601 -0.2847  0.3693
32689ION     NA48823   5.501  15.395   6.481 -0.1839 -0.1234 -0.0369
32690ION     NA48824   4.328  14.062  10.731  0.1099  0.1861  0.0824
32691ION     NA48825   8.063   5.699   4.048 -0.1541  0.4102 -0.2592
32692ION     NA48826   4.803   6.851   5.603 -0.2750  0.0530 -0.0444
32693ION     NA48827   6.170   5.372  10.501 -0.0077  0.0956  0.0980
32694ION     NA48828   2.141  10.761  10.233  0.1157  0.0106 -0.1731
32695ION     NA48829  16.707   9.266  10.079  0.1183 -0.1559  0.1499
32696ION     NA48830   0.374   9.113  10.261 -0.1398 -0.2111 -0.0035
32697ION     NA48831  16.318  11.607  10.400 -0.2673 -0.1251 -0.0986
32698ION     NA48832   1.926   2.240  10.947 -0.1902  0.2291  0.1981
32699ION     NA48833  15.545  16.006  10.961 -0.1449  0.2391  0.1141
32700ION     NA48834  16.757  15.355  10.926 -0.1079  0.2219 -0.3262
32701ION     NA48835  11.996  14.924  11.033 -0.0486  0.1229  0.3197
32702ION     NA48836  11.005   9.652   9.943  0.1201  0.3120 -0.0732
32703ION     NA48837  14.400  12.517  13.064 -0.1589  0.1616 -0.1787
32704ION     NA48838   5.189   3.609  13.025  0.1319 -0.1692 -0.1332
32705ION     NA48839  12.567  12.891   6.112 -0.2934 -0.0308  0.0165
32706ION     NA48840  18.056   4.635  10.649  0.0356 -0.0378 -0.0319
32707ION     NA48841  11.815  17.120  11.381 -0.1730 -0.0239 -0.0124
32708ION     NA48842  17.779  17.442   0.347 -0.3224 -0.0619  0.0609
32709ION     NA48843   9.501  16.882  10.827 -0.0223  0.3913 -0.0711
32710ION     NA48844   5.345   1.414  10.840 -0.2604  0.0860 -0.0184
32711ION     NA48845   6.200  13.622  10.513  0.1148  0.2183  0.1912
32712ION     NA48846   8.595   5.665  11.461 -0.1870 -0.1335  0.2696
32713ION     NA48847  12.772   3.735  10.692 -0.3772  0.2137 -0.0401
32714ION     NA48848   7.211   0.355   6.410 -0.2922  0.0506 -0.1583
32715ION     NA48849   7.217   7.405  13.208  0.1612 -0.1914  0.1511
32716ION     NA48850   6.942   3.154   0.298  0.1945 -0.2874 -0.0100
32717ION     NA48851   5.055   1.242   6.130  0.0789 -0.1936  0.1528
32718ION     NA48852  13.018   6.326  10.236 -0.0456 -0.0405  0.1711
32719ION     NA48853   3.801   9.245  10.006  0.0195  0.2698 -0.0938
32720ION     NA48854  10.673  17.413   5.073  0.0193 -0.1301 -0.0971
32721ION     NA48855   4.688  12.738  10.610  0.0350  0.0018  0.0740
32722ION     NA48856   9.793   8.273   5.613  0.1080 -0.2393 -0.0719
32723ION     NA48857  14.218  12.085  10.629 -0.4231  0.1107 -0.2072
32724ION     NA48858  10.934   2.781  10.816  0.1887  0.1648  0.0571
32725ION     NA48859   9.479  12.547  10.120  0.0077 -0.0509 -0.2896
32726ION     NA48860   4.650  14.750   1.369 -0.0893 -0.0731 -0.2764
32727ION     NA48861  16.665   3.751   5.703  0.0938  0.0673 -0.0543
32728ION     NA48862  12.950   5.762   5.819 -0.3641 -0.2017 -0.0598
32729ION     NA48863   9.308  17.008   1.777 -0.2407  0.0625  0.0374
32730ION     NA48864   2.225  14.398  10.808 -0.1937  0.1679  0.0669
32731ION     NA48865   9.572  11.372  10.552 -0.0843  0.2739  0.0719
32732ION     NA48866   8.888   4.739   3.116 -0.1423 -0.1590 -0.2141
32733ION     NA48867  16.971   9.128   2.440 -0.1598  0.0700 -0.3202
32734ION     NA48868   5.187   7.393   9.919  0.2408 -0.0008  0.1046
32735ION     NA48869   3.672   8.572   0.756  0.0017 -0.2828  0.0544
32736ION     NA48870  11.086  11.378  15.442  0.1451  0.1734  0.1020
32737ION     NA48871  10.158   6.729  10.245 -0.0012  0.2089  0.0856
32738ION     NA48872  14.450   9.446   9.972 -0.0102  0.0710 -0.1436
32739ION     NA48873   9.268  16.836   0.668 -0.2186 -0.0678 -0.0133
32740ION     NA48874  11.949   0.395  13.687 -0.2760  0.2569 -0.1331
32741ION     NA48875   0.748   1.434  10.890 -0.4550 -0.0122 -0.1712
32742ION     NA48876  17.964   8.413  10.173 -0.0720  0.0065 -0.2576
32743ION     NA48877  14.797  12.147  10.664 -0.2706 -0.0446  0.1288
32744ION     NA48878  16.126  18.147   5.657  0.0461 -0.0227  0.2329
32745ION     NA48879   2.927  13.755  10.965  0.1080 -0.1256 -0.0001
32746ION     NA48880   8.803   2.079  11.006  0.0658  0.2021 -0.0496
32747ION     NA48881   7.146   0.139  10.870  0.2212  0.1997  0.0925
32748ION     NA48882   4.096  13.623   2.590  0.0304  0.0549 -0.1623
32749ION     NA48883   1.327   3.770  10.746 -0.0141  0.3737 -0.3524
32750ION     NA48884  15.375   8.129  10.307  0.0695 -0.0631  0.2426
32751ION     NA48885  11.053  16.757  13.267  0.1806 -0.2127  0.1973
32752ION     NA48886  17.206  13.146   6.481  0.0254 -0.0798  0.2773
32753ION     NA48887  12.851   3.615  11.193  0.0414  0.0378  0.0304
32754ION     NA48888   6.405   9.886  15.110 -0.2117 -0.0449 -0.2627
32755ION     NA48889  17.489  13.940   6.435  0.3009  0.2390 -0.1147
32756ION     NA48890   8.135   2.591  13.199 -0.0518  0.0473 -0.1260
32757ION     NA48891   4.179   8.310   9.799  0.1834  0.2339 -0.3529
32758ION     NA48892   9.726  15.143  10.816 -0.0897 -0.0055 -0.1350
32759ION     NA48893   5.263  18.153  11.506  0.2721 -0.0223 -0.0556
32760ION     NA48894  13.362  12.007   5.570 -0.0517  0.2605  0.0079
32761ION     NA48895   6.764  17.698   6.346  0.0021  0.0400 -0.1461
32762ION     NA48896  15.167   7.972   5.237 -0.2814  0.0912  0.0211
32763ION     NA48897  11.511   6.061   4.255  0.2379  0.0882 -0.0464
32764ION     NA48898  15.426  13.952   6.405  0.3126  0.0294 -0.1621
32765ION     NA48899   6.827  16.677   0.403  0.1719  0.1714 -0.0619
32766ION     NA48900   8.191   0.518  10.964  0.1279  0.1310 -0.2212
32767ION     NA48901   2.068  11.751  10.271 -0.4336  0.2910  0.0569
32768ION     NA48902   0.158  13.042   2.514  0.0983 -0.3709  0.0958
32769ION     NA48903   2.779  15.116  11.086 -0.0535 -0.0480 -0.0090
32770ION     NA48904   6.758   8.980   9.724  0.1373  0.3137 -0.2050
32771ION     NA48905   3.797   2.397  10.824 -0.1181  0.4988  0.0914
32772ION     NA48906   8.206  14.916  10.545  0.4006 -0.1414  0.4440
32773ION     NA48907  15.238   8.964   9.959  0.3478  0.2461  0.0594
32774ION     NA48908   5.981   4.269  12.880  0.1725  0.0201  0.1404
32775ION     NA48909   5.063   6.432   3.173  0.1500  0.2302  0.2453
32776ION     NA48910  11.144  17.418  11.392  0.1568 -0.3853  0.3618
32777ION     NA48911   2.844   4.613   5.860 -0.0117 -0.3577 -0.1269
32778ION     NA48912   2.061   6.753   1.598  0.0089 -0.2300  0.0791
32779ION     NA48913  17.471   5.187   1.098 -0.2403 -0.1552  0.0234
32780ION     NA48914  15.440  12.416   6.245 -0.0777 -0.1506  0.3079
32781ION     NA48915   9.501  17.756  10.832  0.2418 -0.0927  0.2454
32782ION     NA48916  16.443   9.124   5.462 -0.0682 -0.0091  0.0865
32783ION     NA48917  17.639   4.216  10.732  0.1081  0.0932 -0.0991
32784ION     NA48918  13.747   3.849  10.632  0.2864 -0.3766  0.1260
32785ION     NA48919  13.652   7.591  14.379 -0.1702 -0.1852 -0.0615
32786ION     NA48920   0.513   7.730   1.903  0.0864  0.1686  0.0419
32787ION     NA48921   7.812  13.368  10.355  0.2910  0.0002  0.1401
32788ION     NA48922  13.532  10.287  15.053 -0.0362  0.2221  0.1150
32789ION     NA48923  17.712  14.072  11.061 -0.0150 -0.2095 -0.1632
32790ION     NA48924  15.849   9.692   3.478 -0.0443  0.1736 -0.1017
32791ION     NA48925   9.971  10.188   5.576  0.2148  0.0890 -0.0245
32792ION     NA48926  10.995   6.149  10.362 -0.3758  0.0044 -0.1960
32793ION     NA48927  12.308  13.735  11.931  0.0916  0.1724  0.0563
32794ION     NA48928   9.257   3.017  10.745 -0.1191  0.0794  0.0674
32795ION     NA48929  17.760   6.614   3.455  0.0289 -0.1465 -0.1693
32796ION     NA48930  13.755   0.467   6.238 -0.0011  0.2845  0.0800
32797ION     NA48931   5.041  16.987  10.742 -0.0218 -0.0421 -0.0862
32798ION     NA48932   6.726   2.619  10.721  0.1214  0.1263  0.0385
32799ION     NA48933   5.244   2.424  10.990 -0.1859 -0.0395 -0.1137
32800ION     NA48934   1.657   8.933  13.224 -0.0618 -0.4829 -0.1270
32801ION     NA48935   2.764   2.995   1.180 -0.1597 -0.1804  0.2963
32802ION     NA48936   1.694  11.683  12.684  0.2927  0.1773  0.0056
32803ION     NA48937  17.976  13.227   6.197  0.1380 -0.2823  0.1993
32804ION     NA48938  12.800  14.638   6.139  0.0299  0.0720  0.0052
32805ION     NA48939  17.368   5.695  10.431 -0.1018 -0.2331  0.0518
32806ION     NA48940   5.857  14.166  10.671 -0.1506  0.1187 -0.0428
32807ION     NA48941  17.999   1.829  10.840  0.0606  0.3205 -0.1948
32808ION     NA48942   4.985  16.772   1.425  0.0555  0.0141  0.0136
32809ION     NA48943  14.013   2.316  10.829 -0.0601 -0.2138  0.1994
32810ION     NA48944  17.621   9.294  10.082  0.0942 -0.2817  0.0762
32811ION     NA48945  14.237  16.500  16.213  0.0114 -0.2011  0.0048
32812ION     NA48946   4.502  17.858  11.060  0.1682  0.0222 -0.2315
32813ION     NA48947  14.843  11.902  11.500 -0.2141  0.0422  0.0333
32814ION     NA48948  16.803   0.068  10.838 -0.2763  0.0046 -0.2104
32815ION     NA48949   8.898   2.689  12.579 -0.0590 -0.1961 -0.0735
32816ION     NA48950   3.297  17.476  10.868 -0.2408 -0.2359 -0.0035
32817ION     NA48951   4.810   9.178  10.012 -0.1828  0.0118  0.0938
32818ION     NA48952   0.200   0.862  11.657 -0.2286 -0.1386 -0.2163
32819ION     NA48953   1.071  13.278  10.579  0.1351 -0.1655  0.1661
32820ION     NA48954   2.947   6.665   6.083  0.1108 -0.0722 -0.2832
32821ION     NA48955   0.860  12.524   5.993 -0.0171 -0.0604 -0.4475
32822ION     NA48956  15.800  10.347   5.614 -0.1170  0.2309 -0.0108
32823ION     NA48957   6.227  15.883  10.935 -0.0846  0.1999 -0.0287
32824ION     NA48958   1.513   4.139   5.947 -0.1079 -0.1311 -0.0685
32825ION     NA48959   6.639  15.254  10.563  0.2792  0.2406 -0.1012
32826ION     NA48960   9.920   7.980   9.983 -0.1830 -0.1086 -0.0856
32827ION     NA48961  11.854  10.914  10.120 -0.2646  0.1456 -0.3112
32828ION     NA48962   2.520  13.642   2.604 -0.0740 -0.1033  0.2471
32829ION     NA48963   2.252   8.514  10.243 -0.0873 -0.3743  0.1828
32830ION     NA48964   8.965  13.210  12.577 -0.1419 -0.1736 -0.1626
32831ION     NA48965  15.944  13.679  11.104 -0.3782 -0.1530 -0.0752
32832ION     NA48966   0.074  17.522  13.879  0.2657 -0.1932 -0.0262
32833ION     NA48967   3.780  12.596  10.522  0.0770  0.1024  0.0928
32834ION     NA48968  15.926  15.188  11.020 -0.1802 -0.2910 -0.1143
32835ION     NA48969   6.890   4.682  10.559 -0.0810 -0.0524  0.2411
32836ION     NA48970   5.716   0.112   0.036 -0.1972  0.0294  0.0356
32837ION     NA48971   4.383   2.896  10.543 -0.1780 -0.1290 -0.0776
32838ION     NA48972  10.498   6.556  13.597 -0.1423  0.2169  0.1268
32839ION     NA48973   4.625  11.019   1.671  0.1039  0.1329 -0.0118
32840ION     NA48974   7.960   5.152   6.059  0.3027  0.0144  0.2815
32841ION     NA48975  17.075   1.718  10.933  0.1623  0.2095  0.1622
32842ION     NA48976  16.829   0.873  10.829  0.1160 -0.0095 -0.0694
32843ION     NA48977   6.938  10.075  10.108  0.0102  0.0073 -0.0089
32844ION     NA48978   2.964  14.849   6.018  0.3092  0.0125  0.0938
32845ION     NA48979  12.063   0.829  12.855 -0.2018  0.0035  0.0193
32846ION     NA48980   7.781   8.971   9.676 -0.0035  0.0813  0.2857
32847ION     NA48981   0.473  16.566  10.861  0.0256 -0.0492  0.1905
32848ION     NA48982   5.441  12.940  10.400 -0.0650 -0.1819  0.0921
32849ION     NA48983   3.363  15.709  10.967  0.0960  0.0562 -0.0129
32850ION     NA48984   2.459   6.357  10.511 -0.1575  0.0137  0.1280
32851ION     NA48985   8.526  11.201   2.670  0.1859 -0.3633 -0.1733
32852ION     NA48986  15.264   2.340  10.935 -0.2958 -0.0363 -0.1846
32853ION     NA48987   9.663   5.830  11.241 -0.0908  0.0405  0.1142
32854ION     NA48988   5.064   4.090   6.190  0.0811 -0.0947  0.0954
32855ION     NA48989   1.381  15.175   5.449 -0.1191 -0.0444  0.0686
32856ION     NA48990   6.821   5.471   6.088  0.1799 -0.1646  0.0528
32857ION     NA48991  14.651  16.755  14.236  0.0583  0.6607  0.0107
32858ION     NA48992  10.863   2.148  10.820  0.3501  0.2954  0.2033
32859ION     NA48993   9.150   6.553  10.325 -0.3143  0.0340  0.1317
32860ION     NA48994   5.336  13.387  11.562  0.1784  0.1499 -0.0965
32861ION     NA48995   2.708   3.264  10.850  0.2557 -0.4240  0.2191
32862ION     NA48996   0.573  18.052  11.225  0.1400  0.1598 -0.0248
32863ION     NA48997  17.585  10.310  10.468  0.1609  0.1124  0.2387
32864ION     NA48998  13.480  10.923  10.195  0.1169 -0.0436 -0.0393
32865ION     NA48999   8.955  12.207  14.850 -0.3514  0.0448  0.0775
32866ION     NA49000   6.607   0.943  13.148  0.2179 -0.0388 -0.2834
32867ION     NA49001  10.502  11.551  10.098  0.0659  0.3604 -0.1404
32868ION     NA49002   4.059  14.114  16.417  0.0735  0.2012 -0.2538
32869ION     NA49003  14.856  11.339  10.643  0.2535  0.0658 -0.1406
32870ION     NA49004   1.089  10.767  10.600 -0.0978 -0.2298 -0.1267
32871ION     NA49005  13.421  13.817  10.956 -0.0642  0.3058 -0.0884
32872ION     NA49006   5.322   9.788   9.991 -0.0977 -0.0528 -0.0351
32873ION     NA49007  10.976  10.639   9.934 -0.1041  0.2243 -0.2857
32874ION     NA49008   7.421   5.998   3.988  0.5052  0.1877  0.2945
32875ION     NA49009   1.524  17.327  10.970  0.4158 -0.0311  0.1996
32876ION     NA49010  12.280  15.782   1.392 -0.2838  0.1834  0.1212
32877ION     NA49011  13.220   4.951  11.206 -0.0585  0.0321 -0.1528
32878ION     NA49012  10.882  10.470   5.559 -0.0488 -0.2160  0.1271
32879ION     NA49013   5.032  14.558  10.720 -0.1239  0.1031  0.2341
32880ION     NA49014   2.472  14.635  12.857 -0.2491 -0.0150 -0.1457
32881ION     NA49015   7.041  10.705  11.760  0.0287 -0.0263  0.1582
32882ION     NA49016  11.223   4.543  10.602 -0.2290  0.2524 -0.1143
32883ION     NA49017   0.293   7.981  10.074 -0.2998 -0.0542 -0.0676
32884ION     NA49018   2.203   5.550  10.727  0.0835 -0.0398 -0.1486
32885ION     NA49019  17.640   1.228   4.987 -0.0072 -0.0737 -0.0756
32886ION     NA49020  13.502  14.670  10.972 -0.1371  0.1195 -0.4668
32887ION     NA49021   9.675  10.127   3.187  0.1511  0.1865 -0.0362
32888ION     NA49022   5.969  12.595   3.832 -0.1781 -0.4917  0.0397
32889ION     NA49023  13.330  10.351   0.901  0.0131  0.3786 -0.1203
32890ION     NA49024   1.414   8.619   9.970  0.5266  0.5321  0.0558
32891ION     NA49025   4.909  11.845  10.220  0.2925 -0.2020  0.1398
32892ION     NA49026   6.806  14.217   4.029 -0.0484 -0.0035  0.1979
32893ION     NA49027  15.166   3.643   3.019 -0.0067  0.1426 -0.0807
32894ION     NA49028   0.705  11.708  10.723 -0.1323 -0.1028 -0.0476
32895ION     NA49029   6.113   1.985  10.720 -0.2948  0.0407  0.0334
32896ION     NA49030  11.653  13.654   6.031 -0.2121  0.0254  0.2827
32897ION     NA49031   1.311   7.197  10.236 -0.0377 -0.3458 -0.0418
32898ION     NA49032   6.514  13.025   4.570  0.0700  0.4734 -0.3936
32899ION     NA49033   5.520   7.282   5.187 -0.0504 -0.3227  0.1805
32900ION     NA49034   4.519   2.511   5.939 -0.2047 -0.0257  0.1649
32901ION     NA49035  10.910   3.731  10.801 -0.3251  0.1058 -0.1911
32902ION     NA49036   0.806  15.684   4.552  0.4231 -0.2186 -0.0425
32903ION     NA49037   5.032   8.234   5.531  0.1310  0.1680 -0.2662
32904ION     NA49038   0.942   5.373   0.441  0.0411 -0.1129 -0.0268
32905ION     NA49039  10.327  17.778  10.934 -0.1096  0.2534  0.2331
32906ION     NA49040   0.083   5.806  13.881 -0.3732  0.1958  0.0070
32907ION     NA49041   2.513  12.493  15.271 -0.0662  0.0414 -0.1103
32908ION     NA49042  10.767   7.474  10.092 -0.0007  0.1285 -0.0867
32909ION     NA49043  15.489  14.323   4.029 -0.0211 -0.1179  0.2212
32910ION     NA49044   0.247  10.108  10.445  0.1039  0.0863  0.0581
32911ION     NA49045  11.600  12.184   3.564 -0.2526 -0.2151  0.2385
32912ION     NA49046   6.255   5.917  12.229 -0.2643  0.0437  0.2827
32913ION     NA49047   4.593  13.226   5.918 -0.2183  0.1471  0.4414
32914ION     NA49048  12.213   3.662   5.794 -0.1069 -0.1304  0.2367
32915ION     NA49049  12.768   9.815  10.492  0.0748 -0.5276 -0.0125
32916ION     NA49050   6.607  17.803  10.921  0.2423 -0.1498  0.1294
32917ION     NA49051  10.227  10.981   9.941 -0.1248  0.0116 -0.0374
32918ION     NA49052   0.508   3.236   0.222 -0.3669  0.0141  0.0331
32919ION     NA49053   5.418  10.083   4.795  0.1470  0.0220  0.0953
32920ION     NA49054   9.142   7.140  11.483  0.3044 -0.3099 -0.2244
32921ION     NA49055   8.531   1.112  10.712  0.0741 -0.1146 -0.2713
32922ION     NA49056  15.306  17.081  15.006  0.1569  0.0978 -0.1678
32923ION     NA49057   1.198   8.182  10.156 -0.1833  0.1189  0.2747
32924ION     NA49058  10.453  12.453  10.228  0.3470  0.1473  0.3368
32925ION     NA49059  14.168  11.876   5.870  0.1893 -0.2959  0.0280
32926ION     NA49060   5.337   8.371  12.463  0.1546 -0.1431  0.0835
32927ION     NA49061   4.989   4.532  10.639 -0.4220 -0.2727 -0.0272
32928ION     NA49062  15.817  10.629  10.777 -0.1356 -0.0931 -0.3094
32929ION     NA49063   6.318  10.604  10.184  0.2583  0.2381 -0.0004
32930ION     NA49064  10.605  14.558  11.017 -0.0062 -0.0864 -0.0419
32931ION     NA49065  12.345  13.778  15.550  0.2823 -0.0019  0.3013
32932ION     NA49066  17.510  11.386  10.630  0.0904  0.0016 -0.2572
32933ION     NA49067  10.477   1.840  15.744 -0.1486 -0.4718 -0.0752
32934ION     NA49068   4.323  11.233  10.178 -0.1161 -0.1432  0.0470
32935ION     NA49069  10.318   7.507   3.048  0.0068 -0.0974 -0.0838
32936ION     NA49070  16.134  13.198   2.198 -0.3323 -0.1005  0.0897
32937ION     NA49071   1.988  12.841  13.975 -0.2740  0.1296 -0.1140
32938ION     NA49072   8.232   0.879   5.114 -0.0583 -0.2083 -0.2606
32939ION     NA49073   2.874  10.161  10.198  0.0603  0.0788 -0.0670
32940ION     NA49074   9.289  14.714   5.701  0.0630 -0.1867 -0.0713
32941ION     NA49075  10.914  13.352   5.764 -0.2378  0.0137  0.1830
32942ION     NA49076   8.925  15.504  10.532  0.3799  0.0323 -0.0843
32943ION     NA49077   3.760  14.890   6.329  0.4304 -0.2196 -0.0640
32944ION     NA49078   2.110  16.126   6.323  0.1111 -0.0713  0.0982
32945ION     NA49079  13.856  10.909   5.760 -0.0123  0.2535 -0.0503
32946ION     NA49080  15.072  15.412   3.711  0.2754 -0.1991 -0.0174
32947ION     NA49081   2.549  10.361   2.783  0.1286  0.0932  0.0828
32948ION     NA49082   9.907  15.443   6.108 -0.2209  0.2619  0.3311
32949ION     NA49083  14.508   9.593   0.839 -0.2845 -0.1125 -0.0939
32950ION     NA49084  14.027   6.571   3.953  0.0557 -0.0061  0.2689
32951ION     NA49085   7.946  11.627   4.747 -0.0949  0.2036  0.0758
32952ION     NA49086  16.744   5.604  10.327 -0.0677  0.2507 -0.3305
32953ION     NA49087  14.217  15.037  11.267 -0.0432 -0.0002  0.1662
32954ION     NA49088   3.635  14.850  10.851  0.1040  0.4160  0.2756
32955ION     NA49089   1.602   0.990  10.899 -0.1394  0.0559  0.2050
32956ION     NA49090  11.692   7.190  13.216 -0.2939  0.2357 -0.4285
32957ION     NA49091  16.247   1.569  10.982 -0.2544 -0.1281 -0.0790
32958ION     NA49092  12.555  17.507  10.999  0.0094 -0.1280 -0.2651
32959ION     NA49093  14.235  12.646  14.298 -0.2102 -0.1261  0.0224
32960ION     NA49094  11.378   1.335  11.172 -0.0293 -0.3354 -0.0732
32961ION     NA49095  14.057  11.211  15.301  0.4252 -0.1599  0.1095
32962ION     NA49096   0.043  13.419  10.746  0.0232 -0.0006  0.2273
32963ION     NA49097  13.392   3.982  15.724  0.1663 -0.1532 -0.0884
32964ION     NA49098   0.756   7.889   5.492 -0.3958  0.0066 -0.2038
32965ION     NA49099   8.367   9.138  14.679 -0.1871  0.3001  0.1282
32966ION     NA49100   0.087   1.487  15.524 -0.1289 -0.3412  0.1123
32967ION     NA49101   8.062   0.984  10.799 -0.1603  0.0365 -0.2164
32968ION     NA49102   2.298   0.344   1.529 -0.1577 -0.2259 -0.3376
32969ION     NA49103  11.478   0.053   6.336 -0.1822 -0.0607 -0.2798
32970ION     NA49104   1.397  14.221  10.850 -0.1442 -0.1377  0.1529
32971ION     NA49105   4.107   0.829  10.701 -0.2202 -0.1191  0.3597
32972ION     NA49106  15.121  13.067  10.854 -0.0193 -0.0720 -0.1416
32973ION     NA49107  17.499   2.672  10.844  0.1846  0.1516  0.2947
32974ION     NA49108   9.106  12.002   5.306  0.1270 -0.0696  0.1047
32975ION     NA49109   5.412   4.025   4.564  0.2431  0.1674  0.2006
32976ION     NA49110   6.616  17.012   5.736 -0.0168  0.0168  0.0894
32977ION     NA49111   6.910  13.005  10.256  0.1416  0.0520 -0.0550
32978ION     NA49112  11.770   1.554   4.053 -0.2225 -0.1660  0.2657
32979ION     NA49113  12.128   5.139  10.602  0.0389 -0.0909 -0.0883
32980ION     NA49114  11.466  13.568  10.651 -0.0575  0.0419 -0.1802
32981ION     NA49115  15.799  13.310   0.277  0.2432 -0.1151 -0.0525
32982ION     NA49116  14.620   4.919  10.310  0.2608  0.1791 -0.3821
32983ION     NA49117  16.399  11.641   5.772 -0.0845  0.3393  0.0988
32984ION     NA49118   8.396   8.229   9.613 -0.3667 -0.0859 -0.0133
32985ION     NA49119   1.485  15.610  13.354  0.1116  0.0628  0.2008
32986ION     NA49120  11.228   8.486   9.966  0.1180 -0.2615  0.1251
32987ION     NA49121  10.119   0.568   3.560  0.0773 -0.1351  0.0671
32988ION     NA49122  15.001  14.013  11.073  0.1216 -0.2871  0.0694
32989ION     NA49123  15.509   1.408  10.700 -0.0566 -0.1791  0.1873
32990ION     NA49124   7.508   2.365  12.475  0.0772  0.0882 -0.1541
32991ION     NA49125   0.448   3.738   2.272 -0.1170 -0.0776 -0.2643
32992ION     NA49126  10.423  17.447   6.053  0.3375 -0.1603  0.1102
32993ION     NA49127   2.745  14.311  16.398 -0.1310 -0.0685 -0.0741
32994ION     NA49128   0.467   3.958  10.408  0.0745 -0.1212  0.1349
32995ION     NA49129   3.999   7.846   4.625 -0.1593  0.2020 -0.0059
32996ION     NA49130   4.284   5.398   1.737  0.0833 -0.0962 -0.1737
32997ION     NA49131  10.050  12.101   5.749  0.1081  0.1829 -0.1360
32998ION     NA49132   5.557   7.724  15.898 -0.3752  0.3474 -0.0312
32999ION     NA49133  13.499   3.012  10.723  0.3412 -0.3266 -0.0811
33000ION     NA49134   9.886   3.472  10.693 -0.1296  0.0959  0.2451
33001ION     NA49135  16.731  17.505  14.997 -0.2065 -0.3011  0.0314
33002ION     NA49136  17.736   9.698   0.907  0.0128  0.1882  0.0165
33003ION     NA49137   0.610  12.624  10.716 -0.0033  0.0625  0.0926
33004ION     NA49138  12.364  12.552  10.794  0.0860  0.1399  0.1539
33005ION     NA49139  17.175   3.429  10.684  0.0319  0.1935  0.0019
33006ION     NA49140   7.223   3.224   2.974 -0.0582  0.0549 -0.4690
33007ION     NA49141  11.732  14.195  11.074 -0.0053  0.0432  0.1902
33008ION     NA49142  11.505   3.463  10.608 -0.0083 -0.1952  0.1936
33009ION     NA49143  16.825  13.134  13.197 -0.0014 -0.2132 -0.1816
33010ION     NA49144  14.120  13.058  10.908  0.0914  0.0789  0.4778
33011ION     NA49145  16.086   8.679  10.240  0.0196  0.0042 -0.3110
33012ION     NA49146   2.639   3.827  12.297  0.0130 -0.0181 -0.3675
33013ION     NA49147   1.433  11.205  10.544 -0.0359  0.1068  0.2229
33014ION     NA49148   4.461   1.968  10.791  0.0337 -0.0058 -0.0482
33015ION     NA49149  10.540   0.200   6.179  0.0915  0.0023 -0.2486
33016ION     NA49150  11.609  15.446   6.299  0.1663  0.1237  0.1456
33017ION     NA49151   7.795  10.940   5.505 -0.1620 -0.0915 -0.2514
33018ION     NA49152   7.969   9.919  10.073 -0.0150 -0.3248 -0.1265
33019ION     NA49153   1.848   8.012   3.300  0.3895  0.1646  0.1381
33020ION     NA49154  17.839   7.121   9.988  0.0293  0.1688  0.3538
33021ION     NA49155   8.237  11.784   5.818  0.0993  0.0404 -0.1426
33022ION     NA49156  11.704   6.862  10.205 -0.0407  0.0159  0.1148
33023ION     NA49157  17.813   3.172   2.564  0.1547  0.2485 -0.1142
33024ION     NA49158  17.776  17.266  10.911 -0.0096  0.0623  0.1045
33025ION     NA49159   6.495   6.035  10.107 -0.0869  0.2242 -0.1817
33026ION     NA49160   3.423   9.536  11.262  0.2530  0.2905  0.4591
33027ION     NA49161  15.791   9.591  10.346  0.4060 -0.1217  0.1306
33028ION     NA49162  17.723  15.116  10.989 -0.1698 -0.0231 -0.0917
33029ION     NA49163   8.875  12.770  13.916 -0.0345  0.0744 -0.1277
33030ION     NA49164   7.393  17.545  10.681  0.0207  0.1061  0.0796
33031ION     NA49165   3.031   8.749  10.187  0.0740  0.0169  0.4063
33032ION     NA49166  12.687  14.334  11.066 -0.1760 -0.0985 -0.0979
33033ION     NA49167   7.355  15.012  10.632 -0.3083 -0.1924 -0.1484
33034ION     NA49168  17.391   6.295  11.199 -0.4541 -0.1914  0.3167
33035ION     NA49169  12.432  14.963  14.958 -0.3298 -0.1605 -0.2673
33036ION     NA49170  16.899   7.008  10.083 -0.0169  0.2240 -0.1883
33037ION     NA49171   8.569   4.627  10.460  0.2324 -0.0091 -0.2106
33038ION     NA49172   2.939  14.907  13.594 -0.2341  0.2148  0.1559
33039ION     NA49173  12.625   7.033  10.028 -0.0180  0.1831 -0.0039
33040ION     NA49174  17.934  13.589   3.314 -0.1398 -0.1807 -0.1758
33041ION     NA49175  17.088   6.573  10.368 -0.1697  0.1031  0.1540
33042ION     NA49176   6.412   4.801  12.601 -0.2031  0.0031  0.1323
33043ION     NA49177   3.920  11.192   2.932  0.1058 -0.2299  0.0529
33044ION     NA49178   4.240   9.496   5.819 -0.0059  0.0469  0.1456
33045ION     NA49179   0.689  17.464  15.924  0.2342 -0.0395 -0.2038
33046ION     NA49180   8.284  13.998  10.304  0.4448 -0.2973 -0.2466
33047ION     NA49181   6.011   6.856   9.807 -0.0292  0.1463 -0.1364
33048ION     NA49182   8.740  13.993   2.761 -0.3301  0.0209  0.1589
33049ION     NA49183   8.922   2.668   4.160 -0.2159 -0.0181  0.0075
33050ION     NA49184   1.629  16.938   0.253  0.2446 -0.4269 -0.0189
33051ION     NA49185   1.240   1.027  14.068  0.1118  0.0813 -0.1359
33052ION     NA49186   2.614   9.302   5.604 -0.1567 -0.1014 -0.0206
33053ION     NA49187  16.151   6.728  10.446 -0.1496 -0.0093  0.1805
33054ION     NA49188   0.335  15.521  12.909  0.0957  0.1257  0.0062
33055ION     NA49189   1.907   7.410   5.942 -0.1550  0.0135 -0.0430
33056ION     NA49190   4.992   8.880  11.020  0.1433 -0.1581 -0.0791
33057ION     NA49191   5.883   9.152   9.970 -0.0707  0.0057 -0.2613
33058ION     NA49192   8.522  13.008  10.376  0.1998 -0.3327 -0.2195
33059ION     NA49193   7.682   4.045  10.559 -0.2409 -0.0462 -0.0414
33060ION     NA49194   8.961  14.329  10.717  0.0207 -0.1093 -0.3710
33061ION     NA49195   4.321   6.454   5.787 -0.1679 -0.0611  0.0850
33062ION     NA49196   3.253   4.078  10.642 -0.0180 -0.3517  0.0808
33063ION     NA49197   6.459   2.986  13.260 -0.1907  0.1175  0.2803
33064ION     NA49198   3.380   0.205  10.955 -0.0014  0.1825  0.3234
33065ION     NA49199  14.957   9.961  10.216 -0.1177  0.0572  0.0709
33066ION     NA49200  15.172   6.659  10.086 -0.0049 -0.0610 -0.1712
33067ION     NA49201  10.188   9.224   9.796 -0.2596 -0.3335 -0.3216
33068ION     NA49202  11.930   6.093  10.442  0.0474  0.1392  0.2273
33069ION     NA49203  18.092  10.944  10.714 -0.4071  0.1191 -0.1461
33070ION     NA49204   8.410   2.625  13.637 -0.0541  0.0890  0.0209
33071ION     NA49205  14.740  16.123  11.196  0.1410  0.0737 -0.1948
33072ION     NA49206   5.603  12.535  14.193  0.3973 -0.0695  0.0225
33073ION     NA49207   4.040  16.866  10.931  0.0897  0.0514  0.2013
33074ION     NA49208   8.823   6.157  10.248  0.0761 -0.0819  0.0692
33075ION     NA49209   3.616   7.188  10.508  0.1214 -0.1310 -0.0694
33076ION     NA49210   4.788   0.525  10.862  0.1070 -0.1516  0.0402
33077ION     NA49211  14.835  17.701  10.994  0.3079 -0.0669 -0.0271
33078ION     NA49212   0.109  11.842  10.823  0.1602 -0.1656  0.2342
33079ION     NA49213   8.070   8.424   4.786  0.2224 -0.2061  0.0642
33080ION     NA49214   9.846  14.416  10.527  0.0488 -0.1101 -0.0583
33081ION     NA49215  12.376   0.460   6.068 -0.1782  0.0141 -0.1114
33082ION     NA49216   4.494  16.289  10.919  0.1443 -0.0052 -0.0109
33083ION     NA49217   7.251  14.068  10.520 -0.0050  0.0662 -0.0029
33084ION     NA49218  13.037  15.877   3.360 -0.2151  0.3936 -0.0033
33085ION     NA49219  14.781   9.647   4.743 -0.1052 -0.1012  0.1053
33086ION     NA49220   5.895   4.371  10.559 -0.1039  0.1774 -0.0123
33087ION     NA49221   7.361  13.813   5.742  0.1936 -0.2362  0.1226
33088ION     NA49222   7.433   6.100  10.018  0.0113 -0.2727  0.1626
33089ION     NA49223   5.083   2.964  10.539 -0.2140 -0.0327 -0.3174
33090ION     NA49224   6.043   3.107   3.224  0.2450  0.2626  0.0688
33091ION     NA49225  15.411  11.341  10.374 -0.1262  0.1832 -0.2311
33092ION     NA49226   9.775   4.904  10.547  0.1375  0.1352 -0.0620
33093ION     NA49227  14.330  11.237  10.490  0.3469 -0.2099 -0.1097
33094ION     NA49228  10.494  16.807  10.906 -0.1926 -0.1022  0.1538
33095ION     NA49229   5.122   3.517   2.840 -0.1196 -0.1883 -0.2990
33096ION     NA49230  13.462   5.935   5.671  0.0439 -0.0344 -0.3641
33097ION     NA49231   2.599  16.371  10.790 -0.1049  0.1281 -0.3297
33098ION     NA49232   1.983   4.819  10.678  0.3552 -0.2152  0.0271
33099ION     NA49233   2.287  12.548  10.427  0.1670 -0.4047 -0.0605
33100ION     NA49234   7.678   7.863   9.740 -0.1021  0.0173 -0.0291
33101ION     NA49235   2.973  12.977  10.560 -0.2388  0.0171 -0.0125
33102ION     NA49236  11.035  11.495  10.266  0.2410 -0.1375 -0.2909
33103ION     NA49237  14.388   3.751  15.230  0.2028 -0.4449 -0.1372
33104ION     NA49238  17.447   7.704  10.011 -0.1482 -0.5440 -0.0505
33105ION     NA49239   8.227   5.359  10.410 -0.0729 -0.0010  0.4551
33106ION     NA49240  11.760   2.188  10.984  0.2033  0.0606  0.2215
33107ION     NA49241   8.440  17.178   5.715  0.2355 -0.2627  0.0079
33108ION     NA49242  12.104   0.727  10.992 -0.0095 -0.2486 -0.2377
33109ION     NA49243   4.771   1.372   3.519  0.0777  0.0024 -0.2316
33110ION     NA49244   0.712  15.612   6.161 -0.0571  0.2220 -0.2169
33111ION     NA49245   3.697   7.012  15.605  0.2426 -0.0034  0.0085
33112ION     NA49246   1.025   4.629  10.802 -0.3299 -0.1673 -0.3521
33113ION     NA49247  16.241  14.533  11.178  0.0315  0.1162  0.0943
33114ION     NA49248   2.808  16.855   6.050 -0.1641  0.1633  0.0770
33115ION     NA49249  15.120  15.094  11.110  0.0413 -0.0917 -0.0464
33116ION     NA49250   8.913  17.756   3.592  0.1958 -0.1763  0.3600
33117ION     NA49251   7.122   7.796   5.531 -0.2770 -0.2366  0.0008
33118ION     NA49252  16.614   1.344  16.244 -0.3141 -0.1227 -0.4514
33119ION     NA49253   8.466   7.288   3.037  0.1443 -0.1592  0.1186
33120ION     NA49254   6.834   8.780   1.406 -0.1992  0.0201 -0.1344
33121ION     NA49255   7.982   9.369  11.547  0.0366  0.1976  0.1101
33122ION     NA49256   6.738   0.856  10.828 -0.0206 -0.0673  0.1421
33123ION     NA49257  17.932  14.711  13.802  0.1464  0.0369 -0.1384
33124ION     NA49258  11.742  17.041   6.280 -0.0646  0.0614  0.1172
33125ION     NA49259   2.981  14.256  11.678 -0.1576 -0.0378 -0.1938
33126ION     NA49260  13.087   5.508  10.477 -0.1047  0.2036 -0.2576
33127ION     NA49261  18.175  14.516   3.055  0.0071  0.0759 -0.1380
33128ION     NA49262  13.757  15.632   6.779  0.4432 -0.0441  0.1525
33129ION     NA49263  15.604   4.643   5.939  0.4297 -0.0606  0.0538
33130ION     NA49264  17.282  13.311  10.899  0.1900 -0.0684 -0.0577
33131ION     NA49265   5.071   0.403  15.249 -0.1404  0.2157  0.0108
33132ION     NA49266  14.190  10.387  10.099 -0.2159 -0.3295 -0.1540
33133ION     NA49267   4.102  11.374  16.071  0.2558 -0.2356  0.2870
33134ION     NA49268   0.212  18.085   6.261 -0.1171 -0.3749  0.1561
33135ION     NA49269   5.218   5.350  10.465  0.0446 -0.4070  0.0227
33136ION     NA49270  11.329   5.355  10.484  0.1379  0.0122  0.1036
33137ION     NA49271  10.055  13.323  10.407 -0.1192  0.1800 -0.0673
33138ION     NA49272   6.744   6.786   5.867 -0.3371  0.1717 -0.4593
33139ION     NA49273   1.971   5.093   6.000 -0.3032 -0.1152 -0.1929
33140ION     NA49274  17.248   0.350   6.411  0.1390 -0.2008 -0.0280
33141ION     NA49275   1.727  10.049   1.126 -0.0150  0.0573  0.1234
33142ION     NA49276   7.688  12.548  10.420  0.0327  0.0019  0.2390
33143ION     NA49277  14.088  15.516  11.052  0.0454  0.1992 -0.2060
33144ION     NA49278  10.982   3.569   6.110 -0.0482 -0.0876 -0.0995
33145ION     NA49279   0.400  15.757  11.070 -0.2941 -0.1382 -0.1040
33146ION     NA49280   6.882   5.009  11.731 -0.0122 -0.1076  0.0083
33147ION     NA49281  15.459  18.173  11.070 -0.1281  0.0118 -0.1907
33148ION     NA49282   9.344   8.609   9.854 -0.1995 -0.1400  0.1779
33149ION     NA49283   0.121   6.051   3.952 -0.4409  0.2680 -0.1049
33150ION     NA49284   7.143  11.813  10.342  0.3245 -0.1777 -0.0434
33151ION     NA49285  14.993   3.108  10.803  0.0277 -0.0275 -0.2858
33152ION     NA49286  10.016   4.959  11.425 -0.0089  0.0768  0.3000
33153ION     NA49287  12.841  12.244   5.968  0.0672 -0.0893 -0.1915
33154ION     NA49288   4.891   8.423   2.458 -0.0765  0.0888  0.1076
33155ION     NA49289   0.341   8.245   4.006 -0.1103 -0.0738  0.2056
33156ION     NA49290  18.031  18.121  10.963 -0.1407 -0.1977 -0.2721
33157ION     NA49291  16.084  17.177   2.076  0.2090  0.1178 -0.0976
33158ION     NA49292  16.131   4.782  10.327 -0.3471  0.0544  0.3073
33159ION     NA49293   2.517  10.176   5.270  0.3037 -0.2468 -0.2315
33160ION     NA49294  12.717  16.088  11.127 -0.0354 -0.2773  0.0235
33161ION     NA49295  16.104   7.589  10.042 -0.1423 -0.0036 -0.0764
33162ION     NA49296  13.129   2.072  11.064 -0.1093  0.3961  0.0782
33163ION     NA49297  15.998  12.960  10.709  0.1117  0.3272  0.1345
33164ION     NA49298  11.257  10.113   5.447  0.0408  0.1253 -0.0412
33165ION     NA49299   2.743   7.907   5.622 -0.1232  0.2833  0.3048
33166ION     NA49300  12.346   8.758   5.089 -0.0047 -0.0467 -0.0537
33167ION     NA49301  10.914  12.352  10.434 -0.2060 -0.1038  0.1583
33168ION     NA49302  12.708  10.367   2.659  0.2158  0.0982  0.0363
33169ION     NA49303   4.040   2.058  13.488  0.1765 -0.1857 -0.0750
33170ION     NA49304   8.462   2.964   0.365 -0.1462 -0.2819  0.1247
33171ION     NA49305   5.212   4.043  10.629  0.0462  0.3108 -0.0121
33172ION     NA49306   1.030   0.037   4.147  0.1281 -0.0408  0.1154
33173ION     NA49307   0.476   0.710  15.895 -0.1140  0.1849 -0.1080
33174ION     NA49308   4.362   6.049  10.369  0.1862 -0.0239 -0.0755
33175ION     NA49309   5.198  10.863  10.196 -0.0126  0.4047  0.1199
33176ION     NA49310   4.668   6.814  10.267  0.2780  0.0172  0.0801
33177ION     NA49311   9.579   1.711  16.268  0.1788  0.1045  0.0865
33178ION     NA49312   1.825  17.269  12.336  0.1326 -0.1715 -0.1220
33179ION     NA49313  13.990   8.030   9.643 -0.0468 -0.0725 -0.0827
33180ION     NA49314  10.270  10.038   9.693  0.2846  0.0479  0.0448
33181ION     NA49315   6.232  17.416  10.844 -0.3777 -0.0602 -0.3010
33182ION     NA49316  15.711   9.859   1.930  0.0163  0.1057 -0.2697
33183ION     NA49317   3.933   8.322  11.385  0.3147  0.4479  0.1660
33184ION     NA49318  16.984   6.014  13.788 -0.1017  0.0817  0.1731
33185ION     NA49319  15.599   1.524   6.198 -0.0074  0.1344 -0.0170
33186ION     NA49320  11.694   9.192   9.841 -0.1480 -0.1240 -0.5683
33187ION     NA49321   5.815  14.044  13.020 -0.0549 -0.0125  0.1319
33188ION     NA49322  15.785  11.077  15.335  0.1903  0.2954  0.0539
33189ION     NA49323   4.005  15.019  13.926 -0.3664 -0.1801  0.0060
33190ION     NA49324  15.658   1.010  12.802 -0.1000 -0.3539  0.0823
33191ION     NA49325  13.346   4.768  12.436 -0.4879  0.0092  0.0345
33192ION     NA49326   9.571  10.614  10.042  0.1523 -0.5330  0.1102
33193ION     NA49327  13.527   9.720  10.049  0.2374 -0.1196 -0.1039
33194ION     NA49328  12.180  17.810   5.239 -0.1580 -0.2927 -0.0241
33195ION     NA49329  15.000  17.088  11.687  0.1130  0.0850  0.0505
33196ION     NA49330  12.555  11.059  13.896 -0.0599  0.2129  0.0846
33197ION     NA49331   4.902   9.083   5.615  0.0945  0.1938  0.1465
33198ION     NA49332   5.825  13.877   5.974 -0.0799  0.0040 -0.1958
33199ION     NA49333   7.573  14.648  15.506  0.1701  0.0769 -0.1206
33200ION     NA49334   1.986   6.943  10.268 -0.0647  0.4969 -0.0398
33201ION     NA49335   1.415   4.747   0.638 -0.3485  0.0542  0.1342
33202ION     NA49336   2.414  15.519  11.050  0.1780 -0.0989 -0.1528
33203ION     NA49337  16.428  17.175   6.375  0.2632 -0.0331 -0.0456
33204ION     NA49338   2.680   7.247  10.382  0.3411 -0.0924 -0.1878
33205ION     NA49339  11.307  12.324   5.893 -0.0402 -0.2382  0.0627
33206ION     NA49340  11.817  12.763  10.696  0.2692 -0.0276  0.2500
33207ION     NA49341   6.384   2.192  15.458 -0.1857 -0.2230  0.2269
33208ION     NA49342  10.817   6.073   1.158  0.0794  0.0883  0.1080
33209ION     NA49343   9.068   4.035  10.709  0.1199  0.2589 -0.2582
33210ION     NA49344   7.974   5.786  13.623 -0.0678 -0.0585 -0.0930
33211ION     NA49345   9.228   0.493  10.622 -0.0311 -0.1315 -0.1059
33212ION     NA49346   8.948   2.508   1.294  0.2057  0.0892 -0.0356
33213ION     NA49347   3.042  12.049  10.591 -0.1359 -0.2780  0.0646
33214ION     NA49348   8.311  17.274   4.965  0.0836  0.0637  0.2169
33215ION     NA49349  12.309   1.314  10.889 -0.1798 -0.1109  0.0237
33216ION     NA49350  13.190  13.618   6.209 -0.2775 -0.0184 -0.1262
33217ION     NA49351  12.992  17.060  10.891  0.1390  0.1118  0.1073
33218ION     NA49352  13.153   2.272   5.791 -0.0344  0.0680 -0.1187
33219ION     NA49353  13.448  18.051  15.240  0.0314  0.2726  0.1215
33220ION     NA49354  15.880   0.736  10.952 -0.0141 -0.2166 -0.0517
33221ION     NA49355  10.034   3.495  16.506  0.0717  0.3944 -0.0921
33222ION     NA49356  14.893  17.656  13.007 -0.0047 -0.0556 -0.0134
33223ION     NA49357   3.661  13.429  10.613  0.1459 -0.0582  0.2500
33224ION     NA49358   1.065   2.353   5.551  0.0097 -0.2732  0.0517
33225ION     NA49359  18.054  17.095   5.923 -0.1553  0.1933  0.2350
33226ION     NA49360   3.469   6.183  10.597  0.0453 -0.0436 -0.0972
33227ION     NA49361  14.049   3.459  12.054 -0.1877  0.0481  0.1294
33228ION     NA49362   1.873  13.388  14.653 -0.2062 -0.2710 -0.2589
33229ION     NA49363   2.975   1.942  11.111  0.0723  0.1423 -0.3756
33230ION     NA49364  12.483   6.939  15.445 -0.1817 -0.2027  0.1901
33231ION     NA49365   7.783   7.112   9.980  0.0637  0.3311  0.2588
33232ION     NA49366  13.840   7.815  10.549 -0.2463  0.0386  0.3496
33233ION     NA49367   2.236  10.887   3.470 -0.1190  0.1149 -0.0672
33234ION     NA49368  10.379   1.602  10.930 -0.1815  0.4821 -0.1590
33235ION     NA49369   9.224  13.073  16.483 -0.2642 -0.1734 -0.3702
33236ION     NA49370  16.426  12.438   6.369 -0.0605  0.0881 -0.0645
33237ION     NA49371  10.899  15.475  10.856  0.1493  0.1701  0.0564
33238ION     NA49372   8.773  12.083  10.187 -0.1498  0.1212  0.0746
33239ION     NA49373  12.748  11.511   1.431 -0.1309 -0.0514  0.3033
33240ION     NA49374  13.009   0.272  10.644 -0.1572  0.0737 -0.2459
33241ION     NA49375  17.081   4.713  10.424  0.3622  0.1005  0.0446
33242ION     NA49376  16.833   9.975  10.260  0.2337  0.0424 -0.2505
33243ION     NA49377  17.070  16.969   5.959 -0.1043  0.3097  0.0658
  18.17584  18.17584  16.54370
